# vtk DataFile Version 3.0 
vtk output 
ASCII 
DATASET UNSTRUCTURED_GRID 
POINTS 4 float 
-0.577350 -0.577350 0.000000 
-0.577350 0.577350 0.000000 
0.577350 -0.577350 0.000000 
0.577350 0.577350 0.000000 
CELLS 4 8 
1 0 
1 1 
1 2 
1 3 
CELL_TYPES 4 
1 
1 
1 
1 
POINT_DATA 4 
VECTORS X_GC float 
-0.577350 -0.577350 0.000000 
-0.577350 0.577350 0.000000 
0.577350 -0.577350 0.000000 
0.577350 0.577350 0.000000 
VECTORS X_EC float 
0.577350 0.577350 0.000000 
0.577350 -0.577350 0.000000 
-0.577350 0.577350 0.000000 
-0.577350 -0.577350 0.000000 
CELL_DATA 4 
SCALARS MASS float 
LOOKUP_TABLE default 
1.000000 
1.000000 
1.000000 
1.000000 
SCALARS DENSITY float 
LOOKUP_TABLE default 
1.000000 
1.000000 
1.000000 
1.000000 
SCALARS P float 
LOOKUP_TABLE default 
0.000000 0.000000 0.000000 0.000000 SCALARS W float 
LOOKUP_TABLE default 
0.000000 
0.000000 
0.000000 
0.000000 
SCALARS Ji float 
LOOKUP_TABLE default 
0.000000 
0.000000 
0.000000 
0.000000 
SCALARS ELEM_i float 
LOOKUP_TABLE default 
0 
0 
0 
0 
VECTORS VELOCITY float 
0.000000 0.000000 0.000000 
0.000000 0.000000 0.000000 
0.000000 0.000000 0.000000 
0.000000 0.000000 0.000000 
VECTORS DISPLACEMENT float 
0.000000 0.000000 0.000000 
0.000000 0.000000 0.000000 
0.000000 0.000000 0.000000 
0.000000 0.000000 0.000000 
TENSORS STRESS float 
0.000000 0.000000 0.000000 
0.000000 0.000000 0.000000 
0.000000 0.000000 0.000000 

0.000000 0.000000 0.000000 
0.000000 0.000000 0.000000 
0.000000 0.000000 0.000000 

0.000000 0.000000 0.000000 
0.000000 0.000000 0.000000 
0.000000 0.000000 0.000000 

0.000000 0.000000 0.000000 
0.000000 0.000000 0.000000 
0.000000 0.000000 0.000000 

TENSORS STRAIN float 
0.000000 0.000000 0.000000 
0.000000 0.000000 0.000000 
0.000000 0.000000 0.000000 

0.000000 0.000000 0.000000 
0.000000 0.000000 0.000000 
0.000000 0.000000 0.000000 

0.000000 0.000000 0.000000 
0.000000 0.000000 0.000000 
0.000000 0.000000 0.000000 

0.000000 0.000000 0.000000 
0.000000 0.000000 0.000000 
0.000000 0.000000 0.000000 

