# vtk DataFile Version 3.0 
vtk output 
ASCII 
DATASET UNSTRUCTURED_GRID 
POINTS 175 float 
-0.026089 0.023574 0.000000 
-0.108043 0.083507 0.000000 
-0.054919 0.070825 0.000000 
-0.028817 0.130287 0.000000 
-0.186737 0.156400 0.000000 
-0.137359 0.153892 0.000000 
-0.114552 0.207590 0.000000 
-0.058199 0.192264 0.000000 
-0.029373 0.220814 0.000000 
-0.265901 0.219098 0.000000 
-0.217435 0.218945 0.000000 
-0.195543 0.277643 0.000000 
-0.142079 0.268988 0.000000 
-0.115513 0.316291 0.000000 
-0.058913 0.297097 0.000000 
-0.029551 0.335213 0.000000 
-0.342151 0.283289 0.000000 
-0.294757 0.283332 0.000000 
-0.275899 0.343333 0.000000 
-0.224850 0.338671 0.000000 
-0.200316 0.386274 0.000000 
-0.144442 0.367606 0.000000 
-0.116858 0.425004 0.000000 
-0.059288 0.399485 0.000000 
-0.029742 0.439794 0.000000 
-0.058620 -0.017145 0.000000 
-0.163729 -0.039028 0.000000 
-0.124686 -0.002794 0.000000 
-0.144309 0.046215 0.000000 
-0.265011 -0.072564 0.000000 
-0.231763 -0.037798 0.000000 
-0.259146 0.027011 0.000000 
-0.211046 0.061870 0.000000 
-0.223445 0.110537 0.000000 
-0.362697 -0.084673 0.000000 
-0.332696 -0.051087 0.000000 
-0.364101 0.005338 0.000000 
-0.323903 0.041759 0.000000 
-0.343887 0.084641 0.000000 
-0.291459 0.126031 0.000000 
-0.302870 0.172775 0.000000 
-0.461331 -0.107484 0.000000 
-0.433023 -0.083884 0.000000 
-0.467424 -0.016959 0.000000 
-0.430387 0.020090 0.000000 
-0.455974 0.071717 0.000000 
-0.410254 0.107261 0.000000 
-0.427194 0.157946 0.000000 
-0.371445 0.189511 0.000000 
-0.380348 0.226567 0.000000 
-0.047040 -0.082409 0.000000 
-0.096857 -0.163593 0.000000 
-0.100436 -0.110925 0.000000 
-0.151008 -0.095771 0.000000 
-0.141317 -0.256644 0.000000 
-0.150574 -0.216869 0.000000 
-0.207891 -0.201980 0.000000 
-0.204834 -0.138219 0.000000 
-0.251031 -0.119597 0.000000 
-0.185345 -0.354389 0.000000 
-0.195270 -0.300508 0.000000 
-0.255916 -0.292637 0.000000 
-0.259370 -0.238555 0.000000 
-0.311364 -0.223145 0.000000 
-0.305803 -0.162546 0.000000 
-0.349517 -0.142404 0.000000 
-0.228318 -0.453263 0.000000 
-0.238754 -0.390858 0.000000 
-0.301340 -0.386050 0.000000 
-0.308568 -0.335239 0.000000 
-0.364783 -0.322592 0.000000 
-0.364131 -0.265145 0.000000 
-0.413119 -0.248618 0.000000 
-0.405346 -0.186297 0.000000 
-0.448053 -0.165551 0.000000 
-0.000000 -0.091953 0.000000 
0.043450 -0.190184 0.000000 
-0.000000 -0.158426 0.000000 
-0.043450 -0.190184 0.000000 
0.088343 -0.282033 0.000000 
0.043818 -0.259056 0.000000 
-0.000000 -0.297585 0.000000 
-0.043818 -0.259056 0.000000 
-0.088343 -0.282033 0.000000 
0.131299 -0.374356 0.000000 
0.088999 -0.360263 0.000000 
0.044460 -0.397139 0.000000 
-0.000000 -0.378720 0.000000 
-0.044460 -0.397139 0.000000 
-0.088999 -0.360263 0.000000 
-0.131299 -0.374356 0.000000 
0.174920 -0.465495 0.000000 
0.132209 -0.445026 0.000000 
0.089088 -0.496647 0.000000 
0.044555 -0.464663 0.000000 
-0.000000 -0.513614 0.000000 
-0.044555 -0.464663 0.000000 
-0.089088 -0.496647 0.000000 
-0.132209 -0.445026 0.000000 
-0.174920 -0.465495 0.000000 
0.047040 -0.082409 0.000000 
0.151008 -0.095771 0.000000 
0.100436 -0.110925 0.000000 
0.096857 -0.163593 0.000000 
0.251031 -0.119597 0.000000 
0.204834 -0.138219 0.000000 
0.207891 -0.201980 0.000000 
0.150574 -0.216869 0.000000 
0.141317 -0.256644 0.000000 
0.349517 -0.142404 0.000000 
0.305803 -0.162546 0.000000 
0.311364 -0.223145 0.000000 
0.259370 -0.238555 0.000000 
0.255916 -0.292637 0.000000 
0.195270 -0.300508 0.000000 
0.185345 -0.354389 0.000000 
0.448053 -0.165551 0.000000 
0.405346 -0.186297 0.000000 
0.413119 -0.248618 0.000000 
0.364131 -0.265145 0.000000 
0.364783 -0.322592 0.000000 
0.308568 -0.335239 0.000000 
0.301340 -0.386050 0.000000 
0.238754 -0.390858 0.000000 
0.228318 -0.453263 0.000000 
0.058620 -0.017145 0.000000 
0.144309 0.046215 0.000000 
0.124686 -0.002794 0.000000 
0.163729 -0.039028 0.000000 
0.223445 0.110537 0.000000 
0.211046 0.061870 0.000000 
0.259146 0.027011 0.000000 
0.231763 -0.037798 0.000000 
0.265011 -0.072564 0.000000 
0.302870 0.172775 0.000000 
0.291459 0.126031 0.000000 
0.343887 0.084641 0.000000 
0.323903 0.041759 0.000000 
0.364101 0.005338 0.000000 
0.332696 -0.051087 0.000000 
0.362697 -0.084673 0.000000 
0.380348 0.226567 0.000000 
0.371445 0.189511 0.000000 
0.427194 0.157946 0.000000 
0.410254 0.107261 0.000000 
0.455974 0.071717 0.000000 
0.430387 0.020090 0.000000 
0.467424 -0.016959 0.000000 
0.433023 -0.083884 0.000000 
0.461331 -0.107484 0.000000 
0.026089 0.023574 0.000000 
0.028817 0.130287 0.000000 
0.054919 0.070825 0.000000 
0.108043 0.083507 0.000000 
0.029373 0.220814 0.000000 
0.058199 0.192264 0.000000 
0.114552 0.207590 0.000000 
0.137359 0.153892 0.000000 
0.186737 0.156400 0.000000 
0.029551 0.335213 0.000000 
0.058913 0.297097 0.000000 
0.115513 0.316291 0.000000 
0.142079 0.268988 0.000000 
0.195543 0.277643 0.000000 
0.217435 0.218945 0.000000 
0.265901 0.219098 0.000000 
0.029742 0.439794 0.000000 
0.059288 0.399485 0.000000 
0.116858 0.425004 0.000000 
0.144442 0.367607 0.000000 
0.200316 0.386274 0.000000 
0.224850 0.338671 0.000000 
0.275899 0.343333 0.000000 
0.294757 0.283332 0.000000 
0.342151 0.283289 0.000000 
CELLS 175 350 
1 0 
1 1 
1 2 
1 3 
1 4 
1 5 
1 6 
1 7 
1 8 
1 9 
1 10 
1 11 
1 12 
1 13 
1 14 
1 15 
1 16 
1 17 
1 18 
1 19 
1 20 
1 21 
1 22 
1 23 
1 24 
1 25 
1 26 
1 27 
1 28 
1 29 
1 30 
1 31 
1 32 
1 33 
1 34 
1 35 
1 36 
1 37 
1 38 
1 39 
1 40 
1 41 
1 42 
1 43 
1 44 
1 45 
1 46 
1 47 
1 48 
1 49 
1 50 
1 51 
1 52 
1 53 
1 54 
1 55 
1 56 
1 57 
1 58 
1 59 
1 60 
1 61 
1 62 
1 63 
1 64 
1 65 
1 66 
1 67 
1 68 
1 69 
1 70 
1 71 
1 72 
1 73 
1 74 
1 75 
1 76 
1 77 
1 78 
1 79 
1 80 
1 81 
1 82 
1 83 
1 84 
1 85 
1 86 
1 87 
1 88 
1 89 
1 90 
1 91 
1 92 
1 93 
1 94 
1 95 
1 96 
1 97 
1 98 
1 99 
1 100 
1 101 
1 102 
1 103 
1 104 
1 105 
1 106 
1 107 
1 108 
1 109 
1 110 
1 111 
1 112 
1 113 
1 114 
1 115 
1 116 
1 117 
1 118 
1 119 
1 120 
1 121 
1 122 
1 123 
1 124 
1 125 
1 126 
1 127 
1 128 
1 129 
1 130 
1 131 
1 132 
1 133 
1 134 
1 135 
1 136 
1 137 
1 138 
1 139 
1 140 
1 141 
1 142 
1 143 
1 144 
1 145 
1 146 
1 147 
1 148 
1 149 
1 150 
1 151 
1 152 
1 153 
1 154 
1 155 
1 156 
1 157 
1 158 
1 159 
1 160 
1 161 
1 162 
1 163 
1 164 
1 165 
1 166 
1 167 
1 168 
1 169 
1 170 
1 171 
1 172 
1 173 
1 174 
CELL_TYPES 175 
1 
1 
1 
1 
1 
1 
1 
1 
1 
1 
1 
1 
1 
1 
1 
1 
1 
1 
1 
1 
1 
1 
1 
1 
1 
1 
1 
1 
1 
1 
1 
1 
1 
1 
1 
1 
1 
1 
1 
1 
1 
1 
1 
1 
1 
1 
1 
1 
1 
1 
1 
1 
1 
1 
1 
1 
1 
1 
1 
1 
1 
1 
1 
1 
1 
1 
1 
1 
1 
1 
1 
1 
1 
1 
1 
1 
1 
1 
1 
1 
1 
1 
1 
1 
1 
1 
1 
1 
1 
1 
1 
1 
1 
1 
1 
1 
1 
1 
1 
1 
1 
1 
1 
1 
1 
1 
1 
1 
1 
1 
1 
1 
1 
1 
1 
1 
1 
1 
1 
1 
1 
1 
1 
1 
1 
1 
1 
1 
1 
1 
1 
1 
1 
1 
1 
1 
1 
1 
1 
1 
1 
1 
1 
1 
1 
1 
1 
1 
1 
1 
1 
1 
1 
1 
1 
1 
1 
1 
1 
1 
1 
1 
1 
1 
1 
1 
1 
1 
1 
1 
1 
1 
1 
1 
1 
POINT_DATA 175 
VECTORS X_GC float 
-0.026089 0.023574 0.000000 
-0.108043 0.083507 0.000000 
-0.054919 0.070825 0.000000 
-0.028817 0.130287 0.000000 
-0.186737 0.156400 0.000000 
-0.137359 0.153892 0.000000 
-0.114552 0.207590 0.000000 
-0.058199 0.192264 0.000000 
-0.029373 0.220814 0.000000 
-0.265901 0.219098 0.000000 
-0.217435 0.218945 0.000000 
-0.195543 0.277643 0.000000 
-0.142079 0.268988 0.000000 
-0.115513 0.316291 0.000000 
-0.058913 0.297097 0.000000 
-0.029551 0.335213 0.000000 
-0.342151 0.283289 0.000000 
-0.294757 0.283332 0.000000 
-0.275899 0.343333 0.000000 
-0.224850 0.338671 0.000000 
-0.200316 0.386274 0.000000 
-0.144442 0.367606 0.000000 
-0.116858 0.425004 0.000000 
-0.059288 0.399485 0.000000 
-0.029742 0.439794 0.000000 
-0.058620 -0.017145 0.000000 
-0.163729 -0.039028 0.000000 
-0.124686 -0.002794 0.000000 
-0.144309 0.046215 0.000000 
-0.265011 -0.072564 0.000000 
-0.231763 -0.037798 0.000000 
-0.259146 0.027011 0.000000 
-0.211046 0.061870 0.000000 
-0.223445 0.110537 0.000000 
-0.362697 -0.084673 0.000000 
-0.332696 -0.051087 0.000000 
-0.364101 0.005338 0.000000 
-0.323903 0.041759 0.000000 
-0.343887 0.084641 0.000000 
-0.291459 0.126031 0.000000 
-0.302870 0.172775 0.000000 
-0.461331 -0.107484 0.000000 
-0.433023 -0.083884 0.000000 
-0.467424 -0.016959 0.000000 
-0.430387 0.020090 0.000000 
-0.455974 0.071717 0.000000 
-0.410254 0.107261 0.000000 
-0.427194 0.157946 0.000000 
-0.371445 0.189511 0.000000 
-0.380348 0.226567 0.000000 
-0.047040 -0.082409 0.000000 
-0.096857 -0.163593 0.000000 
-0.100436 -0.110925 0.000000 
-0.151008 -0.095771 0.000000 
-0.141317 -0.256644 0.000000 
-0.150574 -0.216869 0.000000 
-0.207891 -0.201980 0.000000 
-0.204834 -0.138219 0.000000 
-0.251031 -0.119597 0.000000 
-0.185345 -0.354389 0.000000 
-0.195270 -0.300508 0.000000 
-0.255916 -0.292637 0.000000 
-0.259370 -0.238555 0.000000 
-0.311364 -0.223145 0.000000 
-0.305803 -0.162546 0.000000 
-0.349517 -0.142404 0.000000 
-0.228318 -0.453263 0.000000 
-0.238754 -0.390858 0.000000 
-0.301340 -0.386050 0.000000 
-0.308568 -0.335239 0.000000 
-0.364783 -0.322592 0.000000 
-0.364131 -0.265145 0.000000 
-0.413119 -0.248618 0.000000 
-0.405346 -0.186297 0.000000 
-0.448053 -0.165551 0.000000 
-0.000000 -0.091953 0.000000 
0.043450 -0.190184 0.000000 
-0.000000 -0.158426 0.000000 
-0.043450 -0.190184 0.000000 
0.088343 -0.282033 0.000000 
0.043818 -0.259056 0.000000 
-0.000000 -0.297585 0.000000 
-0.043818 -0.259056 0.000000 
-0.088343 -0.282033 0.000000 
0.131299 -0.374356 0.000000 
0.088999 -0.360263 0.000000 
0.044460 -0.397139 0.000000 
-0.000000 -0.378720 0.000000 
-0.044460 -0.397139 0.000000 
-0.088999 -0.360263 0.000000 
-0.131299 -0.374356 0.000000 
0.174920 -0.465495 0.000000 
0.132209 -0.445026 0.000000 
0.089088 -0.496647 0.000000 
0.044555 -0.464663 0.000000 
-0.000000 -0.513614 0.000000 
-0.044555 -0.464663 0.000000 
-0.089088 -0.496647 0.000000 
-0.132209 -0.445026 0.000000 
-0.174920 -0.465495 0.000000 
0.047040 -0.082409 0.000000 
0.151008 -0.095771 0.000000 
0.100436 -0.110925 0.000000 
0.096857 -0.163593 0.000000 
0.251031 -0.119597 0.000000 
0.204834 -0.138219 0.000000 
0.207891 -0.201980 0.000000 
0.150574 -0.216869 0.000000 
0.141317 -0.256644 0.000000 
0.349517 -0.142404 0.000000 
0.305803 -0.162546 0.000000 
0.311364 -0.223145 0.000000 
0.259370 -0.238555 0.000000 
0.255916 -0.292637 0.000000 
0.195270 -0.300508 0.000000 
0.185345 -0.354389 0.000000 
0.448053 -0.165551 0.000000 
0.405346 -0.186297 0.000000 
0.413119 -0.248618 0.000000 
0.364131 -0.265145 0.000000 
0.364783 -0.322592 0.000000 
0.308568 -0.335239 0.000000 
0.301340 -0.386050 0.000000 
0.238754 -0.390858 0.000000 
0.228318 -0.453263 0.000000 
0.058620 -0.017145 0.000000 
0.144309 0.046215 0.000000 
0.124686 -0.002794 0.000000 
0.163729 -0.039028 0.000000 
0.223445 0.110537 0.000000 
0.211046 0.061870 0.000000 
0.259146 0.027011 0.000000 
0.231763 -0.037798 0.000000 
0.265011 -0.072564 0.000000 
0.302870 0.172775 0.000000 
0.291459 0.126031 0.000000 
0.343887 0.084641 0.000000 
0.323903 0.041759 0.000000 
0.364101 0.005338 0.000000 
0.332696 -0.051087 0.000000 
0.362697 -0.084673 0.000000 
0.380348 0.226567 0.000000 
0.371445 0.189511 0.000000 
0.427194 0.157946 0.000000 
0.410254 0.107261 0.000000 
0.455974 0.071717 0.000000 
0.430387 0.020090 0.000000 
0.467424 -0.016959 0.000000 
0.433023 -0.083884 0.000000 
0.461331 -0.107484 0.000000 
0.026089 0.023574 0.000000 
0.028817 0.130287 0.000000 
0.054919 0.070825 0.000000 
0.108043 0.083507 0.000000 
0.029373 0.220814 0.000000 
0.058199 0.192264 0.000000 
0.114552 0.207590 0.000000 
0.137359 0.153892 0.000000 
0.186737 0.156400 0.000000 
0.029551 0.335213 0.000000 
0.058913 0.297097 0.000000 
0.115513 0.316291 0.000000 
0.142079 0.268988 0.000000 
0.195543 0.277643 0.000000 
0.217435 0.218945 0.000000 
0.265901 0.219098 0.000000 
0.029742 0.439794 0.000000 
0.059288 0.399485 0.000000 
0.116858 0.425004 0.000000 
0.144442 0.367607 0.000000 
0.200316 0.386274 0.000000 
0.224850 0.338671 0.000000 
0.275899 0.343333 0.000000 
0.294757 0.283332 0.000000 
0.342151 0.283289 0.000000 
VECTORS X_EC float 
0.339155 0.181748 0.000000 
-0.595447 -0.627351 0.000000 
0.713944 -0.456134 0.000000 
0.374622 0.741122 0.000000 
0.427577 0.388597 0.000000 
-0.214334 0.422460 0.000000 
-0.510823 -0.302468 0.000000 
0.756588 -0.095568 0.000000 
0.381845 -0.480992 0.000000 
-0.543282 -0.457828 0.000000 
0.826661 -0.455763 0.000000 
0.542057 0.751819 0.000000 
-0.152969 0.868660 0.000000 
-0.498328 0.230071 0.000000 
0.765870 0.489190 0.000000 
0.384167 -0.025376 0.000000 
0.447959 0.675601 0.000000 
-0.168156 0.675023 0.000000 
-0.413309 -0.134994 0.000000 
0.923046 -0.072054 0.000000 
0.604108 -0.714702 0.000000 
-0.122259 -0.462688 0.000000 
-0.480846 0.762449 0.000000 
0.770750 -0.893046 0.000000 
0.386640 0.562778 0.000000 
0.762064 0.731463 0.000000 
0.128472 -0.973126 0.000000 
-0.379088 0.537719 0.000000 
-0.123987 -0.123898 0.000000 
-0.554855 -0.520383 0.000000 
-0.987075 -0.989723 0.000000 
-0.631106 0.135355 0.000000 
0.743596 -0.335244 0.000000 
0.904785 -0.992250 0.000000 
0.715063 -0.356921 0.000000 
0.325051 -0.810321 0.000000 
0.733314 0.427942 0.000000 
0.210734 -0.063751 0.000000 
0.470535 -0.642651 0.000000 
-0.211034 0.798588 0.000000 
-0.062693 0.167540 0.000000 
-0.002695 -0.048970 0.000000 
-0.370705 -0.367570 0.000000 
0.076510 0.728944 0.000000 
-0.404972 0.228789 0.000000 
-0.072340 -0.468182 0.000000 
-0.666704 -0.948024 0.000000 
-0.446474 0.367732 0.000000 
0.828791 -0.058403 0.000000 
0.944529 -0.558656 0.000000 
0.611518 -0.387478 0.000000 
-0.740858 0.708503 0.000000 
-0.694328 -0.002516 0.000000 
-0.036896 -0.207085 0.000000 
-0.162875 -0.035302 0.000000 
-0.042535 -0.572268 0.000000 
0.702587 -0.773266 0.000000 
0.662846 0.365954 0.000000 
-0.736594 0.114561 0.000000 
0.409483 -0.715751 0.000000 
0.538512 0.556855 0.000000 
-0.673095 0.450600 0.000000 
-0.628193 -0.279513 0.000000 
0.047728 -0.487543 0.000000 
-0.024564 0.694367 0.000000 
0.543725 0.422453 0.000000 
0.968137 0.619057 0.000000 
-0.896201 -0.223422 0.000000 
-0.082584 -0.288323 0.000000 
0.011383 -0.974274 0.000000 
0.742173 0.854998 0.000000 
0.733703 0.079463 0.000000 
-0.629447 -0.143653 0.000000 
-0.730502 -0.984987 0.000000 
-0.175316 0.734934 0.000000 
0.000000 -0.258638 0.000000 
-0.564849 -0.932516 0.000000 
0.000000 0.638751 0.000000 
0.564849 -0.932516 0.000000 
0.851542 0.307440 0.000000 
-0.569640 -0.002747 0.000000 
0.000000 0.517403 0.000000 
0.569640 -0.002747 0.000000 
-0.851542 0.307440 0.000000 
0.293111 -0.446190 0.000000 
0.843010 -0.636453 0.000000 
-0.577977 -0.138622 0.000000 
0.000000 -0.387286 0.000000 
0.577977 -0.138622 0.000000 
-0.843010 -0.636453 0.000000 
-0.293111 -0.446190 0.000000 
-0.273964 0.784179 0.000000 
0.281278 0.507852 0.000000 
0.841854 -0.795266 0.000000 
-0.579209 0.772957 0.000000 
0.000000 -0.566215 0.000000 
0.579209 0.772957 0.000000 
-0.841854 -0.795266 0.000000 
-0.281278 0.507852 0.000000 
0.273964 0.784179 0.000000 
-0.611518 -0.387478 0.000000 
0.036896 -0.207085 0.000000 
0.694328 -0.002516 0.000000 
0.740858 0.708503 0.000000 
0.736594 0.114561 0.000000 
-0.662846 0.365954 0.000000 
-0.702587 -0.773266 0.000000 
0.042535 -0.572268 0.000000 
0.162875 -0.035302 0.000000 
-0.543725 0.422453 0.000000 
0.024564 0.694367 0.000000 
-0.047728 -0.487543 0.000000 
0.628193 -0.279513 0.000000 
0.673095 0.450600 0.000000 
-0.538512 0.556855 0.000000 
-0.409483 -0.715751 0.000000 
0.175316 0.734934 0.000000 
0.730502 -0.984987 0.000000 
0.629447 -0.143653 0.000000 
-0.733703 0.079463 0.000000 
-0.742173 0.854998 0.000000 
-0.011383 -0.974274 0.000000 
0.082584 -0.288323 0.000000 
0.896201 -0.223422 0.000000 
-0.968137 0.619057 0.000000 
-0.762064 0.731463 0.000000 
0.123987 -0.123898 0.000000 
0.379088 0.537719 0.000000 
-0.128472 -0.973126 0.000000 
-0.904785 -0.992250 0.000000 
-0.743596 -0.335244 0.000000 
0.631106 0.135355 0.000000 
0.987075 -0.989723 0.000000 
0.554855 -0.520383 0.000000 
0.062693 0.167540 0.000000 
0.211034 0.798588 0.000000 
-0.470535 -0.642651 0.000000 
-0.210734 -0.063751 0.000000 
-0.733314 0.427942 0.000000 
-0.325051 -0.810321 0.000000 
-0.715063 -0.356921 0.000000 
-0.944529 -0.558656 0.000000 
-0.828791 -0.058403 0.000000 
0.446474 0.367732 0.000000 
0.666704 -0.948024 0.000000 
0.072340 -0.468182 0.000000 
0.404972 0.228789 0.000000 
-0.076510 0.728944 0.000000 
0.370705 -0.367570 0.000000 
0.002695 -0.048970 0.000000 
-0.339155 0.181748 0.000000 
-0.374622 0.741122 0.000000 
-0.713944 -0.456134 0.000000 
0.595447 -0.627351 0.000000 
-0.381845 -0.480992 0.000000 
-0.756588 -0.095568 0.000000 
0.510823 -0.302468 0.000000 
0.214334 0.422460 0.000000 
-0.427577 0.388597 0.000000 
-0.384167 -0.025376 0.000000 
-0.765870 0.489190 0.000000 
0.498328 0.230071 0.000000 
0.152969 0.868660 0.000000 
-0.542057 0.751819 0.000000 
-0.826661 -0.455763 0.000000 
0.543282 -0.457828 0.000000 
-0.386640 0.562778 0.000000 
-0.770750 -0.893046 0.000000 
0.480846 0.762449 0.000000 
0.122259 -0.462688 0.000000 
-0.604108 -0.714702 0.000000 
-0.923046 -0.072054 0.000000 
0.413309 -0.134994 0.000000 
0.168156 0.675023 0.000000 
-0.447959 0.675601 0.000000 
CELL_DATA 175 
SCALARS MASS float 
LOOKUP_TABLE default 
0.078183 
0.086427 
0.094672 
0.086427 
0.088131 
0.092111 
0.085854 
0.092111 
0.088131 
0.088705 
0.091000 
0.086983 
0.091556 
0.086983 
0.091000 
0.088705 
0.089278 
0.091574 
0.089278 
0.092722 
0.089278 
0.092722 
0.089278 
0.091574 
0.089278 
0.078183 
0.086427 
0.094672 
0.086427 
0.088131 
0.092111 
0.085854 
0.092111 
0.088131 
0.088705 
0.091000 
0.086983 
0.091556 
0.086983 
0.091000 
0.088705 
0.089278 
0.091574 
0.089278 
0.092722 
0.089278 
0.092722 
0.089278 
0.091574 
0.089278 
0.078183 
0.086427 
0.094672 
0.086427 
0.088131 
0.092111 
0.085854 
0.092111 
0.088131 
0.088705 
0.091000 
0.086983 
0.091556 
0.086983 
0.091000 
0.088705 
0.089278 
0.091574 
0.089278 
0.092722 
0.089278 
0.092722 
0.089278 
0.091574 
0.089278 
0.078183 
0.086427 
0.094672 
0.086427 
0.088131 
0.092111 
0.085854 
0.092111 
0.088131 
0.088705 
0.091000 
0.086983 
0.091556 
0.086983 
0.091000 
0.088705 
0.089278 
0.091574 
0.089278 
0.092722 
0.089278 
0.092722 
0.089278 
0.091574 
0.089278 
0.078183 
0.086427 
0.094672 
0.086427 
0.088131 
0.092111 
0.085854 
0.092111 
0.088131 
0.088705 
0.091000 
0.086983 
0.091556 
0.086983 
0.091000 
0.088705 
0.089278 
0.091574 
0.089278 
0.092722 
0.089278 
0.092722 
0.089278 
0.091574 
0.089278 
0.078183 
0.086427 
0.094672 
0.086427 
0.088131 
0.092111 
0.085854 
0.092111 
0.088131 
0.088705 
0.091000 
0.086983 
0.091556 
0.086983 
0.091000 
0.088705 
0.089278 
0.091574 
0.089278 
0.092722 
0.089278 
0.092722 
0.089278 
0.091574 
0.089278 
0.078183 
0.086427 
0.094672 
0.086427 
0.088131 
0.092111 
0.085854 
0.092111 
0.088131 
0.088705 
0.091000 
0.086983 
0.091556 
0.086983 
0.091000 
0.088705 
0.089278 
0.091574 
0.089278 
0.092722 
0.089278 
0.092722 
0.089278 
0.091574 
0.089278 
SCALARS MASS float 
LOOKUP_TABLE default 
0.078183 
0.086427 
0.094672 
0.086427 
0.088131 
0.092111 
0.085854 
0.092111 
0.088131 
0.088705 
0.091000 
0.086983 
0.091556 
0.086983 
0.091000 
0.088705 
0.089278 
0.091574 
0.089278 
0.092722 
0.089278 
0.092722 
0.089278 
0.091574 
0.089278 
0.078183 
0.086427 
0.094672 
0.086427 
0.088131 
0.092111 
0.085854 
0.092111 
0.088131 
0.088705 
0.091000 
0.086983 
0.091556 
0.086983 
0.091000 
0.088705 
0.089278 
0.091574 
0.089278 
0.092722 
0.089278 
0.092722 
0.089278 
0.091574 
0.089278 
0.078183 
0.086427 
0.094672 
0.086427 
0.088131 
0.092111 
0.085854 
0.092111 
0.088131 
0.088705 
0.091000 
0.086983 
0.091556 
0.086983 
0.091000 
0.088705 
0.089278 
0.091574 
0.089278 
0.092722 
0.089278 
0.092722 
0.089278 
0.091574 
0.089278 
0.078183 
0.086427 
0.094672 
0.086427 
0.088131 
0.092111 
0.085854 
0.092111 
0.088131 
0.088705 
0.091000 
0.086983 
0.091556 
0.086983 
0.091000 
0.088705 
0.089278 
0.091574 
0.089278 
0.092722 
0.089278 
0.092722 
0.089278 
0.091574 
0.089278 
0.078183 
0.086427 
0.094672 
0.086427 
0.088131 
0.092111 
0.085854 
0.092111 
0.088131 
0.088705 
0.091000 
0.086983 
0.091556 
0.086983 
0.091000 
0.088705 
0.089278 
0.091574 
0.089278 
0.092722 
0.089278 
0.092722 
0.089278 
0.091574 
0.089278 
0.078183 
0.086427 
0.094672 
0.086427 
0.088131 
0.092111 
0.085854 
0.092111 
0.088131 
0.088705 
0.091000 
0.086983 
0.091556 
0.086983 
0.091000 
0.088705 
0.089278 
0.091574 
0.089278 
0.092722 
0.089278 
0.092722 
0.089278 
0.091574 
0.089278 
0.078183 
0.086427 
0.094672 
0.086427 
0.088131 
0.092111 
0.085854 
0.092111 
0.088131 
0.088705 
0.091000 
0.086983 
0.091556 
0.086983 
0.091000 
0.088705 
0.089278 
0.091574 
0.089278 
0.092722 
0.089278 
0.092722 
0.089278 
0.091574 
0.089278 
SCALARS DENSITY float 
LOOKUP_TABLE default 
19.965996 
20.184727 
20.164437 
20.019178 
19.982858 
19.982888 
19.960225 
19.983142 
20.155821 
19.871334 
19.884485 
20.032882 
20.105065 
19.988353 
19.976213 
19.978947 
20.011477 
20.012223 
19.994479 
19.970551 
20.112193 
20.138579 
20.008235 
20.128272 
19.951485 
19.997644 
20.183228 
19.970986 
19.971061 
20.218591 
20.180715 
19.970486 
19.934890 
20.203555 
19.929140 
20.184952 
19.986233 
19.974617 
20.184579 
20.046298 
19.977126 
19.984181 
20.228640 
20.010367 
19.974365 
19.846879 
20.159075 
19.948784 
19.984635 
20.185198 
20.195479 
19.988595 
19.963646 
19.960642 
19.974203 
20.198970 
20.185319 
19.974826 
19.973900 
20.202507 
19.975670 
20.006081 
19.973199 
19.858145 
20.010031 
19.985817 
20.017287 
20.004864 
19.992117 
20.229762 
20.116544 
20.018794 
20.010470 
20.196253 
20.022351 
19.936893 
20.158743 
19.962463 
20.158743 
19.965849 
19.945014 
19.945000 
19.945014 
19.965849 
19.847133 
20.202291 
19.961198 
20.223482 
19.961198 
20.202291 
19.847133 
20.047561 
19.986951 
20.170784 
20.026051 
20.155276 
20.026051 
20.170784 
19.986951 
20.047561 
20.195479 
19.960642 
19.963646 
19.988595 
19.973900 
19.974826 
20.185319 
20.198970 
19.974203 
19.985817 
20.010031 
19.858145 
19.973199 
20.006081 
19.975670 
20.202507 
20.022351 
20.196253 
20.010470 
20.018794 
20.116544 
20.229762 
19.992117 
20.004864 
20.017287 
19.997644 
19.971061 
19.970986 
20.183228 
20.203555 
19.934890 
19.970486 
20.180715 
20.218591 
19.977126 
20.046298 
20.184579 
19.974617 
19.986233 
20.184952 
19.929140 
20.185198 
19.984635 
19.948784 
20.159075 
19.846879 
19.974365 
20.010367 
20.228640 
19.984181 
19.965996 
20.019178 
20.164437 
20.184727 
20.155821 
19.983142 
19.960225 
19.982888 
19.982858 
19.978947 
19.976213 
19.988353 
20.105065 
20.032882 
19.884485 
19.871334 
19.951485 
20.128272 
20.008235 
20.138579 
20.112193 
19.970551 
19.994479 
20.012223 
20.011477 
SCALARS ELEM_i float 
LOOKUP_TABLE default 
182 
209 
182 
183 
210 
210 
210 
183 
183 
237 
210 
211 
211 
211 
184 
184 
238 
238 
238 
211 
211 
211 
212 
184 
185 
182 
208 
209 
209 
235 
235 
236 
209 
209 
235 
235 
236 
236 
236 
237 
237 
262 
262 
263 
263 
263 
263 
264 
237 
237 
181 
208 
208 
208 
207 
207 
207 
208 
235 
206 
207 
234 
234 
234 
235 
235 
206 
233 
233 
233 
234 
234 
261 
261 
262 
181 
180 
181 
180 
153 
180 
180 
180 
207 
152 
152 
179 
179 
179 
206 
206 
152 
152 
151 
179 
178 
179 
205 
206 
206 
181 
154 
154 
154 
127 
154 
153 
153 
153 
127 
127 
126 
126 
126 
153 
152 
100 
99 
99 
126 
126 
125 
125 
125 
152 
182 
155 
155 
154 
155 
155 
128 
127 
127 
129 
129 
128 
128 
128 
127 
127 
129 
129 
102 
101 
101 
101 
101 
100 
100 
182 
183 
182 
155 
183 
183 
156 
156 
156 
184 
184 
157 
157 
157 
156 
129 
185 
184 
158 
157 
157 
157 
130 
130 
130 
VECTORS VELOCITY float 
-0.002847 -0.438544 0.000000 
-0.067302 -0.456278 0.000000 
-0.005744 -0.424898 0.000000 
-0.001959 -0.400578 0.000000 
-0.035364 -0.449656 0.000000 
-0.036568 -0.446316 0.000000 
-0.031527 -0.455085 0.000000 
-0.003517 -0.406648 0.000000 
0.000008 -0.369392 0.000000 
-0.031156 -0.515552 0.000000 
-0.028123 -0.463629 0.000000 
0.107262 -0.501309 0.000000 
0.102957 -0.498967 0.000000 
0.105021 -0.490495 0.000000 
0.004011 -0.445036 0.000000 
0.002169 -0.442994 0.000000 
0.265281 -0.453089 0.000000 
0.258910 -0.458723 0.000000 
0.265757 -0.448141 0.000000 
0.112869 -0.493684 0.000000 
0.020262 -0.034165 0.000000 
0.032065 -0.089045 0.000000 
0.008003 -0.009531 0.000000 
0.007304 -0.014476 0.000000 
0.004023 -0.028198 0.000000 
-0.006168 -0.444383 0.000000 
-0.090674 -0.480978 0.000000 
-0.091968 -0.474847 0.000000 
-0.093539 -0.465177 0.000000 
-0.169530 -0.636052 0.000000 
-0.210359 -0.527892 0.000000 
-0.181135 -0.540147 0.000000 
-0.094513 -0.464245 0.000000 
-0.040017 -0.444777 0.000000 
-0.069190 -0.733935 0.000000 
-0.175583 -0.593398 0.000000 
-0.191175 -0.549323 0.000000 
-0.189082 -0.541103 0.000000 
-0.111572 -0.527365 0.000000 
-0.053524 -0.503885 0.000000 
-0.043068 -0.510035 0.000000 
-0.177713 -0.681940 0.000000 
-0.244556 -0.739412 0.000000 
-0.186897 -0.466900 0.000000 
-0.189582 -0.480087 0.000000 
-0.184722 -0.486972 0.000000 
-0.197795 -0.337919 0.000000 
-0.190021 -0.340398 0.000000 
-0.040846 -0.513101 0.000000 
0.149875 -0.390014 0.000000 
-0.005990 -0.529977 0.000000 
-0.070375 -0.591584 0.000000 
-0.070518 -0.594061 0.000000 
-0.071849 -0.594333 0.000000 
-0.099332 -0.624885 0.000000 
-0.119784 -0.629104 0.000000 
-0.105045 -0.595742 0.000000 
-0.073224 -0.590892 0.000000 
-0.068820 -0.715980 0.000000 
-0.099204 -0.746203 0.000000 
-0.107879 -0.622855 0.000000 
-0.121727 -0.693847 0.000000 
-0.112948 -0.698556 0.000000 
-0.104628 -0.711449 0.000000 
-0.063004 -0.729155 0.000000 
-0.063480 -0.736528 0.000000 
0.039915 -0.756766 0.000000 
0.017419 -0.559278 0.000000 
0.024771 -0.550620 0.000000 
-0.122160 -0.717880 0.000000 
-0.114135 -0.713970 0.000000 
-0.105350 -0.719848 0.000000 
-0.025829 -0.831467 0.000000 
-0.160470 -0.738169 0.000000 
-0.172183 -0.713221 0.000000 
0.000000 -0.603212 0.000000 
0.002911 -0.616294 0.000000 
0.000000 -0.608286 0.000000 
-0.002911 -0.616294 0.000000 
0.093453 -0.632510 0.000000 
0.000231 -0.715580 0.000000 
0.000000 -0.718157 0.000000 
-0.000231 -0.715580 0.000000 
-0.093453 -0.632510 0.000000 
0.040314 -0.806211 0.000000 
0.078251 -0.782694 0.000000 
-0.000698 -0.934935 0.000000 
-0.000000 -0.981879 0.000000 
0.000698 -0.934935 0.000000 
-0.078251 -0.782694 0.000000 
-0.040314 -0.806211 0.000000 
0.032192 -0.811776 0.000000 
0.032305 -0.816594 0.000000 
-0.109001 -1.175398 0.000000 
-0.000586 -0.949443 0.000000 
-0.000000 -1.927403 0.000000 
0.000586 -0.949443 0.000000 
0.109001 -1.175398 0.000000 
-0.032305 -0.816594 0.000000 
-0.032192 -0.811776 0.000000 
0.005990 -0.529977 0.000000 
0.071849 -0.594333 0.000000 
0.070518 -0.594061 0.000000 
0.070375 -0.591584 0.000000 
0.068820 -0.715980 0.000000 
0.073224 -0.590892 0.000000 
0.105045 -0.595742 0.000000 
0.119784 -0.629104 0.000000 
0.099332 -0.624885 0.000000 
0.063480 -0.736528 0.000000 
0.063004 -0.729155 0.000000 
0.104628 -0.711449 0.000000 
0.112948 -0.698556 0.000000 
0.121727 -0.693847 0.000000 
0.107879 -0.622855 0.000000 
0.099204 -0.746203 0.000000 
0.172183 -0.713221 0.000000 
0.160470 -0.738169 0.000000 
0.025829 -0.831467 0.000000 
0.105350 -0.719848 0.000000 
0.114135 -0.713970 0.000000 
0.122160 -0.717880 0.000000 
-0.024771 -0.550620 0.000000 
-0.017419 -0.559278 0.000000 
-0.039915 -0.756766 0.000000 
0.006168 -0.444383 0.000000 
0.093539 -0.465177 0.000000 
0.091968 -0.474847 0.000000 
0.090674 -0.480978 0.000000 
0.040017 -0.444777 0.000000 
0.094513 -0.464245 0.000000 
0.181135 -0.540147 0.000000 
0.210359 -0.527892 0.000000 
0.169530 -0.636052 0.000000 
0.043068 -0.510035 0.000000 
0.053524 -0.503885 0.000000 
0.111572 -0.527364 0.000000 
0.189082 -0.541103 0.000000 
0.191175 -0.549323 0.000000 
0.175583 -0.593398 0.000000 
0.069190 -0.733935 0.000000 
-0.149875 -0.390014 0.000000 
0.040846 -0.513101 0.000000 
0.190021 -0.340398 0.000000 
0.197795 -0.337919 0.000000 
0.184722 -0.486972 0.000000 
0.189582 -0.480087 0.000000 
0.186897 -0.466900 0.000000 
0.244556 -0.739412 0.000000 
0.177713 -0.681940 0.000000 
0.002847 -0.438544 0.000000 
0.001959 -0.400578 0.000000 
0.005744 -0.424898 0.000000 
0.067302 -0.456278 0.000000 
-0.000008 -0.369392 0.000000 
0.003517 -0.406648 0.000000 
0.031527 -0.455085 0.000000 
0.036568 -0.446316 0.000000 
0.035364 -0.449656 0.000000 
-0.002169 -0.442994 0.000000 
-0.004011 -0.445036 0.000000 
-0.105021 -0.490495 0.000000 
-0.102957 -0.498967 0.000000 
-0.107262 -0.501309 0.000000 
0.028123 -0.463629 0.000000 
0.031156 -0.515552 0.000000 
-0.004023 -0.028198 0.000000 
-0.007304 -0.014476 0.000000 
-0.008004 -0.009531 0.000000 
-0.032065 -0.089045 0.000000 
-0.020262 -0.034165 0.000000 
-0.112869 -0.493684 0.000000 
-0.265757 -0.448141 0.000000 
-0.258910 -0.458723 0.000000 
-0.265281 -0.453089 0.000000 
TENSORS STRESS float 
179.421887 0.000000 0.000000 
0.000000 147.824848 0.000000 
0.000000 0.000000 0.000000 

-487.325941 0.000000 0.000000 
0.000000 -1280.690106 0.000000 
0.000000 0.000000 0.000000 

-415.902205 0.000000 0.000000 
0.000000 -1158.714416 0.000000 
0.000000 0.000000 0.000000 

-34.479773 0.000000 0.000000 
0.000000 -149.837552 0.000000 
0.000000 0.000000 0.000000 

59.830344 0.000000 0.000000 
0.000000 105.065307 0.000000 
0.000000 0.000000 0.000000 

59.880648 0.000000 0.000000 
0.000000 104.728255 0.000000 
0.000000 0.000000 0.000000 

122.448879 0.000000 0.000000 
0.000000 260.391431 0.000000 
0.000000 0.000000 0.000000 

62.136791 0.000000 0.000000 
0.000000 100.027110 0.000000 
0.000000 0.000000 0.000000 

-458.650558 0.000000 0.000000 
0.000000 -1033.782914 0.000000 
0.000000 0.000000 0.000000 

401.852731 0.000000 0.000000 
0.000000 839.343444 0.000000 
0.000000 0.000000 0.000000 

332.206511 0.000000 0.000000 
0.000000 781.755368 0.000000 
0.000000 0.000000 0.000000 

-156.599510 0.000000 0.000000 
0.000000 -159.312908 0.000000 
0.000000 0.000000 0.000000 

-363.677260 0.000000 0.000000 
0.000000 -643.903434 0.000000 
0.000000 0.000000 0.000000 

-29.787172 0.000000 0.000000 
0.000000 141.806258 0.000000 