# vtk DataFile Version 3.0 
vtk output 
ASCII 
DATASET UNSTRUCTURED_GRID 
POINTS 175 float 
-0.026065 0.038920 0.000000 
-0.107082 0.105408 0.000000 
-0.054876 0.092113 0.000000 
-0.028810 0.144665 0.000000 
-0.186455 0.171139 0.000000 
-0.137080 0.168610 0.000000 
-0.114327 0.222263 0.000000 
-0.058187 0.206580 0.000000 
-0.029375 0.240207 0.000000 
-0.265368 0.234337 0.000000 
-0.217214 0.233597 0.000000 
-0.196467 0.290967 0.000000 
-0.142960 0.282258 0.000000 
-0.116403 0.329530 0.000000 
-0.058939 0.309884 0.000000 
-0.029565 0.347976 0.000000 
-0.343921 0.297620 0.000000 
-0.296509 0.297629 0.000000 
-0.277735 0.357580 0.000000 
-0.225819 0.351842 0.000000 
-0.201466 0.402849 0.000000 
-0.145536 0.384124 0.000000 
-0.117723 0.435116 0.000000 
-0.059321 0.412520 0.000000 
-0.029756 0.449497 0.000000 
-0.058567 -0.001805 0.000000 
-0.162417 -0.022645 0.000000 
-0.123478 0.012954 0.000000 
-0.143101 0.061939 0.000000 
-0.262212 -0.048277 0.000000 
-0.229413 -0.014536 0.000000 
-0.257125 0.043376 0.000000 
-0.209802 0.077590 0.000000 
-0.223094 0.125320 0.000000 
-0.360676 -0.067223 0.000000 
-0.330061 -0.030024 0.000000 
-0.362035 0.021738 0.000000 
-0.321859 0.058139 0.000000 
-0.342121 0.107489 0.000000 
-0.290774 0.141316 0.000000 
-0.302251 0.188055 0.000000 
-0.459137 -0.089670 0.000000 
-0.429709 -0.059328 0.000000 
-0.464845 -0.000487 0.000000 
-0.427815 0.036544 0.000000 
-0.453394 0.088114 0.000000 
-0.407954 0.123604 0.000000 
-0.425252 0.172993 0.000000 
-0.370832 0.204740 0.000000 
-0.381143 0.247697 0.000000 
-0.046972 -0.059406 0.000000 
-0.095526 -0.146720 0.000000 
-0.099098 -0.094079 0.000000 
-0.149635 -0.078901 0.000000 
-0.140260 -0.238506 0.000000 
-0.148876 -0.191653 0.000000 
-0.206214 -0.179449 0.000000 
-0.203432 -0.121307 0.000000 
-0.249043 -0.102191 0.000000 
-0.184272 -0.329392 0.000000 
-0.194205 -0.282371 0.000000 
-0.254605 -0.274957 0.000000 
-0.258029 -0.220853 0.000000 
-0.310018 -0.205434 0.000000 
-0.303815 -0.145061 0.000000 
-0.347515 -0.124908 0.000000 
-0.228015 -0.426928 0.000000 
-0.238563 -0.373767 0.000000 
-0.301170 -0.368899 0.000000 
-0.307282 -0.317086 0.000000 
-0.363502 -0.304963 0.000000 
-0.362815 -0.247461 0.000000 
-0.412075 -0.230284 0.000000 
-0.403173 -0.168224 0.000000 
-0.445888 -0.147697 0.000000 
-0.000000 -0.075330 0.000000 
0.043397 -0.171747 0.000000 
-0.000000 -0.141736 0.000000 
-0.043397 -0.171747 0.000000 
0.087320 -0.263928 0.000000 
0.043777 -0.240413 0.000000 
-0.000000 -0.278883 0.000000 
-0.043777 -0.240413 0.000000 
-0.087320 -0.263928 0.000000 
0.130844 -0.355079 0.000000 
0.087980 -0.333361 0.000000 
0.044438 -0.376479 0.000000 
-0.000000 -0.350538 0.000000 
-0.044438 -0.376479 0.000000 
-0.087980 -0.333361 0.000000 
-0.130844 -0.355079 0.000000 
0.174504 -0.446250 0.000000 
0.131787 -0.425699 0.000000 
0.088872 -0.471470 0.000000 
0.044534 -0.443948 0.000000 
-0.000000 -0.480259 0.000000 
-0.044534 -0.443948 0.000000 
-0.088872 -0.471470 0.000000 
-0.131787 -0.425699 0.000000 
-0.174504 -0.446250 0.000000 
0.046972 -0.059406 0.000000 
0.149635 -0.078901 0.000000 
0.099098 -0.094079 0.000000 
0.095526 -0.146720 0.000000 
0.249043 -0.102191 0.000000 
0.203432 -0.121307 0.000000 
0.206214 -0.179449 0.000000 
0.148876 -0.191653 0.000000 
0.140260 -0.238506 0.000000 
0.347515 -0.124908 0.000000 
0.303815 -0.145061 0.000000 
0.310018 -0.205434 0.000000 
0.258029 -0.220853 0.000000 
0.254605 -0.274957 0.000000 
0.194205 -0.282371 0.000000 
0.184272 -0.329392 0.000000 
0.445888 -0.147697 0.000000 
0.403173 -0.168224 0.000000 
0.412075 -0.230284 0.000000 
0.362815 -0.247461 0.000000 
0.363502 -0.304963 0.000000 
0.307282 -0.317086 0.000000 
0.301170 -0.368899 0.000000 
0.238563 -0.373767 0.000000 
0.228015 -0.426928 0.000000 
0.058567 -0.001805 0.000000 
0.143101 0.061939 0.000000 
0.123478 0.012954 0.000000 
0.162417 -0.022645 0.000000 
0.223094 0.125320 0.000000 
0.209802 0.077590 0.000000 
0.257125 0.043376 0.000000 
0.229413 -0.014536 0.000000 
0.262212 -0.048277 0.000000 
0.302251 0.188055 0.000000 
0.290774 0.141316 0.000000 
0.342121 0.107489 0.000000 
0.321859 0.058139 0.000000 
0.362035 0.021738 0.000000 
0.330061 -0.030024 0.000000 
0.360676 -0.067223 0.000000 
0.381143 0.247697 0.000000 
0.370832 0.204740 0.000000 
0.425252 0.172993 0.000000 
0.407954 0.123604 0.000000 
0.453394 0.088114 0.000000 
0.427815 0.036544 0.000000 
0.464845 -0.000487 0.000000 
0.429709 -0.059328 0.000000 
0.459137 -0.089670 0.000000 
0.026065 0.038920 0.000000 
0.028810 0.144665 0.000000 
0.054876 0.092113 0.000000 
0.107082 0.105408 0.000000 
0.029375 0.240207 0.000000 
0.058187 0.206580 0.000000 
0.114327 0.222263 0.000000 
0.137080 0.168610 0.000000 
0.186455 0.171139 0.000000 
0.029565 0.347976 0.000000 
0.058939 0.309884 0.000000 
0.116403 0.329530 0.000000 
0.142960 0.282258 0.000000 
0.196467 0.290967 0.000000 
0.217214 0.233597 0.000000 
0.265368 0.234337 0.000000 
0.029756 0.449497 0.000000 
0.059321 0.412520 0.000000 
0.117723 0.435116 0.000000 
0.145536 0.384124 0.000000 
0.201466 0.402849 0.000000 
0.225819 0.351842 0.000000 
0.277735 0.357580 0.000000 
0.296509 0.297629 0.000000 
0.343921 0.297620 0.000000 
CELLS 175 350 
1 0 
1 1 
1 2 
1 3 
1 4 
1 5 
1 6 
1 7 
1 8 
1 9 
1 10 
1 11 
1 12 
1 13 
1 14 
1 15 
1 16 
1 17 
1 18 
1 19 
1 20 
1 21 
1 22 
1 23 
1 24 
1 25 
1 26 
1 27 
1 28 
1 29 
1 30 
1 31 
1 32 
1 33 
1 34 
1 35 
1 36 
1 37 
1 38 
1 39 
1 40 
1 41 
1 42 
1 43 
1 44 
1 45 
1 46 
1 47 
1 48 
1 49 
1 50 
1 51 
1 52 
1 53 
1 54 
1 55 
1 56 
1 57 
1 58 
1 59 
1 60 
1 61 
1 62 
1 63 
1 64 
1 65 
1 66 
1 67 
1 68 
1 69 
1 70 
1 71 
1 72 
1 73 
1 74 
1 75 
1 76 
1 77 
1 78 
1 79 
1 80 
1 81 
1 82 
1 83 
1 84 
1 85 
1 86 
1 87 
1 88 
1 89 
1 90 
1 91 
1 92 
1 93 
1 94 
1 95 
1 96 
1 97 
1 98 
1 99 
1 100 
1 101 
1 102 
1 103 
1 104 
1 105 
1 106 
1 107 
1 108 
1 109 
1 110 
1 111 
1 112 
1 113 
1 114 
1 115 
1 116 
1 117 
1 118 
1 119 
1 120 
1 121 
1 122 
1 123 
1 124 
1 125 
1 126 
1 127 
1 128 
1 129 
1 130 
1 131 
1 132 
1 133 
1 134 
1 135 
1 136 
1 137 
1 138 
1 139 
1 140 
1 141 
1 142 
1 143 
1 144 
1 145 
1 146 
1 147 
1 148 
1 149 
1 150 
1 151 
1 152 
1 153 
1 154 
1 155 
1 156 
1 157 
1 158 
1 159 
1 160 
1 161 
1 162 
1 163 
1 164 
1 165 
1 166 
1 167 
1 168 
1 169 
1 170 
1 171 
1 172 
1 173 
1 174 
CELL_TYPES 175 
1 
1 
1 
1 
1 
1 
1 
1 
1 
1 
1 
1 
1 
1 
1 
1 
1 
1 
1 
1 
1 
1 
1 
1 
1 
1 
1 
1 
1 
1 
1 
1 
1 
1 
1 
1 
1 
1 
1 
1 
1 
1 
1 
1 
1 
1 
1 
1 
1 
1 
1 
1 
1 
1 
1 
1 
1 
1 
1 
1 
1 
1 
1 
1 
1 
1 
1 
1 
1 
1 
1 
1 
1 
1 
1 
1 
1 
1 
1 
1 
1 
1 
1 
1 
1 
1 
1 
1 
1 
1 
1 
1 
1 
1 
1 
1 
1 
1 
1 
1 
1 
1 
1 
1 
1 
1 
1 
1 
1 
1 
1 
1 
1 
1 
1 
1 
1 
1 
1 
1 
1 
1 
1 
1 
1 
1 
1 
1 
1 
1 
1 
1 
1 
1 
1 
1 
1 
1 
1 
1 
1 
1 
1 
1 
1 
1 
1 
1 
1 
1 
1 
1 
1 
1 
1 
1 
1 
1 
1 
1 
1 
1 
1 
1 
1 
1 
1 
1 
1 
1 
1 
1 
1 
1 
1 
POINT_DATA 175 
VECTORS X_GC float 
-0.026065 0.038920 0.000000 
-0.107082 0.105408 0.000000 
-0.054876 0.092113 0.000000 
-0.028810 0.144665 0.000000 
-0.186455 0.171139 0.000000 
-0.137080 0.168610 0.000000 
-0.114327 0.222263 0.000000 
-0.058187 0.206580 0.000000 
-0.029375 0.240207 0.000000 
-0.265368 0.234337 0.000000 
-0.217214 0.233597 0.000000 
-0.196467 0.290967 0.000000 
-0.142960 0.282258 0.000000 
-0.116403 0.329530 0.000000 
-0.058939 0.309884 0.000000 
-0.029565 0.347976 0.000000 
-0.343921 0.297620 0.000000 
-0.296509 0.297629 0.000000 
-0.277735 0.357580 0.000000 
-0.225819 0.351842 0.000000 
-0.201466 0.402849 0.000000 
-0.145536 0.384124 0.000000 
-0.117723 0.435116 0.000000 
-0.059321 0.412520 0.000000 
-0.029756 0.449497 0.000000 
-0.058567 -0.001805 0.000000 
-0.162417 -0.022645 0.000000 
-0.123478 0.012954 0.000000 
-0.143101 0.061939 0.000000 
-0.262212 -0.048277 0.000000 
-0.229413 -0.014536 0.000000 
-0.257125 0.043376 0.000000 
-0.209802 0.077590 0.000000 
-0.223094 0.125320 0.000000 
-0.360676 -0.067223 0.000000 
-0.330061 -0.030024 0.000000 
-0.362035 0.021738 0.000000 
-0.321859 0.058139 0.000000 
-0.342121 0.107489 0.000000 
-0.290774 0.141316 0.000000 
-0.302251 0.188055 0.000000 
-0.459137 -0.089670 0.000000 
-0.429709 -0.059328 0.000000 
-0.464845 -0.000487 0.000000 
-0.427815 0.036544 0.000000 
-0.453394 0.088114 0.000000 
-0.407954 0.123604 0.000000 
-0.425252 0.172993 0.000000 
-0.370832 0.204740 0.000000 
-0.381143 0.247697 0.000000 
-0.046972 -0.059406 0.000000 
-0.095526 -0.146720 0.000000 
-0.099098 -0.094079 0.000000 
-0.149635 -0.078901 0.000000 
-0.140260 -0.238506 0.000000 
-0.148876 -0.191653 0.000000 
-0.206214 -0.179449 0.000000 
-0.203432 -0.121307 0.000000 
-0.249043 -0.102191 0.000000 
-0.184272 -0.329392 0.000000 
-0.194205 -0.282371 0.000000 
-0.254605 -0.274957 0.000000 
-0.258029 -0.220853 0.000000 
-0.310018 -0.205434 0.000000 
-0.303815 -0.145061 0.000000 
-0.347515 -0.124908 0.000000 
-0.228015 -0.426928 0.000000 
-0.238563 -0.373767 0.000000 
-0.301170 -0.368899 0.000000 
-0.307282 -0.317086 0.000000 
-0.363502 -0.304963 0.000000 
-0.362815 -0.247461 0.000000 
-0.412075 -0.230284 0.000000 
-0.403173 -0.168224 0.000000 
-0.445888 -0.147697 0.000000 
-0.000000 -0.075330 0.000000 
0.043397 -0.171747 0.000000 
-0.000000 -0.141736 0.000000 
-0.043397 -0.171747 0.000000 
0.087320 -0.263928 0.000000 
0.043777 -0.240413 0.000000 
-0.000000 -0.278883 0.000000 
-0.043777 -0.240413 0.000000 
-0.087320 -0.263928 0.000000 
0.130844 -0.355079 0.000000 
0.087980 -0.333361 0.000000 
0.044438 -0.376479 0.000000 
-0.000000 -0.350538 0.000000 
-0.044438 -0.376479 0.000000 
-0.087980 -0.333361 0.000000 
-0.130844 -0.355079 0.000000 
0.174504 -0.446250 0.000000 
0.131787 -0.425699 0.000000 
0.088872 -0.471470 0.000000 
0.044534 -0.443948 0.000000 
-0.000000 -0.480259 0.000000 
-0.044534 -0.443948 0.000000 
-0.088872 -0.471470 0.000000 
-0.131787 -0.425699 0.000000 
-0.174504 -0.446250 0.000000 
0.046972 -0.059406 0.000000 
0.149635 -0.078901 0.000000 
0.099098 -0.094079 0.000000 
0.095526 -0.146720 0.000000 
0.249043 -0.102191 0.000000 
0.203432 -0.121307 0.000000 
0.206214 -0.179449 0.000000 
0.148876 -0.191653 0.000000 
0.140260 -0.238506 0.000000 
0.347515 -0.124908 0.000000 
0.303815 -0.145061 0.000000 
0.310018 -0.205434 0.000000 
0.258029 -0.220853 0.000000 
0.254605 -0.274957 0.000000 
0.194205 -0.282371 0.000000 
0.184272 -0.329392 0.000000 
0.445888 -0.147697 0.000000 
0.403173 -0.168224 0.000000 
0.412075 -0.230284 0.000000 
0.362815 -0.247461 0.000000 
0.363502 -0.304963 0.000000 
0.307282 -0.317086 0.000000 
0.301170 -0.368899 0.000000 
0.238563 -0.373767 0.000000 
0.228015 -0.426928 0.000000 
0.058567 -0.001805 0.000000 
0.143101 0.061939 0.000000 
0.123478 0.012954 0.000000 
0.162417 -0.022645 0.000000 
0.223094 0.125320 0.000000 
0.209802 0.077590 0.000000 
0.257125 0.043376 0.000000 
0.229413 -0.014536 0.000000 
0.262212 -0.048277 0.000000 
0.302251 0.188055 0.000000 
0.290774 0.141316 0.000000 
0.342121 0.107489 0.000000 
0.321859 0.058139 0.000000 
0.362035 0.021738 0.000000 
0.330061 -0.030024 0.000000 
0.360676 -0.067223 0.000000 
0.381143 0.247697 0.000000 
0.370832 0.204740 0.000000 
0.425252 0.172993 0.000000 
0.407954 0.123604 0.000000 
0.453394 0.088114 0.000000 
0.427815 0.036544 0.000000 
0.464845 -0.000487 0.000000 
0.429709 -0.059328 0.000000 
0.459137 -0.089670 0.000000 
0.026065 0.038920 0.000000 
0.028810 0.144665 0.000000 
0.054876 0.092113 0.000000 
0.107082 0.105408 0.000000 
0.029375 0.240207 0.000000 
0.058187 0.206580 0.000000 
0.114327 0.222263 0.000000 
0.137080 0.168610 0.000000 
0.186455 0.171139 0.000000 
0.029565 0.347976 0.000000 
0.058939 0.309884 0.000000 
0.116403 0.329530 0.000000 
0.142960 0.282258 0.000000 
0.196467 0.290967 0.000000 
0.217214 0.233597 0.000000 
0.265368 0.234337 0.000000 
0.029756 0.449497 0.000000 
0.059321 0.412520 0.000000 
0.117723 0.435116 0.000000 
0.145536 0.384124 0.000000 
0.201466 0.402849 0.000000 
0.225819 0.351842 0.000000 
0.277735 0.357580 0.000000 
0.296509 0.297629 0.000000 
0.343921 0.297620 0.000000 
VECTORS X_EC float 
0.338842 -0.025421 0.000000 
-0.607936 -0.923009 0.000000 
0.713390 -0.743526 0.000000 
0.374527 0.547023 0.000000 
0.423909 0.189621 0.000000 
-0.217956 0.223767 0.000000 
-0.513752 -0.500552 0.000000 
0.756429 -0.288836 0.000000 
0.381881 -0.742790 0.000000 
-0.550214 -0.663555 0.000000 
0.823776 -0.653561 0.000000 
0.554075 0.571947 0.000000 
-0.141515 0.689515 0.000000 
-0.486763 0.051348 0.000000 
0.766213 0.316571 0.000000 
0.384348 -0.197680 0.000000 
0.470974 0.482131 0.000000 
-0.145389 0.482003 0.000000 
-0.389447 -0.327334 0.000000 
0.935648 -0.249863 0.000000 
0.619064 -0.938465 0.000000 
-0.108030 -0.685669 0.000000 
-0.469600 0.625940 0.000000 
0.771178 0.930980 0.000000 
0.386831 0.431790 0.000000 
0.761371 0.524370 0.000000 
0.111423 0.805705 0.000000 
-0.394792 0.325127 0.000000 
-0.139685 -0.336179 0.000000 
-0.591239 -0.848262 0.000000 
0.982375 0.696234 0.000000 
-0.657373 -0.085582 0.000000 
0.727428 -0.547470 0.000000 
0.900223 0.808179 0.000000 
0.688791 -0.592486 0.000000 
0.290793 0.905322 0.000000 
0.706452 0.206532 0.000000 
0.184167 -0.284875 0.000000 
0.447568 -0.951097 0.000000 
-0.219942 0.592239 0.000000 
-0.070739 -0.038745 0.000000 
-0.031224 -0.289452 0.000000 
-0.413780 -0.699067 0.000000 
0.042983 0.506575 0.000000 
-0.438399 0.006655 0.000000 
-0.105876 -0.689534 0.000000 
-0.696600 0.831342 0.000000 
-0.471725 0.164596 0.000000 
0.820820 -0.263984 0.000000 
0.954856 -0.843913 0.000000 
0.610636 -0.698018 0.000000 
-0.758168 0.480719 0.000000 
-0.711725 -0.229928 0.000000 
-0.054739 -0.434834 0.000000 
-0.176615 -0.280175 0.000000 
-0.064612 -0.912682 0.000000 
0.680788 0.922568 0.000000 
0.644613 0.137639 0.000000 
-0.762446 -0.120426 0.000000 
0.395539 0.946792 0.000000 
0.524667 0.312006 0.000000 
-0.690136 0.211919 0.000000 
-0.645629 -0.518480 0.000000 
0.030232 -0.726645 0.000000 
-0.050408 0.458325 0.000000 
0.517692 0.186258 0.000000 
0.964190 0.263527 0.000000 
-0.898679 -0.454143 0.000000 
-0.084791 -0.519860 0.000000 
-0.005337 0.780663 0.000000 
0.725524 0.616997 0.000000 
0.716593 -0.159278 0.000000 
-0.643022 -0.391167 0.000000 
-0.758755 0.771028 0.000000 
-0.203458 0.493912 0.000000 
0.000000 -0.483041 0.000000 
-0.564165 0.818584 0.000000 
0.000000 0.413435 0.000000 
0.564165 0.818584 0.000000 
0.864837 0.063026 0.000000 
-0.569102 -0.254423 0.000000 
0.000000 0.264926 0.000000 
0.569102 -0.254423 0.000000 
-0.864837 0.063026 0.000000 
0.299024 -0.706435 0.000000 
0.856260 -0.999630 0.000000 
-0.577695 -0.417537 0.000000 
0.000000 -0.767735 0.000000 
0.577695 -0.417537 0.000000 
-0.856260 -0.999630 0.000000 
-0.299024 -0.706435 0.000000 
-0.268558 0.524380 0.000000 
0.286771 0.246933 0.000000 
0.844660 0.864851 0.000000 
-0.578940 0.493303 0.000000 
0.000000 0.983496 0.000000 
0.578940 0.493303 0.000000 
-0.844660 0.864851 0.000000 
-0.286771 0.246933 0.000000 
0.268558 0.524380 0.000000 
-0.610636 -0.698018 0.000000 
0.054739 -0.434834 0.000000 
0.711725 -0.229928 0.000000 
0.758168 0.480719 0.000000 
0.762446 -0.120426 0.000000 
-0.644613 0.137639 0.000000 
-0.680788 0.922568 0.000000 
0.064612 -0.912682 0.000000 
0.176615 -0.280175 0.000000 
-0.517692 0.186258 0.000000 
0.050408 0.458325 0.000000 
-0.030232 -0.726645 0.000000 
0.645629 -0.518480 0.000000 
0.690136 0.211919 0.000000 
-0.524667 0.312006 0.000000 
-0.395539 0.946792 0.000000 
0.203458 0.493912 0.000000 
0.758755 0.771028 0.000000 
0.643022 -0.391167 0.000000 
-0.716593 -0.159278 0.000000 
-0.725524 0.616997 0.000000 
0.005337 0.780663 0.000000 
0.084791 -0.519860 0.000000 
0.898679 -0.454143 0.000000 
-0.964190 0.263527 0.000000 
-0.761371 0.524370 0.000000 
0.139685 -0.336179 0.000000 
0.394792 0.325127 0.000000 
-0.111423 0.805705 0.000000 
-0.900223 0.808179 0.000000 
-0.727428 -0.547470 0.000000 
0.657373 -0.085582 0.000000 
-0.982375 0.696234 0.000000 
0.591239 -0.848262 0.000000 
0.070739 -0.038745 0.000000 
0.219942 0.592239 0.000000 
-0.447568 -0.951097 0.000000 
-0.184167 -0.284875 0.000000 
-0.706452 0.206532 0.000000 
-0.290793 0.905322 0.000000 
-0.688791 -0.592486 0.000000 
-0.954856 -0.843913 0.000000 
-0.820820 -0.263984 0.000000 
0.471725 0.164596 0.000000 
0.696600 0.831342 0.000000 
0.105876 -0.689534 0.000000 
0.438399 0.006655 0.000000 
-0.042983 0.506575 0.000000 
0.413780 -0.699067 0.000000 
0.031224 -0.289452 0.000000 
-0.338842 -0.025421 0.000000 
-0.374527 0.547023 0.000000 
-0.713390 -0.743526 0.000000 
0.607936 -0.923009 0.000000 
-0.381881 -0.742790 0.000000 
-0.756429 -0.288836 0.000000 
0.513752 -0.500552 0.000000 
0.217956 0.223767 0.000000 
-0.423909 0.189621 0.000000 
-0.384348 -0.197680 0.000000 
-0.766213 0.316571 0.000000 
0.486763 0.051348 0.000000 
0.141515 0.689515 0.000000 
-0.554075 0.571947 0.000000 
-0.823776 -0.653561 0.000000 
0.550214 -0.663555 0.000000 
-0.386831 0.431790 0.000000 
-0.771178 0.930980 0.000000 
0.469600 0.625940 0.000000 
0.108030 -0.685669 0.000000 
-0.619064 -0.938465 0.000000 
-0.935648 -0.249863 0.000000 
0.389447 -0.327334 0.000000 
0.145389 0.482003 0.000000 
-0.470974 0.482131 0.000000 
CELL_DATA 175 
SCALARS MASS float 
LOOKUP_TABLE default 
0.078183 
0.086427 
0.094672 
0.086427 
0.088131 
0.092111 
0.085854 
0.092111 
0.088131 
0.088705 
0.091000 
0.086983 
0.091556 
0.086983 
0.091000 
0.088705 
0.089278 
0.091574 
0.089278 
0.092722 
0.089278 
0.092722 
0.089278 
0.091574 
0.089278 
0.078183 
0.086427 
0.094672 
0.086427 
0.088131 
0.092111 
0.085854 
0.092111 
0.088131 
0.088705 
0.091000 
0.086983 
0.091556 
0.086983 
0.091000 
0.088705 
0.089278 
0.091574 
0.089278 
0.092722 
0.089278 
0.092722 
0.089278 
0.091574 
0.089278 
0.078183 
0.086427 
0.094672 
0.086427 
0.088131 
0.092111 
0.085854 
0.092111 
0.088131 
0.088705 
0.091000 
0.086983 
0.091556 
0.086983 
0.091000 
0.088705 
0.089278 
0.091574 
0.089278 
0.092722 
0.089278 
0.092722 
0.089278 
0.091574 
0.089278 
0.078183 
0.086427 
0.094672 
0.086427 
0.088131 
0.092111 
0.085854 
0.092111 
0.088131 
0.088705 
0.091000 
0.086983 
0.091556 
0.086983 
0.091000 
0.088705 
0.089278 
0.091574 
0.089278 
0.092722 
0.089278 
0.092722 
0.089278 
0.091574 
0.089278 
0.078183 
0.086427 
0.094672 
0.086427 
0.088131 
0.092111 
0.085854 
0.092111 
0.088131 
0.088705 
0.091000 
0.086983 
0.091556 
0.086983 
0.091000 
0.088705 
0.089278 
0.091574 
0.089278 
0.092722 
0.089278 
0.092722 
0.089278 
0.091574 
0.089278 
0.078183 
0.086427 
0.094672 
0.086427 
0.088131 
0.092111 
0.085854 
0.092111 
0.088131 
0.088705 
0.091000 
0.086983 
0.091556 
0.086983 
0.091000 
0.088705 
0.089278 
0.091574 
0.089278 
0.092722 
0.089278 
0.092722 
0.089278 
0.091574 
0.089278 
0.078183 
0.086427 
0.094672 
0.086427 
0.088131 
0.092111 
0.085854 
0.092111 
0.088131 
0.088705 
0.091000 
0.086983 
0.091556 
0.086983 
0.091000 
0.088705 
0.089278 
0.091574 
0.089278 
0.092722 
0.089278 
0.092722 
0.089278 
0.091574 
0.089278 
SCALARS MASS float 
LOOKUP_TABLE default 
0.078183 
0.086427 
0.094672 
0.086427 
0.088131 
0.092111 
0.085854 
0.092111 
0.088131 
0.088705 
0.091000 
0.086983 
0.091556 
0.086983 
0.091000 
0.088705 
0.089278 
0.091574 
0.089278 
0.092722 
0.089278 
0.092722 
0.089278 
0.091574 
0.089278 
0.078183 
0.086427 
0.094672 
0.086427 
0.088131 
0.092111 
0.085854 
0.092111 
0.088131 
0.088705 
0.091000 
0.086983 
0.091556 
0.086983 
0.091000 
0.088705 
0.089278 
0.091574 
0.089278 
0.092722 
0.089278 
0.092722 
0.089278 
0.091574 
0.089278 
0.078183 
0.086427 
0.094672 
0.086427 
0.088131 
0.092111 
0.085854 
0.092111 
0.088131 
0.088705 
0.091000 
0.086983 
0.091556 
0.086983 
0.091000 
0.088705 
0.089278 
0.091574 
0.089278 
0.092722 
0.089278 
0.092722 
0.089278 
0.091574 
0.089278 
0.078183 
0.086427 
0.094672 
0.086427 
0.088131 
0.092111 
0.085854 
0.092111 
0.088131 
0.088705 
0.091000 
0.086983 
0.091556 
0.086983 
0.091000 
0.088705 
0.089278 
0.091574 
0.089278 
0.092722 
0.089278 
0.092722 
0.089278 
0.091574 
0.089278 
0.078183 
0.086427 
0.094672 
0.086427 
0.088131 
0.092111 
0.085854 
0.092111 
0.088131 
0.088705 
0.091000 
0.086983 
0.091556 
0.086983 
0.091000 
0.088705 
0.089278 
0.091574 
0.089278 
0.092722 
0.089278 
0.092722 
0.089278 
0.091574 
0.089278 
0.078183 
0.086427 
0.094672 
0.086427 
0.088131 
0.092111 
0.085854 
0.092111 
0.088131 
0.088705 
0.091000 
0.086983 
0.091556 
0.086983 
0.091000 
0.088705 
0.089278 
0.091574 
0.089278 
0.092722 
0.089278 
0.092722 
0.089278 
0.091574 
0.089278 
0.078183 
0.086427 
0.094672 
0.086427 
0.088131 
0.092111 
0.085854 
0.092111 
0.088131 
0.088705 
0.091000 
0.086983 
0.091556 
0.086983 
0.091000 
0.088705 
0.089278 
0.091574 
0.089278 
0.092722 
0.089278 
0.092722 
0.089278 
0.091574 
0.089278 
SCALARS DENSITY float 
LOOKUP_TABLE default 
19.996885 
20.122470 
20.042466 
19.998887 
19.998539 
19.998564 
19.975209 
19.999078 
20.043655 
19.904375 
19.909498 
19.998986 
20.020978 
19.998673 
19.997165 
19.997639 
19.998601 
19.998576 
19.998698 
19.996063 
20.119728 
20.062679 
20.001364 
20.114834 
19.994345 
19.997431 
20.061781 
19.997285 
19.997292 
20.101179 
20.020562 
19.997655 
19.952320 
20.065618 
19.937949 
20.109869 
19.999425 
19.998295 
20.130935 
19.999214 
19.996918 
20.001517 
20.065001 
19.999025 
19.998976 
19.892293 
20.073865 
19.993555 
19.997542 
20.092091 
20.063929 
19.996352 
19.996491 
19.989428 
19.998805 
20.119692 
20.114724 
19.998057 
19.999329 
20.127473 
19.998970 
20.003804 
19.969651 
19.883477 
20.001137 
20.001142 
20.006468 
19.993050 
19.974224 
20.062284 
20.009576 
20.004943 
20.003838 
20.053685 
20.001546 
19.980194 
20.064893 
19.994346 
20.064893 
19.997521 
19.994315 
19.994323 
19.994315 
19.997521 
19.887574 
20.150061 
19.991886 
20.076214 
19.991886 
20.150061 
19.887574 
20.001356 
20.001243 
20.093292 
19.997820 
20.144733 
19.997820 
20.093292 
20.001243 
20.001356 
20.063929 
19.989428 
19.996491 
19.996352 
19.999329 
19.998057 
20.114724 
20.119692 
19.998805 
20.001142 
20.001137 
19.883477 
19.969651 
20.003804 
19.998970 
20.127473 
20.001546 
20.053685 
20.003838 
20.004943 
20.009576 
20.062284 
19.974224 
19.993050 
20.006468 
19.997431 
19.997292 
19.997285 
20.061781 
20.065618 
19.952320 
19.997655 
20.020562 
20.101179 
19.996918 
19.999214 
20.130935 
19.998295 
19.999425 
20.109869 
19.937949 
20.092091 
19.997542 
19.993555 
20.073865 
19.892293 
19.998976 
19.999025 
20.065001 
20.001517 
19.996885 
19.998887 
20.042466 
20.122470 
20.043655 
19.999078 
19.975209 
19.998564 
19.998539 
19.997639 
19.997165 
19.998673 
20.020978 
19.998986 
19.909498 
19.904375 
19.994345 
20.114834 
20.001364 
20.062679 
20.119728 
19.996063 
19.998698 
19.998576 
19.998601 
SCALARS ELEM_i float 
LOOKUP_TABLE default 
182 
209 
182 
183 
210 
210 
210 
183 
183 
237 
210 
211 
211 
211 
184 
184 
238 
238 
238 
211 
211 
211 
212 
185 
185 
182 
209 
209 
209 
235 
209 
236 
209 
210 
235 
236 
236 
236 
236 
237 
237 
262 
262 
263 
263 
263 
264 
264 
237 
237 
181 
208 
208 
208 
207 
207 
208 
208 
235 
207 
207 
234 
234 
234 
235 
235 
206 
233 
233 
234 
234 
234 
261 
262 
262 
181 
181 
181 
181 
153 
180 
180 
180 
207 
152 
152 
179 
179 
179 
206 
206 
152 
152 
152 
179 
179 
179 
206 
206 
206 
181 
154 
154 
154 
127 
154 
154 
153 
153 
127 
127 
126 
126 
126 
153 
153 
100 
100 
99 
126 
126 
126 
125 
125 
152 
182 
155 
155 
155 
156 
155 
128 
155 
127 
129 
129 
128 
128 
128 
128 
127 
129 
129 
102 
102 
101 
101 
101 
100 
100 
182 
183 
182 
155 
183 
183 
156 
156 
156 
184 
184 
157 
157 
157 
156 
129 
185 
185 
158 
157 
157 
157 
130 
130 
130 
VECTORS VELOCITY float 
-0.000742 -0.596457 0.000000 
-0.014207 -0.607411 0.000000 
-0.001319 -0.635989 0.000000 
-0.000424 -0.590452 0.000000 
-0.008401 -0.596819 0.000000 
-0.008620 -0.596375 0.000000 
-0.007130 -0.597288 0.000000 
-0.000726 -0.590305 0.000000 
0.000179 -0.646726 0.000000 
-0.014333 -0.619876 0.000000 
-0.006461 -0.597807 0.000000 
0.035196 -0.610142 0.000000 
0.033889 -0.610040 0.000000 
0.034602 -0.609790 0.000000 
0.001410 -0.608387 0.000000 
0.000752 -0.609519 0.000000 
0.069610 -0.590133 0.000000 
0.068470 -0.591390 0.000000 
0.071578 -0.588494 0.000000 
0.037048 -0.608819 0.000000 
0.012405 -0.480998 0.000000 
0.018645 -0.527654 0.000000 
0.010937 -0.468672 0.000000 
0.002188 -0.486841 0.000000 
0.001138 -0.480047 0.000000 
-0.001603 -0.596637 0.000000 
-0.027534 -0.603248 0.000000 
-0.027433 -0.602080 0.000000 
-0.027793 -0.600833 0.000000 
-0.054930 -0.662060 0.000000 
-0.061046 -0.670754 0.000000 
-0.052776 -0.627351 0.000000 
-0.028272 -0.600488 0.000000 
-0.009551 -0.595316 0.000000 
-0.027536 -0.657843 0.000000 
-0.054011 -0.631111 0.000000 
-0.055355 -0.630890 0.000000 
-0.054615 -0.628840 0.000000 
-0.027724 -0.631255 0.000000 
-0.019569 -0.619080 0.000000 
-0.017268 -0.620195 0.000000 
-0.018495 -0.639567 0.000000 
-0.032411 -0.713455 0.000000 
-0.037750 -0.622293 0.000000 
-0.039052 -0.625726 0.000000 
-0.037119 -0.627186 0.000000 
-0.048375 -0.600541 0.000000 
-0.050136 -0.595472 0.000000 
-0.017287 -0.621434 0.000000 
0.043298 -0.608009 0.000000 
-0.001382 -0.659418 0.000000 
-0.028714 -0.618597 0.000000 
-0.028486 -0.618895 0.000000 
-0.029699 -0.619049 0.000000 
-0.037540 -0.634633 0.000000 
-0.038079 -0.636571 0.000000 
-0.031776 -0.617679 0.000000 
-0.031404 -0.618569 0.000000 
-0.029590 -0.652636 0.000000 
-0.039619 -0.634609 0.000000 
-0.040149 -0.633629 0.000000 
-0.030603 -0.630572 0.000000 
-0.029042 -0.632325 0.000000 
-0.025469 -0.634429 0.000000 
-0.026975 -0.655840 0.000000 
-0.026210 -0.657990 0.000000 
0.036389 -0.620912 0.000000 
0.040825 -0.537882 0.000000 
0.043825 -0.535735 0.000000 
-0.028562 -0.631105 0.000000 
-0.025028 -0.633378 0.000000 
-0.023457 -0.635546 0.000000 
0.028675 -0.644144 0.000000 
-0.014402 -0.648946 0.000000 
-0.016012 -0.645104 0.000000 
-0.000000 -0.620149 0.000000 
0.000521 -0.622228 0.000000 
-0.000000 -0.621712 0.000000 
-0.000521 -0.622228 0.000000 
0.035184 -0.636628 0.000000 
0.000161 -0.665412 0.000000 
0.000000 -0.666752 0.000000 
-0.000161 -0.665412 0.000000 
-0.035184 -0.636628 0.000000 
0.011270 -0.634890 0.000000 
0.035125 -0.637532 0.000000 
0.001198 -0.693715 0.000000 
-0.000000 -0.734274 0.000000 
-0.001198 -0.693715 0.000000 
-0.035125 -0.637532 0.000000 
-0.011270 -0.634890 0.000000 
0.006954 -0.629259 0.000000 
0.008607 -0.633337 0.000000 
0.007694 -0.634387 0.000000 
0.001301 -0.693750 0.000000 
-0.000000 -0.692651 0.000000 
-0.001301 -0.693750 0.000000 
-0.007694 -0.634387 0.000000 
-0.008607 -0.633337 0.000000 
-0.006954 -0.629259 0.000000 
0.001382 -0.659418 0.000000 
0.029699 -0.619049 0.000000 
0.028486 -0.618895 0.000000 
0.028714 -0.618597 0.000000 
0.029590 -0.652636 0.000000 
0.031404 -0.618569 0.000000 
0.031776 -0.617679 0.000000 
0.038079 -0.636571 0.000000 
0.037540 -0.634633 0.000000 
0.026210 -0.657990 0.000000 
0.026975 -0.655840 0.000000 
0.025469 -0.634429 0.000000 
0.029042 -0.632325 0.000000 
0.030603 -0.630572 0.000000 
0.040149 -0.633629 0.000000 
0.039619 -0.634609 0.000000 
0.016012 -0.645104 0.000000 
0.014402 -0.648946 0.000000 
-0.028675 -0.644144 0.000000 
0.023457 -0.635546 0.000000 
0.025028 -0.633378 0.000000 
0.028562 -0.631105 0.000000 
-0.043825 -0.535735 0.000000 
-0.040825 -0.537882 0.000000 
-0.036389 -0.620912 0.000000 
0.001603 -0.596637 0.000000 
0.027793 -0.600833 0.000000 
0.027433 -0.602080 0.000000 
0.027534 -0.603248 0.000000 
0.009551 -0.595316 0.000000 
0.028272 -0.600488 0.000000 
0.052776 -0.627351 0.000000 
0.061046 -0.670754 0.000000 
0.054930 -0.662060 0.000000 
0.017268 -0.620195 0.000000 
0.019569 -0.619080 0.000000 
0.027724 -0.631255 0.000000 
0.054615 -0.628840 0.000000 
0.055355 -0.630890 0.000000 
0.054011 -0.631111 0.000000 
0.027536 -0.657843 0.000000 
-0.043298 -0.608009 0.000000 
0.017287 -0.621434 0.000000 
0.050136 -0.595472 0.000000 
0.048375 -0.600541 0.000000 
0.037119 -0.627186 0.000000 
0.039052 -0.625726 0.000000 
0.037750 -0.622293 0.000000 
0.032411 -0.713455 0.000000 
0.018495 -0.639567 0.000000 
0.000742 -0.596457 0.000000 
0.000424 -0.590452 0.000000 
0.001319 -0.635989 0.000000 
0.014207 -0.607411 0.000000 
-0.000179 -0.646726 0.000000 
0.000726 -0.590305 0.000000 
0.007130 -0.597288 0.000000 
0.008620 -0.596375 0.000000 
0.008401 -0.596819 0.000000 
-0.000752 -0.609519 0.000000 
-0.001410 -0.608387 0.000000 
-0.034602 -0.609790 0.000000 
-0.033889 -0.610040 0.000000 
-0.035196 -0.610142 0.000000 
0.006461 -0.597807 0.000000 
0.014333 -0.619876 0.000000 
-0.001138 -0.480047 0.000000 
-0.002188 -0.486841 0.000000 
-0.010937 -0.468672 0.000000 
-0.018645 -0.527654 0.000000 
-0.012405 -0.480998 0.000000 
-0.037048 -0.608819 0.000000 
-0.071578 -0.588494 0.000000 
-0.068470 -0.591390 0.000000 
-0.069610 -0.590133 0.000000 
TENSORS STRESS float 
19.833960 0.000000 0.000000 
0.000000 10.121047 0.000000 
0.000000 0.000000 0.000000 

-348.336225 0.000000 0.000000 
0.000000 -825.620236 0.000000 
0.000000 0.000000 0.000000 

-115.509098 0.000000 0.000000 
0.000000 -292.377983 0.000000 
0.000000 0.000000 0.000000 

4.740078 0.000000 0.000000 
0.000000 5.959400 0.000000 
0.000000 0.000000 0.000000 

5.240528 0.000000 0.000000 
0.000000 8.803686 0.000000 
0.000000 0.000000 0.000000 

5.186758 0.000000 0.000000 
0.000000 8.619849 0.000000 
0.000000 0.000000 0.000000 

72.230134 0.000000 0.000000 
0.000000 166.292080 0.000000 
0.000000 0.000000 0.000000 

3.462481 0.000000 0.000000 
0.000000 5.403236 0.000000 
0.000000 0.000000 0.000000 

-129.472863 0.000000 0.000000 
0.000000 -289.821797 0.000000 
0.000000 0.000000 0.000000 

279.544702 0.000000 0.000000 
0.000000 642.157930 0.000000 
0.000000 0.000000 0.000000 

261.656132 0.000000 0.000000 
0.000000 610.547106 0.000000 
0.000000 0.000000 0.000000 

-5.427954 0.000000 0.000000 
0.000000 15.174746 0.000000 
0.000000 0.000000 0.000000 

-68.783577 0.000000 0.000000 
0.000000 -132.816465 0.000000 
0.000000 0.000000 0.000000 

-4.729009 0.000000 0.000000 
0.000000 17.487771 0.000000 
0.000000 0.000000 0.000000 
