# vtk DataFile Version 3.0
vtk output
ASCII
DATASET UNSTRUCTURED_GRID
POINTS 3980 float
-1.1585 0.67027 0
7.5643 0.56376 0
7.4458 12.2258 0
16.0445 0.45972 0
15.496 12.6984 0
-0.87644 23.7541 0
24.0674 0.36175 0
24.6413 11.9318 0
13.8514 26.1764 0
31.4563 0.27163 0
32.8775 10.1017 0
25.9711 24.9051 0
38.0875 0.19105 0
38.9432 7.6499 0
36.7617 21.4841 0
40.9735 14.7992 0
43.89 0.12031 0
-0.60364 45.9514 0
44.1156 6.0241 0
14.7085 44.2494 0
44.9557 11.6881 0
41.8646 22.4411 0
43.6948 18.8014 0
46.0799 16.1687 0
48.8435 0.061168 0
48.9034 5.0605 0
28.9232 40.9597 0
48.964 10.0607 0
47.1162 19.4355 0
46.182 22.0785 0
49.0251 15.0599 0
45.1371 27.0379 0
49.0865 20.0595 0
52.8439 0.012186 0
52.9033 5.0134 0
52.964 10.0125 0
49.7528 23.7688 0
53.0254 15.0121 0
42.6262 35.6926 0
53.0867 20.0108 0
56.8448 -0.031279 0
56.9026 4.9658 0
50.529 28.6196 0
56.9642 9.9654 0
57.0258 14.9632 0
53.7681 24.6933 0
57.0873 19.9619 0
60.8434 -0.078639 0
60.9027 4.9211 0
54.5323 28.9272 0
51.8718 33.8744 0
60.965 9.9164 0
57.2211 25.1481 0
61.0266 14.9146 0
56.3925 30.3918 0
61.0879 19.913 0
16.1661 63.6019 0
-0.34961 66.5033 0
64.8412 -0.11923 0
64.9045 4.8693 0
64.9663 9.8673 0
61.5026 25.9592 0
65.0271 14.865 0
32.5792 59.9876 0
65.0889 19.8635 0
68.8383 -0.18544 0
61.1237 32.7475 0
68.9069 4.8192 0
68.966 9.8164 0
69.0283 14.8147 0
58.314 41.7082 0
66.5781 26.0284 0
69.0892 19.8136 0
50.4364 55.1026 0
73.048 15.7574 0
73.9235 11.2093 0
74.7141 -0.25761 0
72.4426 19.1409 0
74.6863 5.6973 0
71.7064 24.9401 0
68.497 34.0036 0
75.4287 21.845 0
76.8807 17.9588 0
79.1084 13.5141 0
81.2894 7.1681 0
82.0568 -0.35139 0
69.8229 45.1083 0
76.4634 32.1318 0
-0.12316 84.8526 0
17.3024 82.8888 0
80.8112 20.3145 0
80.9984 25.2089 0
34.3584 80.7847 0
84.8685 17.6459 0
88.6698 9.2934 0
67.6517 60.8252 0
90.8684 -0.46008 0
51.6815 79.2456 0
91.2891 26.5451 0
85.1723 44.5543 0
97.6529 12.8226 0
0.071258 100.6713 0
17.8774 100.4522 0
101.0014 -0.58545 0
82.9272 63.6036 0
68.3712 80.4612 0
35.4492 100.2359 0
110.6773 14.9195 0
52.5643 100.023 0
112.1486 -0.7194 0
108.0656 32.3644 0
83.7836 81.5128 0
95.6948 66.9187 0
106.4124 55.3639 0
69.0196 99.8212 0
123.8499 -0.86213 0
123.8875 14.6609 0
97.748 81.7894 0
125.6354 31.8336 0
84.6429 99.627 0
135.5531 -1.0042 0
112.0784 78.8305 0
136.2712 12.8114 0
99.2863 99.4458 0
131.6462 53.5482 0
139.3959 26.7613 0
146.698 -1.1384 0
147.3638 10.5857 0
112.8469 99.2842 0
145.5548 40.4512 0
150.122 21.952 0
130.7456 79.1745 0
156.8295 -1.2606 0
156.7295 8.5402 0
125.2468 99.1318 0
158.3108 17.822 0
156.0886 32.4639 0
155.7599 48.8566 0
161.1843 25.5079 0
137.9601 88.7278 0
151.8772 62.2973 0
146.4732 77.2827 0
165.0631 7.0823 0
160.587 41.1078 0
165.6393 -1.3652 0
165.5718 15.1091 0
162.9945 33.3008 0
164.063 29.0503 0
136.4548 98.9976 0
163.8827 37.9057 0
166.841 22.4439 0
168.041 28.1895 0
146.6803 88.013 0
168.161 33.606 0
166.7411 44.536 0
172.3134 6.0465 0
168.099 39.1552 0
165.0972 51.8172 0
172.485 13.5828 0
172.98 -1.4543 0
172.8348 20.718 0
159.8514 71.6968 0
156.3867 80.0677 0
173.4036 27.3594 0
165.1789 61.2492 0
146.4615 98.8755 0
173.5412 33.6249 0
173.5519 39.9187 0
155.501 88.818 0
178.8537 -1.5246 0
165.6333 68.6443 0
173.1817 46.065 0
178.9399 5.6811 0
179.0266 12.8472 0
179.1119 19.934 0
172.6237 52.4295 0
179.1963 26.9051 0
169.8139 64.9128 0
165.2057 76.3036 0
167.1174 72.8528 0
179.2788 33.7246 0
172.9463 59.2225 0
163.7209 82.4754 0
170.143 69.0524 0
155.289 98.7699 0
179.3586 40.3592 0
184.2972 -1.5899 0
184.4917 13.0313 0
179.436 46.7801 0
170.5385 73.5752 0
185.4197 5.8775 0
174.2733 64.509 0
183.8294 26.1183 0
184.6639 19.7183 0
163.1258 90.1225 0
184.0741 31.8308 0
170.1342 78.1906 0
179.5101 52.9606 0
174.6841 69.3868 0
183.1189 43.4246 0
182.9058 47.2192 0
179.5813 58.8786 0
185.1946 37.4556 0
188.2596 17.8473 0
187.8051 22.3366 0
169.8601 83.933 0
187.4031 26.1484 0
189.3318 9.0459 0
189.0663 13.7553 0
174.7604 74.2044 0
189.5657 -1.6537 0
182.9639 51.5473 0
162.9883 98.6767 0
190.0384 3.2183 0
189.2704 20.3023 0
188.1237 30.4368 0
179.6487 64.5145 0
190.1092 17.9941 0
189.8266 23.3225 0
190.1984 21.6178 0
174.8143 79.0132 0
189.8495 25.8355 0
183.6367 55.4328 0
186.9797 42.7803 0
191.5754 6.5498 0
191.4747 10.0747 0
190.7831 19.7773 0
186.1045 47.1243 0
191.2943 16.7125 0
179.7128 69.8536 0
191.3625 21.637 0
185.9705 50.668 0
192.2606 12.6047 0
190.7427 28.7343 0
191.4485 23.6343 0
191.3906 25.5056 0
170.8037 91.1004 0
192.3897 19.1759 0
193.2155 8.8384 0
183.8806 60.9729 0
190.3442 35.4232 0
174.942 83.9834 0
186.4214 53.7232 0
194.0623 2.2918 0
192.9828 21.8031 0
194.0995 5.3618 0
185.6155 57.906 0
193.6129 15.9249 0
188.5322 47.6396 0
179.7727 74.8853 0
183.4728 65.2207 0
194.3751 7.3413 0
194.5049 -1.7133 0
193.1348 24.3358 0
192.8141 27.1602 0
189.5152 45.0858 0
190.6157 40.655 0
188.4454 50.2137 0
192.3725 31.7644 0
194.5247 19.0528 0
187.5265 55.969 0
193.4766 29.8392 0
195.4371 11.3883 0
169.6243 98.5979 0
191.1279 43.3944 0
190.1017 47.9637 0
188.8604 52.7851 0
183.4812 69.7875 0
195.0438 22.0639 0
179.8284 79.6027 0
175.6519 88.7028 0
189.0006 54.7492 0
196.4212 8.1242 0
191.2791 46.4822 0
187.7764 59.4656 0
195.2242 24.9801 0
186.9685 62.099 0
190.609 49.7713 0
196.7898 5.3709 0
195.1406 27.8265 0
196.4698 15.6279 0
195.1424 30.4731 0
189.1842 57.5264 0
194.9264 33.0604 0
197.7668 2.3347 0
186.8791 65.6091 0
183.7128 74.6788 0
197.117 19.2515 0
193.8689 40.9759 0
192.2364 48.4244 0
193.2537 44.442 0
179.8807 84.0019 0
190.6906 55.5012 0
191.6523 52.4842 0
195.1918 36.8566 0
189.4511 60.3784 0
197.4602 22.7075 0
177.0818 91.5143 0
175.7566 94.1471 0
198.9949 -1.7672 0
197.202 28.6069 0
197.5794 26.0591 0
187.0324 69.6106 0
199.2278 5.7625 0
193.0592 50.3133 0
199.2462 8.4594 0
197.0949 31.0042 0
189.6822 62.4717 0
196.905 33.0306 0
199.2273 12.0849 0
194.2156 47.2031 0
190.9629 59.2391 0
179.9276 88.0842 0
199.7127 15.9471 0
195.6341 44.1082 0
196.2225 41.9104 0
175.2801 98.5312 0
184.4331 79.9651 0
189.9856 65.5952 0
198.8765 29.4898 0
200.1005 19.8918 0
193.1191 57.3034 0
196.0697 46.117 0
187.5154 73.9607 0
198.9702 31.8287 0
197.6551 39.6278 0
195.3673 50.0603 0
198.6161 35.0345 0
183.4622 84.5062 0
179.9702 91.8522 0
200.3331 23.7958 0
196.9533 44.1056 0
201.6473 3.4574 0
192.4194 61.8406 0
197.7313 42.9295 0
200.3759 28.0004 0
195.1574 54.053 0
190.5075 69.2328 0
197.4937 45.2793 0
197.011 47.9691 0
202.4567 8.0702 0
202.9565 -1.8151 0
183.1539 88.3855 0
202.8312 12.4907 0
199.0778 41.648 0
180.009 95.313 0
198.7029 44.3177 0
199.9261 38.2938 0
198.3229 46.6977 0
188.2582 78.3767 0
193.204 65.1084 0
201.2938 31.7864 0
186.6964 82.4625 0
203.1424 16.6235 0
197.6593 50.9037 0
198.393 49.1651 0
203.3736 20.7973 0
191.1579 73.2623 0
183.1056 91.9408 0
200.0535 43.3307 0
201.6374 35.0298 0
199.5322 45.7318 0
197.7597 53.2002 0
186.4265 85.426 0
195.8759 60.4932 0
180.046 98.4753 0
200.8711 40.7036 0
199.3832 47.9424 0
203.5599 24.7568 0
194.0305 68.5974 0
199.2517 51.2234 0
203.6732 28.6811 0
199.6327 49.9049 0
200.8214 44.8776 0
202.2931 37.9364 0
200.4767 47.0511 0
189.2307 81.9967 0
201.6061 42.6173 0
198.0479 57.2658 0
186.2471 88.7876 0
199.3578 52.7527 0
183.1471 95.3183 0
200.4017 48.9061 0
198.9331 55.0996 0
206.3524 -1.8562 0
206.4126 3.1202 0
204.0159 32.2351 0
196.5017 64.4379 0
206.472 8.0263 0
191.9178 77.4652 0
202.8383 40.3332 0
200.6503 50.3867 0
200.4264 51.3414 0
201.6419 46.3034 0
201.3529 48.129 0
199.8727 54.1018 0
202.2193 44.3341 0
206.5293 12.7964 0
200.5468 52.4852 0
201.2734 49.6739 0
204.2679 35.3076 0
206.5847 17.3699 0
186.2134 92.0906 0
201.3111 50.6426 0
189.4385 85.4806 0
203.3031 42.3199 0
201.3677 51.291 0
183.3038 98.4373 0
200.4917 54.8845 0
200.2698 55.8057 0
206.6367 21.6965 0
195.0095 72.3551 0
202.4195 47.4888 0
200.905 53.6457 0
202.8502 45.7961 0
202.1406 49.0221 0
201.8863 50.2908 0
204.6094 38.0948 0
201.5671 52.2098 0
200.2683 57.2647 0
199.077 61.5305 0
206.6856 25.7345 0
203.704 44.1309 0
199.9212 59.5035 0
202.2227 50.9987 0
201.3326 54.7454 0
197.4835 67.7622 0
202.678 49.8408 0
203.4049 46.9441 0
201.926 53.2548 0
204.862 40.4865 0
206.7306 29.4541 0
192.5642 81.4152 0
203.2582 48.4447 0
189.3257 88.9734 0
202.4858 51.8127 0
186.2656 95.3462 0
201.5012 55.9046 0
204.1447 45.5604 0
203.0868 50.608 0
199.292 64.1452 0
203.9033 47.7152 0
206.772 32.8354 0
201.1132 58.6948 0
205.0729 42.5391 0
203.5816 49.4137 0
202.8373 52.653 0
201.6609 57.1743 0
204.4628 46.6686 0
203.3548 51.3872 0
202.6389 54.4405 0
204.1861 48.5226 0
204.2966 48.0464 0
206.8086 35.8703 0
205.2969 44.2398 0
204.6062 47.3913 0
195.7666 76.4844 0
204.0356 50.1862 0
204.284 49.1538 0
203.611 52.1339 0
203.3658 53.4333 0
202.7415 55.8926 0
201.447 60.5227 0
202.1093 58.3314 0
189.2365 92.2893 0
204.8006 47.9021 0
201.0707 62.0038 0
204.4443 49.6556 0
204.1499 51.0545 0
206.841 38.5593 0
204.8669 48.4375 0
205.5188 45.6674 0
205.216 47.3157 0
202.0392 59.6322 0
186.4923 98.4024 0
203.9691 52.7741 0
202.836 57.1048 0
204.9239 49.0232 0
192.8407 85.3832 0
204.2983 51.7706 0
205.3987 47.7645 0
204.9769 49.6198 0
200.132 66.7838 0
205.6429 46.7912 0
206.8693 40.9123 0
204.8965 50.227 0
202.6423 59.1808 0
204.4819 52.3609 0
204.1355 53.8524 0
203.8928 54.7985 0
201.2962 63.8488 0
205.5132 48.3179 0
204.912 50.9089 0
203.0349 58.1776 0
204.4179 53.1683 0
204.6342 52.7378 0
205.5765 48.907 0
206.8936 42.9452 0
204.9718 51.5588 0
199.0796 71.4612 0
206.05 47.5449 0
205.6087 49.5375 0
202.8416 60.1576 0
202.6089 60.9759 0
213.6434 -1.8475 0
205.0397 52.176 0
203.0166 59.6948 0
204.0611 56.0284 0
213.5843 3.1284 0
205.5921 50.1657 0
203.3211 59.0148 0
206.9148 44.6811 0
205.0621 52.7185 0
202.4634 62.1123 0
203.9066 57.1751 0
189.3098 95.3764 0
206.2 48.1918 0
213.5258 8.0345 0
204.9811 53.3126 0
205.6107 50.8231 0
204.8656 54.0094 0
192.5145 89.0778 0
206.2609 48.8289 0
204.7875 54.8163 0
205.6414 51.4674 0
206.9319 46.1449 0
196.3001 80.5346 0
203.9609 58.1003 0
213.469 12.804 0
203.5313 59.7043 0
206.2821 49.4812 0
205.6644 52.0916 0
206.94 46.8032 0
[...]
POINT_DATA 3980
VECTORS d float 
-1.1585 0.67027 0
-1.1585 0.56376 0
-1.0161 0.56688 0
-1.1588 0.45972 0
-1.0089 0.46835 0
-0.87644 0.67038 0
-1.1579 0.36175 0
-1.017 0.35615 0
-0.84449 0.49062 0
-1.1578 0.27163 0
-1.0379 0.25574 0
-0.8582 0.3416 0
-1.1575 0.19105 0
-1.0667 0.18159 0
-0.89816 0.21021 0
-0.97936 0.15778 0
-1.157 0.12031 0
-0.60364 0.67171 0
-1.0856 0.11856 0
-0.62276 0.48267 0
-1.0168 0.10897 0
-0.8855 0.14777 0
-0.92996 0.12506 0
-0.9618 0.0959 0
-1.1565 0.061168 0
-1.0966 0.060533 0
-0.66062 0.30694 0
-1.036 0.060652 0
-0.92151 0.083427 0
-0.88929 0.095017 0
-0.97492 0.059854 0
-0.82856 0.10826 0
-0.91352 0.059464 0
-1.1561 0.012186 0
-1.0967 0.013439 0
-1.036 0.012526 0
-0.8679 0.051554 0
-0.97464 0.012059 0
-0.72237 0.13999 0
-0.91328 0.010819 0
-1.1552 -0.031279 0
-1.0974 -0.034173 0
-0.80788 0.042096 0
-1.0358 -0.034633 0
-0.97417 -0.036767 0
-0.85541 0.0022181 0
-0.91265 -0.038069 0
-1.1566 -0.078639 0
-1.0973 -0.078887 0
-0.80312 -0.0073419 0
-0.74291 0.025753 0
-1.035 -0.083587 0
-0.84898 -0.040108 0
-0.97338 -0.085424 0
-0.78486 -0.029929 0
-0.91207 -0.086994 0
-0.38247 0.46749 0
-0.34961 0.67191 0
-1.1588 -0.11923 0
-1.0955 -0.13066 0
-1.0337 -0.13273 0
-0.83785 -0.092776 0
-0.97289 -0.13497 0
-0.4255 0.26433 0
-0.91111 -0.1365 0
-1.1617 -0.18544 0
-0.75465 -0.088302 0
-1.0931 -0.18077 0
-1.034 -0.18358 0
-0.97167 -0.18529 0
-0.64492 -0.053378 0
-0.83545 -0.15553 0
-0.91077 -0.1864 0
-0.4826 0.044358 0
-0.95948 -0.23581 0
-1.0145 -0.2467 0
-1.1589 -0.25761 0
-0.91785 -0.22826 0
-1.0835 -0.25781 0
-0.84713 -0.21919 0
-0.73734 -0.17967 0
-0.88404 -0.26551 0
-0.93145 -0.2839 0
-0.98565 -0.31228 0
-1.0633 -0.34019 0
-1.1575 -0.35139 0
-0.60086 -0.19546 0
-0.75842 -0.27783 0
-0.12316 0.67137 0
-0.14503 0.45661 0
-0.90179 -0.33317 0
-0.8416 -0.33492 0
-0.16838 0.2463 0
-0.9336 -0.38355 0
-1.0356 -0.43227 0
-0.4096 -0.16842 0
-1.1554 -0.46008 0
-0.18542 0.031242 0
-0.82336 -0.46224 0
-0.60492 -0.38556 0
-0.99004 -0.54249 0
0.071258 0.67127 0
0.071534 0.45225 0
-1.1533 -0.58545 0
-0.37309 -0.35621 0
-0.16796 -0.1748 0
0.071714 0.23588 0
-0.96179 -0.70038 0
0.071741 0.022998 0
-1.1502 -0.7194 0
-0.74966 -0.66692 0
-0.1548 -0.36478 0
-0.33168 -0.51279 0
-0.47023 -0.64469 0
0.070114 -0.17875 0
-1.1501 -0.86213 0
-0.9608 -0.86081 0
-0.14859 -0.5367 0
-0.75307 -0.87974 0
0.069799 -0.37297 0
-1.1481 -1.0042 0
-0.1835 -0.71287 0
-0.98099 -1.0109 0
0.066052 -0.55419 0
-0.48868 -0.95178 0
-0.81202 -1.0475 0
-1.1473 -1.1384 0
-1.0059 -1.1451 0
0.064412 -0.71575 0
-0.64577 -1.1197 0
-0.86836 -1.1765 0
-0.18062 -0.93631 0
-1.1467 -1.2606 0
-1.029 -1.2572 0
0.059866 -0.86817 0
-0.91645 -1.2753 0
-0.74029 -1.2469 0
-0.54274 -1.2413 0
-0.82364 -1.3088 0
-0.065238 -1.0228 0
-0.38141 -1.194 0
-0.20349 -1.1281 0
-1.0452 -1.3578 0
-0.63517 -1.2997 0
-1.1464 -1.3652 0
-0.94793 -1.3627 0
-0.72923 -1.3296 0
-0.78028 -1.3431 0
0.059078 -1.0024 0
-0.67372 -1.3397 0
-0.85964 -1.3772 0
-0.79019 -1.3906 0
-0.073693 -1.128 0
-0.72483 -1.3915 0
-0.59325 -1.3736 0
-1.056 -1.4446 0
-0.65751 -1.3903 0
-0.50588 -1.3528 0
-0.96552 -1.4459 0
-1.1469 -1.4543 0
-0.87935 -1.4488 0
-0.26802 -1.2885 0
-0.16848 -1.247 0
-0.799 -1.455 0
-0.39198 -1.3532 0
0.057841 -1.1245 0
-0.72365 -1.4562 0
-0.64762 -1.4554 0
-0.064032 -1.2356 0
-1.1463 -1.5246 0
-0.30323 -1.3582 0
-0.57396 -1.4503 0
-1.0601 -1.5246 0
-0.97337 -1.5244 0
-0.88809 -1.5247 0
-0.49716 -1.4429 0
-0.80372 -1.5246 0
-0.34738 -1.4083 0
-0.21256 -1.3524 0
-0.25307 -1.3756 0
-0.72124 -1.5245 0
-0.41534 -1.4461 0
-0.13883 -1.3339 0
-0.29754 -1.4116 0
0.054883 -1.2301 0
-0.64143 -1.5251 0
-1.1469 -1.5899 0
-0.97051 -1.5902 0
-0.56403 -1.5253 0
-0.2443 -1.4158 0
-1.0568 -1.6024 0
-0.35175 -1.4615 0
-0.81242 -1.5805 0
-0.88979 -1.5911 0
-0.048958 -1.3262 0
-0.74379 -1.5829 0
-0.18938 -1.4108 0
-0.48986 -1.5254 0
-0.29321 -1.4657 0
-0.60385 -1.5696 0
-0.5582 -1.5666 0
-0.41874 -1.5251 0
-0.67545 -1.5952 0
-0.91207 -1.6347 0
-0.8577 -1.6286 0
-0.12161 -1.4078 0
-0.81176 -1.6231 0
-1.0179 -1.6493 0
-0.96127 -1.6451 0
-0.2361 -1.4661 0
-1.1469 -1.6537 0
-0.50627 -1.5668 0
0.053232 -1.3233 0
-1.0881 -1.6587 0
-0.88208 -1.6466 0
-0.75959 -1.6312 0
-0.35127 -1.5251 0
-0.90998 -1.657 0
-0.84565 -1.6528 0
-0.86611 -1.6576 0
-0.17889 -1.4665 0
-0.81513 -1.6529 0
-0.45982 -1.5744 0
-0.61102 -1.6161 0
-1.0479 -1.6764 0
-1.0055 -1.6745 0
-0.88824 -1.6649 0
-0.55887 -1.605 0
-0.92558 -1.6715 0
-0.28722 -1.5253 0
-0.86581 -1.6714 0
-0.51651 -1.603 0
-0.97459 -1.6839 0
-0.78014 -1.6632 0
-0.84157 -1.6724 0
-0.81905 -1.6713 0
-0.037822 -1.4177 0
-0.89543 -1.6843 0
-1.0201 -1.696 0
-0.3933 -1.5766 0
-0.6991 -1.6573 0
-0.12047 -1.4672 0
-0.47971 -1.6079 0
-1.0989 -1.7072 0
-0.86349 -1.6912 0
-1.062 -1.7071 0
-0.42967 -1.5979 0
-0.93461 -1.6995 0
-0.55238 -1.634 0
-0.22734 -1.5255 0
-0.34206 -1.5712 0
-1.038 -1.7101 0
-1.147 -1.7133 0
-0.83299 -1.6925 0
-0.79859 -1.6885 0
-0.58287 -1.6461 0
-0.63593 -1.66 0
-0.52138 -1.6326 0
-0.74316 -1.6823 0
-0.8968 -1.7103 0
-0.45264 -1.6207 0
-0.76645 -1.6959 0
-0.98903 -1.7223 0
0.050438 -1.4021 0
-0.60324 -1.6656 0
-0.54828 -1.6527 0
-0.49067 -1.6373 0
-0.28767 -1.5704 0
-0.8602 -1.7163 0
-0.17161 -1.5254 0
-0.065612 -1.4755 0
-0.46705 -1.6387 0
-1.0284 -1.7348 0
-0.566 -1.6672 0
-0.41083 -1.6232 0
-0.8247 -1.7182 0
-0.37937 -1.6134 0
-0.52643 -1.6588 0
-1.0615 -1.7397 0
-0.79056 -1.7161 0
-0.93786 -1.7342 0
-0.75829 -1.7159 0
-0.43376 -1.6404 0
-0.72717 -1.7131 0
-1.098 -1.7519 0
-0.33743 -1.6114 0
-0.22949 -1.5718 0
-0.89394 -1.7417 0
-0.6318 -1.6988 0
-0.54227 -1.6782 0
-0.58993 -1.6911 0
-0.11925 -1.5257 0
-0.45778 -1.6586 0
-0.49376 -1.6708 0
-0.68094 -1.7157 0
-0.39948 -1.6432 0
-0.85214 -1.7452 0
-0.033129 -1.4914 0
-0.0032919 -1.4756 0
-1.1472 -1.7672 0
-0.78066 -1.7413 0
-0.81156 -1.7459 0
-0.28933 -1.6127 0
-1.0565 -1.7689 0
-0.5197 -1.6876 0
-1.024 -1.7687 0
-0.75166 -1.7395 0
-0.37455 -1.6456 0
-0.72717 -1.7367 0
-0.98024 -1.7679 0
-0.55678 -1.7021 0
-0.41303 -1.6615 0
-0.072402 -1.5254 0
-0.93359 -1.7734 0
-0.59381 -1.7197 0
-0.62007 -1.7271 0
0.048133 -1.4688 0
-0.1664 -1.5798 0
-0.33707 -1.6489 0
-0.76974 -1.7611 0
-0.88579 -1.7776 0
-0.43581 -1.6878 0
-0.56953 -1.7248 0
-0.23741 -1.6183 0
-0.74151 -1.762 0
-0.64752 -1.7449 0
-0.52213 -1.7158 0
-0.70245 -1.7573 0
-0.11296 -1.5666 0
-0.029824 -1.5255 0
-0.83863 -1.7799 0
-0.59333 -1.7357 0
-1.0839 -1.7984 0
-0.38163 -1.6787 0
-0.60771 -1.7452 0
-0.78765 -1.7796 0
-0.47437 -1.7125 0
-0.29327 -1.6544 0
-0.57937 -1.7419 0
-0.54714 -1.7357 0
-1.0283 -1.8074 0
-1.1476 -1.8151 0
-0.068085 -1.563 0
-0.97473 -1.8116 0
-0.62289 -1.7615 0
0.0090432 -1.5252 0
-0.59065 -1.7567 0
-0.66317 -1.7723 0
-0.56222 -1.7516 0
-0.18497 -1.6258 0
-0.34227 -1.6877 0
-0.74151 -1.7901 0
-0.13694 -1.6063 0
-0.92492 -1.8148 0
-0.51192 -1.7427 0
-0.53268 -1.752 0
-0.87451 -1.817 0
-0.24523 -1.6611 0
-0.029093 -1.5616 0
-0.60249 -1.773 0
-0.70223 -1.7936 0
-0.57379 -1.7661 0
-0.48404 -1.7435 0
-0.10133 -1.6022 0
-0.39709 -1.7202 0
0.046041 -1.5247 0
-0.63403 -1.7833 0
-0.54718 -1.7639 0
-0.82672 -1.8187 0
-0.3006 -1.6967 0
-0.50776 -1.762 0
-0.77914 -1.8195 0
-0.5236 -1.7666 0
-0.58385 -1.782 0
-0.66717 -1.8009 0
-0.55775 -1.7773 0
-0.14191 -1.6367 0
-0.6108 -1.7919 0
-0.43523 -1.7464 0
-0.063203 -1.5963 0
-0.48926 -1.7628 0
0.0081773 -1.5615 0
-0.53554 -1.7761 0
-0.46114 -1.7574 0
-1.1476 -1.8562 0
-1.0874 -1.8561 0
-0.73578 -1.8228 0
-0.3499 -1.727 0
-1.028 -1.8561 0
-0.19545 -1.67 0
-0.63808 -1.807 0
-0.51759 -1.7789 0
-0.50615 -1.7759 0
-0.5667 -1.7915 0
-0.54466 -1.7875 0
-0.47289 -1.7688 0
-0.59039 -1.7988 0
-0.97069 -1.8559 0
-0.49229 -1.7772 0
-0.52613 -1.7863 0
-0.69851 -1.8252 0
-0.91533 -1.8562 0
-0.027643 -1.5963 0
-0.51455 -1.7867 0
-0.10037 -1.6396 0
-0.61436 -1.8122 0
-0.50656 -1.7872 0
0.043318 -1.5627 0
-0.46345 -1.776 0
-0.45251 -1.7733 0
-0.86327 -1.8562 0
-0.25565 -1.7075 0
-0.55238 -1.8006 0
-0.47837 -1.7812 0
-0.57257 -1.8061 0
-0.53385 -1.7969 0
-0.51852 -1.7936 0
-0.66486 -1.8289 0
-0.49555 -1.7894 0
-0.43505 -1.7729 0
-0.38404 -1.7582 0
-0.81435 -1.8564 0
-0.5925 -1.8167 0
-0.40822 -1.7685 0
-0.51012 -1.7975 0
-0.46503 -1.7863 0
-0.31017 -1.7383 0
-0.52387 -1.8032 0
-0.5587 -1.8127 0
-0.48281 -1.7937 0
-0.63598 -1.8313 0
-0.76941 -1.8563 0
-0.14859 -1.6763 0
-0.54072 -1.8107 0
-0.060493 -1.6298 0
-0.50003 -1.8006 0
0.007551 -1.5967 0
-0.45116 -1.788 0
-0.57528 -1.8218 0
-0.51457 -1.808 0
-0.35291 -1.7605 0
-0.54945 -1.8184 0
-0.72802 -1.8561 0
-0.41748 -1.7829 0
-0.61144 -1.8334 0
-0.52905 -1.8142 0
-0.48995 -1.8048 0
-0.43583 -1.7898 0
-0.56187 -1.8254 0
-0.50516 -1.8112 0
-0.46855 -1.802 0
-0.53967 -1.8217 0
-0.54542 -1.8233 0
-0.69138 -1.8557 0
-0.59102 -1.8358 0
-0.55323 -1.827 0
-0.20636 -1.7157 0
-0.51956 -1.8195 0
-0.53198 -1.8227 0
-0.49607 -1.814 0
-0.48049 -1.8108 0
-0.45111 -1.803 0
-0.39576 -1.7868 0
-0.42192 -1.795 0
-0.02456 -1.6291 0
-0.54708 -1.8292 0
-0.37832 -1.7818 0
-0.52599 -1.8246 0
-0.50897 -1.8207 0
-0.65903 -1.8555 0
-0.54071 -1.83 0
-0.57362 -1.8382 0
-0.55402 -1.8343 0
-0.40621 -1.7938 0
0.039683 -1.5976 0
-0.48834 -1.8182 0
-0.43653 -1.8039 0
-0.53345 -1.8304 0
-0.10042 -1.6804 0
-0.50043 -1.8224 0
-0.54866 -1.8364 0
-0.52634 -1.831 0
-0.32148 -1.7699 0
-0.5604 -1.8395 0
-0.6307 -1.8552 0
-0.51897 -1.8299 0
-0.41152 -1.8012 0
-0.49317 -1.8245 0
-0.47542 -1.82 0
-0.46406 -1.8169 0
-0.35587 -1.7843 0
-0.54199 -1.8376 0
-0.51066 -1.8299 0
-0.42362 -1.806 0
-0.48349 -1.8235 0
-0.48872 -1.8262 0
-0.53489 -1.8384 0
-0.60643 -1.8553 0
-0.50281 -1.8305 0
-0.26608 -1.7566 0
-0.55118 -1.8442 0
-0.52723 -1.8386 0
-0.39977 -1.8034 0
-0.39027 -1.8004 0
1.1434 -1.8475 0
-0.49543 -1.8313 0
-0.40536 -1.8056 0
-0.44924 -1.8186 0
1.0843 -1.8479 0
-0.51956 -1.8383 0
-0.41337 -1.8094 0
-0.58517 -1.8551 0
-0.48875 -1.8314 0
-0.37658 -1.7988 0
-0.43555 -1.8165 0
0.0053273 -1.6289 0
-0.54338 -1.846 0
1.0258 -1.8479 0
-0.48178 -1.8303 0
-0.51165 -1.8383 0
-0.47339 -1.8288 0
-0.05577 -1.662 0
-0.53564 -1.8465 0
-0.46375 -1.8276 0
-0.50379 -1.8386 0
-0.56815 -1.8551 0
-0.1583 -1.7219 0
-0.42438 -1.8173 0
0.96897 -1.8483 0
-0.40526 -1.8117 0
-0.52787 -1.8467 0
-0.49618 -1.8387 0
-0.55998 -1.855 0
-0.3613 -1.8004 0
-0.39736 -1.8119 0
-0.52007 -1.8466 0
-0.45417 -1.8288 0
-0.48892 -1.8387 0
-0.55205 -1.855 0
-0.4142 -1.8183 0
0.91404 -1.8485 0
-0.48114 -1.8382 0
-0.51212 -1.8466 0
-0.38781 -1.8113 0
-0.5441 -1.855 0
-0.33205 -1.7937 0
-0.55944 -1.8589 0
-0.44289 -1.8288 0
-0.56365 -1.8606 0
-0.47287 -1.8374 0
-0.504 -1.8467 0
-0.53631 -1.8551 0
-0.43327 -1.8274 0
-0.37683 -1.8103 0
-0.44803 -1.8318 0
-0.46415 -1.8369 0
-0.40566 -1.8198 0
-0.55468 -1.8611 0
-0.49613 -1.8467 0
-0.52814 -1.8551 0
0.86187 -1.849 0
-0.4243 -1.8273 0
-0.45531 -1.8373 0
-0.52047 -1.8552 0
-0.48849 -1.8467 0
-0.3971 -1.8208 0
-0.29097 -1.7863 0
-0.55945 -1.8658 0
-0.36517 -1.8116 0
-0.34585 -1.806 0
-0.02412 -1.6585 0
-0.48078 -1.8465 0
-0.51198 -1.8547 0
-0.41525 -1.828 0
-0.21738 -1.7608 0
-0.54735 -1.8644 0
-0.44807 -1.838 0
-0.47286 -1.8462 0
-0.53713 -1.8631 0
-0.50407 -1.855 0
-0.44065 -1.8373 0
-0.38685 -1.8218 0
0.036632 -1.6306 0
0.81398 -1.849 0
-0.3771 -1.8196 0
-0.40702 -1.8287 0
-0.52959 -1.8625 0
-0.46461 -1.8459 0
-0.43256 -1.8369 0
-0.49616 -1.8549 0
-0.55588 -1.8703 0
-0.31058 -1.7993 0
-0.52153 -1.8631 0
-0.45647 -1.8458 0
-0.4884 -1.8548 0
-0.39877 -1.8293 0
-0.42422 -1.8369 0
-0.35422 -1.8157 0
-0.36793 -1.8201 0
-0.51396 -1.8642 0
-0.48064 -1.8547 0
-0.32643 -1.808 0
-0.44844 -1.8459 0
-0.54536 -1.8715 0
0.76933 -1.8496 0
-0.38244 -1.8268 0
-0.53899 -1.8708 0
-0.41604 -1.8374 0
-0.55215 -1.8746 0
-0.50417 -1.8628 0
-0.39043 -1.8302 0
-0.47286 -1.8546 0
-0.37675 -1.8266 0
-0.44055 -1.8458 0
-0.3162 -1.8072 0
-0.33695 -1.814 0
-0.25464 -1.7856 0
-0.52917 -1.8718 0
-0.40819 -1.8376 0
-0.36011 -1.823 0
-0.49635 -1.8628 0
-0.46485 -1.8546 0
-0.4325 -1.8459 0
-0.36987 -1.8272 0
-0.50185 -1.8693 0
-0.38378 -1.8324 0
-0.4004 -1.8377 0
-0.48839 -1.8629 0
-0.52924 -1.8745 0
-0.45697 -1.8545 0
-0.53997 -1.8788 0
-0.42466 -1.846 0
0.72903 -1.8495 0
0.0056926 -1.6584 0
-0.4965 -1.8682 0
-0.54795 -1.8803 0
-0.1041 -1.7309 0
-0.48052 -1.8626 0
-0.36338 -1.8288 0
-0.34546 -1.8229 0
-0.37741 -1.8331 0
-0.27059 -1.7971 0
-0.449 -1.8545 0
1.051 -1.8146 0
-0.39229 -1.8382 0
-0.41681 -1.8458 0
-0.30327 -1.81 0
-0.35464 -1.8274 0
-0.50026 -1.8705 0
-0.32156 -1.8166 0
-0.31277 -1.814 0
-0.47263 -1.8628 0
-0.4411 -1.8545 0
-0.32992 -1.8205 0
-0.29003 -1.8067 0
-0.23075 -1.7851 0
-0.35912 -1.8302 0
-0.37067 -1.834 0
-0.55316 -1.8737 0
-0.40896 -1.8458 0
-0.17517 -1.764 0
-0.38488 -1.8392 0
-0.49269 -1.8707 0
-0.46457 -1.8627 0
1.0148 -1.8126 0
-0.20803 -1.7779 0
-0.43332 -1.8544 0
-0.60304 -1.8782 0
-0.57755 -1.8643 0
0.69257 -1.85 0
-0.36462 -1.8346 0
-0.40111 -1.8458 0
0.58685 -1.8951 0
-0.3359 -1.8256 0
-0.45639 -1.8624 0
1.1434 -1.8078 0
-0.05259 -1.6897 0
-0.48455 -1.8707 0
-0.61034 -1.8785 0
-0.37765 -1.8401 0
-0.42528 -1.8543 0
-0.35893 -1.8348 0
-0.44883 -1.8619 0
-0.39321 -1.8461 0
-0.35286 -1.8336 0
-0.47678 -1.8708 0
0.96797 -1.8108 0
-0.3455 -1.8319 0
-0.41742 -1.8543 0
-0.44148 -1.8615 0
-0.32541 -1.8259 0
-0.37103 -1.8407 0
-0.31823 -1.8238 0
-0.33058 -1.8279 0
-0.52715 -1.8759 0
-0.26186 -1.8045 0
-0.3098 -1.8217 0
0.54893 -1.8754 0
-0.46849 -1.8711 0
-0.3854 -1.8467 0
0.66057 -1.8502 0
-0.40955 -1.8543 0
-0.43407 -1.8616 0
-0.30063 -1.8195 0
-0.25109 -1.8019 0
-0.36463 -1.8411 0
-0.33735 -1.8323 0
0.53449 -1.8782 0
0.59171 -1.8892 0
0.548 -1.8717 0
0.41608 -1.8939 0
-0.51756 -1.8784 0
-0.27656 -1.8125 0
-0.46122 -1.8712 0
0.53977 -1.8746 0
-0.29115 -1.8184 0
0.91818 -1.8104 0
-0.37823 -1.8471 0
-0.4016 -1.8542 0
-0.35865 -1.8411 0
-0.42676 -1.8622 0
-0.33052 -1.8328 0
-0.19127 -1.7818 0
-0.45477 -1.8708 0
-0.51316 -1.8793 0
-0.44781 -1.8691 0
-0.21427 -1.7916 0
-0.3522 -1.8407 0
0.55476 -1.8692 0
-0.44153 -1.868 0
-0.32355 -1.8319 0
1.0964 -1.7983 0
0.54489 -1.8707 0
-0.39372 -1.8542 0
-0.37113 -1.8475 0
-0.019809 -1.6864 0
0.63191 -1.8506 0
-0.34511 -1.8399 0
-0.41885 -1.8627 0
-0.2832 -1.8193 0
-0.31631 -1.8309 0
-0.50422 -1.8797 0
0.032871 -1.6594 0
-0.43529 -1.8686 0
-0.3861 -1.8542 0
-0.23575 -1.8032 0
-0.36452 -1.8477 0
0.8684 -1.8107 0
-0.3377 -1.8394 0
0.5342 -1.8667 0
-0.30824 -1.8294 0
-0.26375 -1.8141 0
0.53707 -1.8696 0
0.53144 -1.8711 0
0.54199 -1.8682 0
0.5117 -1.8691 0
0.51447 -1.8686 0
-0.49694 -1.8799 0
-0.41089 -1.8633 0
0.54867 -1.866 0
-0.35833 -1.8476 0
0.55946 -1.8632 0
-0.44124 -1.8726 0
-0.3785 -1.8543 0
-0.2998 -1.8287 0
-0.33038 -1.8393 0
-0.42869 -1.8701 0
0.82095 -1.8139 0
0.53572 -1.8777 0
0.60753 -1.8505 0
-0.44565 -1.8756 0
-0.3519 -1.8477 0
-0.48907 -1.8806 0
-0.29113 -1.8276 0
-0.40261 -1.864 0
-0.37108 -1.8542 0
-0.32302 -1.8388 0
0.54283 -1.8641 0
-0.43709 -1.8743 0
-0.25278 -1.8146 0
-0.17173 -1.7834 0
-0.18299 -1.7881 0
-0.3453 -1.8473 0
0.51568 -1.8765 0
0.53674 -1.864 0
-0.36417 -1.8543 0
-0.28313 -1.8272 0
0.77719 -1.8164 0
-0.31554 -1.8383 0
-0.39412 -1.8637 0
0.56431 -1.8571 0
-0.19841 -1.7959 0
-0.45132 -1.8794 0
-0.42119 -1.8723 0
-0.33788 -1.8469 0
-0.27488 -1.8252 0
0.5301 -1.8645 0
-0.13673 -1.7719 0
0.50457 -1.8765 0
0.58669 -1.8505 0
0.55315 -1.8586 0
-0.35839 -1.8544 0
-0.38589 -1.863 0
0.5235 -1.8658 0
-0.30779 -1.838 0
-0.44029 -1.8796 0
-0.43104 -1.8771 0
0.51531 -1.8672 0
0.55955 -1.8555 0
-0.33065 -1.8467 0
-0.37835 -1.862 0
-0.21988 -1.8074 0
0.49398 -1.8764 0
0.50586 -1.8689 0
-0.35244 -1.8542 0
0.54454 -1.858 0
-0.4113 -1.8739 0
-0.26548 -1.8252 0
0.73764 -1.8183 0
-0.29947 -1.8372 0
-0.37099 -1.8615 0
-0.24054 -1.8168 0
0.0051398 -1.6844 0
0.56914 -1.8509 0
-0.15502 -1.7839 0
-0.32303 -1.8465 0
-0.43514 -1.8815 0
0.49062 -1.8654 0
-0.34535 -1.8542 0
0.5369 -1.8579 0
0.48711 -1.8774 0
-0.36457 -1.8608 0
-0.29136 -1.837 0
0.56118 -1.851 0
-0.18451 -1.7975 0
1.0553 -1.7835 0
-0.40252 -1.8733 0
0.52936 -1.858 0
-0.31538 -1.8462 0
0.48536 -1.8665 0
-0.35875 -1.8606 0
-0.33815 -1.8544 0
-0.25559 -1.8258 0
0.55321 -1.8511 0
0.46028 -1.8783 0
-0.28324 -1.8363 0
0.52157 -1.8583 0
-0.4579 -1.8875 0
0.70159 -1.8196 0
0.47743 -1.8669 0
-0.3933 -1.8734 0
-0.42639 -1.8828 0
-0.30772 -1.8462 0
-0.37791 -1.8692 0
-0.38519 -1.8711 0
-0.33046 -1.8541 0
0.54525 -1.8511 0
-0.35321 -1.862 0
0.5137 -1.8584 0
-0.27535 -1.8357 0
-0.1713 -1.7965 0
-0.43845 -1.8863 0
-0.37117 -1.8682 0
0.50578 -1.859 0
0.47026 -1.8669 0
0.46085 -1.8779 0
0.53725 -1.8511 0
-0.3651 -1.8673 0
-0.29977 -1.8461 0
-0.35994 -1.866 0
-0.32289 -1.8542 0
-0.34573 -1.8625 0
-0.24579 -1.8278 0
-0.26679 -1.8355 0
-0.43204 -1.8807 0
0.4977 -1.8592 0
0.52918 -1.8511 0
0.46209 -1.8667 0
-0.20206 -1.8121 0
0.66651 -1.8203 0
-0.29164 -1.8457 0
-0.31519 -1.8542 0
-0.33829 -1.8619 0
-0.22684 -1.8228 0
1.0148 -1.777 0
-0.078574 -1.7661 0
-0.37668 -1.8746 0
-0.1569 -1.7957 0
-0.041393 -1.7172 0
0.5213 -1.8511 0
0.48932 -1.8591 0
0.4564 -1.8657 0
0.6362 -1.8244 0
-0.25836 -1.8355 0
-0.28386 -1.8454 0
-0.4218 -1.8851 0
0.56272 -1.8394 0
-0.33063 -1.862 0
-0.30734 -1.8541 0
0.51327 -1.8511 0
0.61026 -1.8285 0
0.57303 -1.8367 0
0.48129 -1.8587 0
-0.34772 -1.8689 0
-0.18516 -1.8098 0
-0.37204 -1.8761 0
0.4485 -1.8654 0
0.58922 -1.8323 0
0.5543 -1.8404 0
-0.38276 -1.88 0
0.44975 -1.8653 0
-0.35542 -1.8729 0
-0.27586 -1.8451 0
0.50524 -1.8511 0
0.54578 -1.8411 0
-0.32316 -1.8619 0
0.47331 -1.8591 0
-0.23692 -1.8316 0
-0.14061 -1.7936 0
-0.29944 -1.8538 0
0.45328 -1.87 0
-0.24966 -1.8369 0
-0.34426 -1.8691 0
0.53742 -1.842 0
0.029468 -1.685 0
0.43093 -1.87 0
0.96954 -1.7742 0
-0.40491 -1.8858 0
0.49721 -1.851 0
0.46532 -1.859 0
-0.015111 -1.7082 0
-0.31547 -1.8615 0
-0.26792 -1.8449 0
-0.21118 -1.8243 0
-0.17137 -1.8089 0
-0.29189 -1.854 0
0.52919 -1.8419 0
-0.33672 -1.8701 0
0.48924 -1.851 0
0.4265 -1.871 0
0.457 -1.8589 0
-0.30832 -1.8615 0
-0.25978 -1.8451 0
-0.24233 -1.8387 0
0.52062 -1.8418 0
-0.32939 -1.8694 0
-0.28402 -1.854 0
0.48135 -1.8512 0
0.56331 -1.8312 0
0.45037 -1.8591 0
0.51232 -1.8422 0
0.92088 -1.7724 0
-0.37451 -1.8827 0
0.41543 -1.8714 0
-0.30116 -1.8619 0
-0.32228 -1.8691 0
-0.15811 -1.809 0
0.47369 -1.8509 0
-0.23233 -1.8379 0
-0.38084 -1.8826 0
0.44206 -1.8599 0
-0.22372 -1.8348 0
-0.25189 -1.8452 0
-0.27629 -1.8539 0
-0.39554 -1.8854 0
0.4904 -1.8462 0
0.50389 -1.8427 0
-0.10501 -1.7878 0
-0.23731 -1.841 0
0.55617 -1.8293 0
0.49591 -1.8438 0
1.1436 -1.7599 0
-0.31679 -1.8696 0
0.43256 -1.8599 0
-0.20292 -1.8286 0
0.54648 -1.8311 0
-0.36322 -1.883 0
0.4654 -1.851 0
0.53781 -1.8329 0
-0.19357 -1.8254 0
-0.29228 -1.8615 0
-0.18198 -1.821 0
0.57096 -1.8245 0
-0.26834 -1.8539 0
0.39999 -1.869 0
0.42593 -1.8607 0
-0.24411 -1.8459 0
0.38807 -1.8746 0
-0.21311 -1.8345 0
-0.35193 -1.8791 0
-0.1244 -1.7992 0
0.45771 -1.8511 0
0.48543 -1.8437 0
0.82296 -1.7783 0
-0.14456 -1.8082 0
0.77974 -1.7839 0
-0.30772 -1.8703 0
0.52969 -1.8322 0
0.87068 -1.772 0
0.0058766 -1.7061 0
-0.28522 -1.8613 0
-0.26028 -1.8537 0
0.41676 -1.8607 0
-0.34425 -1.8798 0
-0.17033 -1.8204 0
0.44991 -1.8511 0
-0.23746 -1.8465 0
0.74229 -1.7871 0
-0.29327 -1.8682 0
-0.30713 -1.8709 0
-0.32869 -1.8791 0
-0.27745 -1.8614 0
0.4777 -1.8422 0
0.58684 -1.8158 0
0.52023 -1.8312 0
-0.23039 -1.8455 0
-0.20384 -1.8357 0
-0.25222 -1.8538 0
0.44191 -1.8509 0
0.5114 -1.833 0
0.40835 -1.8599 0
0.39096 -1.8655 0
0.53853 -1.8253 0
0.36525 -1.8725 0
0.3656 -1.8745 0
-0.22227 -1.8443 0
-0.18689 -1.8307 0
-0.29153 -1.8699 0
0.50234 -1.8334 0
1.1002 -1.7521 0
-0.26973 -1.8616 0
0.49157 -1.8358 0
0.43435 -1.8512 0
-0.13312 -1.8098 0
0.35984 -1.8761 0
0.46945 -1.841 0
0.60786 -1.8081 0
-0.24463 -1.8539 0
-0.19505 -1.8356 0
-0.17947 -1.8297 0
0.4008 -1.8594 0
0.70579 -1.7886 0
0.37248 -1.8688 0
0.54634 -1.821 0
0.38062 -1.8654 0
-0.40497 -1.8769 0
0.42621 -1.851 0
-0.15736 -1.8221 0
0.34769 -1.8715 0
0.38652 -1.8626 0
-0.26142 -1.862 0
-0.2132 -1.8442 0
-0.28235 -1.8712 0
-0.23641 -1.8537 0
-0.11776 -1.8068 0
0.45985 -1.8405 0
0.5609 -1.815 0
0.53186 -1.8218 0
0.63365 -1.7992 0
0.36897 -1.8803 0
-0.36318 -1.8821 0
-0.17054 -1.8294 0
0.41826 -1.8511 0
0.39358 -1.8584 0
0.45158 -1.8418 0
0.48209 -1.8335 0
-0.14575 -1.8198 0
-0.27132 -1.8695 0
-0.10607 -1.8034 0