# vtk DataFile Version 3.0 
vtk output 
ASCII 
DATASET UNSTRUCTURED_GRID 
POINTS 441 float 
3.000000 -3.000000 0.000000 
2.700000 -3.000000 0.000000 
3.000000 -2.700000 0.000000 
2.700000 -2.700000 0.000000 
3.000000 -2.400000 0.000000 
2.400000 -3.000000 0.000000 
2.700000 -2.400000 0.000000 
2.400000 -2.700000 0.000000 
2.400000 -2.400000 0.000000 
2.100000 -3.000000 0.000000 
3.000000 -2.100000 0.000000 
2.700000 -2.100000 0.000000 
2.100000 -2.700000 0.000000 
2.400000 -2.100000 0.000000 
2.100000 -2.400000 0.000000 
3.000000 -1.800000 0.000000 
1.800000 -3.000000 0.000000 
2.700000 -1.800000 0.000000 
1.800000 -2.700000 0.000000 
2.100000 -2.100000 0.000000 
2.400000 -1.800000 0.000000 
1.800000 -2.400000 0.000000 
2.100000 -1.800000 0.000000 
3.000000 -1.500000 0.000000 
1.500000 -3.000000 0.000000 
1.800000 -2.100000 0.000000 
1.500000 -2.700000 0.000000 
2.700000 -1.500000 0.000000 
1.500000 -2.400000 0.000000 
2.400000 -1.500000 0.000000 
1.800000 -1.800000 0.000000 
1.500000 -2.100000 0.000000 
2.100000 -1.500000 0.000000 
1.200000 -3.000000 0.000000 
3.000000 -1.200000 0.000000 
1.200000 -2.700000 0.000000 
2.700000 -1.200000 0.000000 
1.200000 -2.400000 0.000000 
2.400000 -1.200000 0.000000 
1.500000 -1.800000 0.000000 
1.800000 -1.500000 0.000000 
1.200000 -2.100000 0.000000 
2.100000 -1.200000 0.000000 
3.000000 -0.900000 0.000000 
0.900000 -3.000000 0.000000 
2.700000 -0.900000 0.000000 
0.900000 -2.700000 0.000000 
1.500000 -1.500000 0.000000 
1.200000 -1.800000 0.000000 
1.800000 -1.200000 0.000000 
2.400000 -0.900000 0.000000 
0.900000 -2.400000 0.000000 
0.900000 -2.100000 0.000000 
2.100000 -0.900000 0.000000 
1.500000 -1.200000 0.000000 
1.200000 -1.500000 0.000000 
3.000000 -0.600000 0.000000 
0.600000 -3.000000 0.000000 
1.800000 -0.900000 0.000000 
0.900000 -1.800000 0.000000 
0.600000 -2.700000 0.000000 
2.700000 -0.600000 0.000000 
0.600000 -2.400000 0.000000 
2.400000 -0.600000 0.000000 
1.200000 -1.200000 0.000000 
0.600000 -2.100000 0.000000 
2.100000 -0.600000 0.000000 
1.500000 -0.900000 0.000000 
0.900000 -1.500000 0.000000 
0.600000 -1.800000 0.000000 
1.800000 -0.600000 0.000000 
3.000000 -0.300000 0.000000 
0.300000 -3.000000 0.000000 
2.700000 -0.300000 0.000000 
0.300000 -2.700000 0.000000 
2.400000 -0.300000 0.000000 
1.200000 -0.900000 0.000000 
0.900000 -1.200000 0.000000 
0.300000 -2.400000 0.000000 
1.500000 -0.600000 0.000000 
0.600000 -1.500000 0.000000 
2.100000 -0.300000 0.000000 
0.300000 -2.100000 0.000000 
1.800000 -0.300000 0.000000 
0.300000 -1.800000 0.000000 
0.900000 -0.900000 0.000000 
3.000000 0.000000 0.000000 
0.000000 -3.000000 0.000000 
1.200000 -0.600000 0.000000 
0.600000 -1.200000 0.000000 
2.700000 0.000000 0.000000 
0.000000 -2.700000 0.000000 
2.400000 0.000000 0.000000 
0.000000 -2.400000 0.000000 
1.500000 -0.300000 0.000000 
0.300000 -1.500000 0.000000 
2.100000 0.000000 0.000000 
0.000000 -2.100000 0.000000 
0.600000 -0.900000 0.000000 
0.900000 -0.600000 0.000000 
1.800000 0.000000 0.000000 
0.000000 -1.800000 0.000000 
1.200000 -0.300000 0.000000 
0.300000 -1.200000 0.000000 
3.000000 0.300000 0.000000 
-0.300000 -3.000000 0.000000 
2.700000 0.300000 0.000000 
-0.300000 -2.700000 0.000000 
2.400000 0.300000 0.000000 
1.500000 0.000000 0.000000 
0.000000 -1.500000 0.000000 
-0.300000 -2.400000 0.000000 
0.600000 -0.600000 0.000000 
2.100000 0.300000 0.000000 
0.900000 -0.300000 0.000000 
0.300000 -0.900000 0.000000 
-0.300000 -2.100000 0.000000 
1.200000 0.000000 0.000000 
0.000000 -1.200000 0.000000 
1.800000 0.300000 0.000000 
-0.300000 -1.800000 0.000000 
3.000000 0.600000 0.000000 
-0.600000 -3.000000 0.000000 
2.700000 0.600000 0.000000 
-0.600000 -2.700000 0.000000 
0.600000 -0.300000 0.000000 
0.300000 -0.600000 0.000000 
1.500000 0.300000 0.000000 
-0.300000 -1.500000 0.000000 
-0.600000 -2.400000 0.000000 
2.400000 0.600000 0.000000 
0.900000 0.000000 0.000000 
0.000000 -0.900000 0.000000 
-0.600000 -2.100000 0.000000 
2.100000 0.600000 0.000000 
1.200000 0.300000 0.000000 
-0.300000 -1.200000 0.000000 
1.800000 0.600000 0.000000 
-0.600000 -1.800000 0.000000 
0.300000 -0.300000 0.000000 
0.600000 0.000000 0.000000 
0.000000 -0.600000 0.000000 
1.500000 0.600000 0.000000 
-0.600000 -1.500000 0.000000 
3.000000 0.900000 0.000000 
-0.900000 -3.000000 0.000000 
-0.900000 -2.700000 0.000000 
0.900000 0.300000 0.000000 
-0.300000 -0.900000 0.000000 
2.700000 0.900000 0.000000 
2.400000 0.900000 0.000000 
-0.900000 -2.400000 0.000000 
-0.900000 -2.100000 0.000000 
2.100000 0.900000 0.000000 
-0.600000 -1.200000 0.000000 
1.200000 0.600000 0.000000 
0.300000 0.000000 0.000000 
0.000000 -0.300000 0.000000 
0.600000 0.300000 0.000000 
1.800000 0.900000 0.000000 
-0.900000 -1.800000 0.000000 
-0.300000 -0.600000 0.000000 
-0.600000 -0.900000 0.000000 
0.900000 0.600000 0.000000 
1.500000 0.900000 0.000000 
-0.900000 -1.500000 0.000000 
-1.200000 -3.000000 0.000000 
3.000000 1.200000 0.000000 
-1.200000 -2.700000 0.000000 
2.700000 1.200000 0.000000 
-1.200000 -2.400000 0.000000 
2.400000 1.200000 0.000000 
0.000000 0.000000 0.000000 
0.300000 0.300000 0.000000 
-0.300000 -0.300000 0.000000 
-1.200000 -2.100000 0.000000 
2.100000 1.200000 0.000000 
1.200000 0.900000 0.000000 
-0.900000 -1.200000 0.000000 
-0.600000 -0.600000 0.000000 
0.600000 0.600000 0.000000 
1.800000 1.200000 0.000000 
-1.200000 -1.800000 0.000000 
-0.900000 -0.900000 0.000000 
0.900000 0.900000 0.000000 
-1.200000 -1.500000 0.000000 
1.500000 1.200000 0.000000 
0.000000 0.300000 0.000000 
-0.300000 0.000000 0.000000 
0.300000 0.600000 0.000000 
-0.600000 -0.300000 0.000000 
3.000000 1.500000 0.000000 
-1.500000 -3.000000 0.000000 
2.700000 1.500000 0.000000 
-1.500000 -2.700000 0.000000 
-1.500000 -2.400000 0.000000 
2.400000 1.500000 0.000000 
-1.200000 -1.200000 0.000000 
1.200000 1.200000 0.000000 
0.600000 0.900000 0.000000 
-0.900000 -0.600000 0.000000 
-1.500000 -2.100000 0.000000 
2.100000 1.500000 0.000000 
-1.500000 -1.800000 0.000000 
1.800000 1.500000 0.000000 
-0.300000 0.300000 0.000000 
0.000000 0.600000 0.000000 
-0.600000 0.000000 0.000000 
-1.200000 -0.900000 0.000000 
0.900000 1.200000 0.000000 
-1.500000 -1.500000 0.000000 
1.500000 1.500000 0.000000 
0.300000 0.900000 0.000000 
-0.900000 -0.300000 0.000000 
3.000000 1.800000 0.000000 
-1.800000 -3.000000 0.000000 
2.700000 1.800000 0.000000 
-1.800000 -2.700000 0.000000 
2.400000 1.800000 0.000000 
-1.200000 -0.600000 0.000000 
0.600000 1.200000 0.000000 
-1.800000 -2.400000 0.000000 
1.200000 1.500000 0.000000 
-1.500000 -1.200000 0.000000 
2.100000 1.800000 0.000000 
-0.300000 0.600000 0.000000 
-0.600000 0.300000 0.000000 
-1.800000 -2.100000 0.000000 
0.000000 0.900000 0.000000 
-0.900000 0.000000 0.000000 
1.800000 1.800000 0.000000 
-1.800000 -1.800000 0.000000 
0.900000 1.500000 0.000000 
-1.500000 -0.900000 0.000000 
-1.200000 -0.300000 0.000000 
0.300000 1.200000 0.000000 
1.500000 1.800000 0.000000 
-1.800000 -1.500000 0.000000 
-0.600000 0.600000 0.000000 
-1.500000 -0.600000 0.000000 
3.000000 2.100000 0.000000 
-2.100000 -3.000000 0.000000 
0.600000 1.500000 0.000000 
2.700000 2.100000 0.000000 
-0.300000 0.900000 0.000000 
-0.900000 0.300000 0.000000 
-2.100000 -2.700000 0.000000 
1.200000 1.800000 0.000000 
-1.800000 -1.200000 0.000000 
2.400000 2.100000 0.000000 
-2.100000 -2.400000 0.000000 
0.000000 1.200000 0.000000 
-1.200000 0.000000 0.000000 
2.100000 2.100000 0.000000 
-2.100000 -2.100000 0.000000 
-2.100000 -1.800000 0.000000 
1.800000 2.100000 0.000000 
0.900000 1.800000 0.000000 
-1.800000 -0.900000 0.000000 
-1.500000 -0.300000 0.000000 
0.300000 1.500000 0.000000 
-0.600000 0.900000 0.000000 
-0.900000 0.600000 0.000000 
1.500000 2.100000 0.000000 
-2.100000 -1.500000 0.000000 
-1.200000 0.300000 0.000000 
-0.300000 1.200000 0.000000 
0.600000 1.800000 0.000000 
-1.800000 -0.600000 0.000000 
3.000000 2.400000 0.000000 
-2.400000 -3.000000 0.000000 
-2.100000 -1.200000 0.000000 
-2.400000 -2.700000 0.000000 
-1.500000 0.000000 0.000000 
1.200000 2.100000 0.000000 
0.000000 1.500000 0.000000 
2.700000 2.400000 0.000000 
2.400000 2.400000 0.000000 
-2.400000 -2.400000 0.000000 
-2.400000 -2.100000 0.000000 
2.100000 2.400000 0.000000 
-1.800000 -0.300000 0.000000 
0.300000 1.800000 0.000000 
0.900000 2.100000 0.000000 
-2.100000 -0.900000 0.000000 
-0.900000 0.900000 0.000000 
-1.200000 0.600000 0.000000 
-0.600000 1.200000 0.000000 
1.800000 2.400000 0.000000 
-2.400000 -1.800000 0.000000 
-1.500000 0.300000 0.000000 
-0.300000 1.500000 0.000000 
1.500000 2.400000 0.000000 
-2.400000 -1.500000 0.000000 
0.600000 2.100000 0.000000 
-2.100000 -0.600000 0.000000 
-1.800000 0.000000 0.000000 
0.000000 1.800000 0.000000 
1.200000 2.400000 0.000000 
-2.400000 -1.200000 0.000000 
-2.700000 -3.000000 0.000000 
3.000000 2.700000 0.000000 
2.700000 2.700000 0.000000 
-2.700000 -2.700000 0.000000 
2.400000 2.700000 0.000000 
-0.900000 1.200000 0.000000 
-2.700000 -2.400000 0.000000 
-1.200000 0.900000 0.000000 
-0.600000 1.500000 0.000000 
-1.500000 0.600000 0.000000 
2.100000 2.700000 0.000000 
0.300000 2.100000 0.000000 
-2.100000 -0.300000 0.000000 
-2.700000 -2.100000 0.000000 
-2.400000 -0.900000 0.000000 
0.900000 2.400000 0.000000 
1.800000 2.700000 0.000000 
-2.700000 -1.800000 0.000000 
-0.300000 1.800000 0.000000 
-1.800000 0.300000 0.000000 
1.500000 2.700000 0.000000 
-2.700000 -1.500000 0.000000 
-2.400000 -0.600000 0.000000 
0.600000 2.400000 0.000000 
0.000000 2.100000 0.000000 
-2.100000 0.000000 0.000000 
-1.200000 1.200000 0.000000 
-1.500000 0.900000 0.000000 
-0.900000 1.500000 0.000000 
1.200000 2.700000 0.000000 
-2.700000 -1.200000 0.000000 
-3.000000 -3.000000 0.000000 
3.000000 3.000000 0.000000 
-0.600000 1.800000 0.000000 
-1.800000 0.600000 0.000000 
-3.000000 -2.700000 0.000000 
2.700000 3.000000 0.000000 
-3.000000 -2.400000 0.000000 
2.400000 3.000000 0.000000 
0.300000 2.400000 0.000000 
-2.400000 -0.300000 0.000000 
-3.000000 -2.100000 0.000000 
[...]
POINT_DATA 441 
VECTORS X_GC float 
3.000000 -3.000000 0.000000 
2.700000 -3.000000 0.000000 
3.000000 -2.700000 0.000000 
2.700000 -2.700000 0.000000 
3.000000 -2.400000 0.000000 
2.400000 -3.000000 0.000000 
2.700000 -2.400000 0.000000 
2.400000 -2.700000 0.000000 
2.400000 -2.400000 0.000000 
2.100000 -3.000000 0.000000 
3.000000 -2.100000 0.000000 
2.700000 -2.100000 0.000000 
2.100000 -2.700000 0.000000 
2.400000 -2.100000 0.000000 
2.100000 -2.400000 0.000000 
3.000000 -1.800000 0.000000 
1.800000 -3.000000 0.000000 
2.700000 -1.800000 0.000000 
1.800000 -2.700000 0.000000 
2.100000 -2.100000 0.000000 
2.400000 -1.800000 0.000000 
1.800000 -2.400000 0.000000 
2.100000 -1.800000 0.000000 
3.000000 -1.500000 0.000000 
1.500000 -3.000000 0.000000 
1.800000 -2.100000 0.000000 
1.500000 -2.700000 0.000000 
2.700000 -1.500000 0.000000 
1.500000 -2.400000 0.000000 
2.400000 -1.500000 0.000000 
1.800000 -1.800000 0.000000 
1.500000 -2.100000 0.000000 
2.100000 -1.500000 0.000000 
1.200000 -3.000000 0.000000 
3.000000 -1.200000 0.000000 
1.200000 -2.700000 0.000000 
2.700000 -1.200000 0.000000 
1.200000 -2.400000 0.000000 
2.400000 -1.200000 0.000000 
1.500000 -1.800000 0.000000 
1.800000 -1.500000 0.000000 
1.200000 -2.100000 0.000000 
2.100000 -1.200000 0.000000 
3.000000 -0.900000 0.000000 
0.900000 -3.000000 0.000000 
2.700000 -0.900000 0.000000 
0.900000 -2.700000 0.000000 
1.500000 -1.500000 0.000000 
1.200000 -1.800000 0.000000 
1.800000 -1.200000 0.000000 
2.400000 -0.900000 0.000000 
0.900000 -2.400000 0.000000 
0.900000 -2.100000 0.000000 
2.100000 -0.900000 0.000000 
1.500000 -1.200000 0.000000 
1.200000 -1.500000 0.000000 
3.000000 -0.600000 0.000000 
0.600000 -3.000000 0.000000 
1.800000 -0.900000 0.000000 
0.900000 -1.800000 0.000000 
0.600000 -2.700000 0.000000 
2.700000 -0.600000 0.000000 
0.600000 -2.400000 0.000000 
2.400000 -0.600000 0.000000 
1.200000 -1.200000 0.000000 
0.600000 -2.100000 0.000000 
2.100000 -0.600000 0.000000 
1.500000 -0.900000 0.000000 
0.900000 -1.500000 0.000000 
0.600000 -1.800000 0.000000 
1.800000 -0.600000 0.000000 
3.000000 -0.300000 0.000000 
0.300000 -3.000000 0.000000 
2.700000 -0.300000 0.000000 
0.300000 -2.700000 0.000000 
2.400000 -0.300000 0.000000 
1.200000 -0.900000 0.000000 
0.900000 -1.200000 0.000000 
0.300000 -2.400000 0.000000 
1.500000 -0.600000 0.000000 
0.600000 -1.500000 0.000000 
2.100000 -0.300000 0.000000 
0.300000 -2.100000 0.000000 
1.800000 -0.300000 0.000000 
0.300000 -1.800000 0.000000 
0.900000 -0.900000 0.000000 
3.000000 0.000000 0.000000 
0.000000 -3.000000 0.000000 
1.200000 -0.600000 0.000000 
0.600000 -1.200000 0.000000 
2.700000 0.000000 0.000000 
0.000000 -2.700000 0.000000 
2.400000 0.000000 0.000000 
0.000000 -2.400000 0.000000 
1.500000 -0.300000 0.000000 
0.300000 -1.500000 0.000000 
2.100000 0.000000 0.000000 
0.000000 -2.100000 0.000000 
0.600000 -0.900000 0.000000 
0.900000 -0.600000 0.000000 
1.800000 0.000000 0.000000 
0.000000 -1.800000 0.000000 
1.200000 -0.300000 0.000000 
0.300000 -1.200000 0.000000 
3.000000 0.300000 0.000000 
-0.300000 -3.000000 0.000000 
2.700000 0.300000 0.000000 
-0.300000 -2.700000 0.000000 
2.400000 0.300000 0.000000 
1.500000 0.000000 0.000000 
0.000000 -1.500000 0.000000 
-0.300000 -2.400000 0.000000 
0.600000 -0.600000 0.000000 
2.100000 0.300000 0.000000 
0.900000 -0.300000 0.000000 
0.300000 -0.900000 0.000000 
-0.300000 -2.100000 0.000000 
1.200000 0.000000 0.000000 
0.000000 -1.200000 0.000000 
1.800000 0.300000 0.000000 
-0.300000 -1.800000 0.000000 
3.000000 0.600000 0.000000 
-0.600000 -3.000000 0.000000 
2.700000 0.600000 0.000000 
-0.600000 -2.700000 0.000000 
0.600000 -0.300000 0.000000 
0.300000 -0.600000 0.000000 
1.500000 0.300000 0.000000 
-0.300000 -1.500000 0.000000 
-0.600000 -2.400000 0.000000 
2.400000 0.600000 0.000000 
0.900000 0.000000 0.000000 
0.000000 -0.900000 0.000000 
-0.600000 -2.100000 0.000000 
2.100000 0.600000 0.000000 
1.200000 0.300000 0.000000 
-0.300000 -1.200000 0.000000 
1.800000 0.600000 0.000000 
-0.600000 -1.800000 0.000000 
0.300000 -0.300000 0.000000 
0.600000 0.000000 0.000000 
0.000000 -0.600000 0.000000 
1.500000 0.600000 0.000000 
-0.600000 -1.500000 0.000000 
3.000000 0.900000 0.000000 
-0.900000 -3.000000 0.000000 
-0.900000 -2.700000 0.000000 
0.900000 0.300000 0.000000 
-0.300000 -0.900000 0.000000 
2.700000 0.900000 0.000000 
2.400000 0.900000 0.000000 
-0.900000 -2.400000 0.000000 
-0.900000 -2.100000 0.000000 
2.100000 0.900000 0.000000 
-0.600000 -1.200000 0.000000 
1.200000 0.600000 0.000000 
0.300000 0.000000 0.000000 
0.000000 -0.300000 0.000000 
0.600000 0.300000 0.000000 
1.800000 0.900000 0.000000 
-0.900000 -1.800000 0.000000 
-0.300000 -0.600000 0.000000 
-0.600000 -0.900000 0.000000 
0.900000 0.600000 0.000000 
1.500000 0.900000 0.000000 
-0.900000 -1.500000 0.000000 
-1.200000 -3.000000 0.000000 
3.000000 1.200000 0.000000 
-1.200000 -2.700000 0.000000 
2.700000 1.200000 0.000000 
-1.200000 -2.400000 0.000000 
2.400000 1.200000 0.000000 
0.000000 0.000000 0.000000 
0.300000 0.300000 0.000000 
-0.300000 -0.300000 0.000000 
-1.200000 -2.100000 0.000000 
2.100000 1.200000 0.000000 
1.200000 0.900000 0.000000 
-0.900000 -1.200000 0.000000 
-0.600000 -0.600000 0.000000 
0.600000 0.600000 0.000000 
1.800000 1.200000 0.000000 
-1.200000 -1.800000 0.000000 
-0.900000 -0.900000 0.000000 
0.900000 0.900000 0.000000 
-1.200000 -1.500000 0.000000 
1.500000 1.200000 0.000000 
0.000000 0.300000 0.000000 
-0.300000 0.000000 0.000000 
0.300000 0.600000 0.000000 
-0.600000 -0.300000 0.000000 
3.000000 1.500000 0.000000 
-1.500000 -3.000000 0.000000 
2.700000 1.500000 0.000000 
-1.500000 -2.700000 0.000000 
-1.500000 -2.400000 0.000000 
2.400000 1.500000 0.000000 
-1.200000 -1.200000 0.000000 
1.200000 1.200000 0.000000 
0.600000 0.900000 0.000000 
-0.900000 -0.600000 0.000000 
-1.500000 -2.100000 0.000000 
2.100000 1.500000 0.000000 
-1.500000 -1.800000 0.000000 
1.800000 1.500000 0.000000 
-0.300000 0.300000 0.000000 
0.000000 0.600000 0.000000 
-0.600000 0.000000 0.000000 
-1.200000 -0.900000 0.000000 
0.900000 1.200000 0.000000 
-1.500000 -1.500000 0.000000 
1.500000 1.500000 0.000000 
0.300000 0.900000 0.000000 
-0.900000 -0.300000 0.000000 
3.000000 1.800000 0.000000 
-1.800000 -3.000000 0.000000 
2.700000 1.800000 0.000000 
-1.800000 -2.700000 0.000000 
2.400000 1.800000 0.000000 
-1.200000 -0.600000 0.000000 
0.600000 1.200000 0.000000 
-1.800000 -2.400000 0.000000 
1.200000 1.500000 0.000000 
-1.500000 -1.200000 0.000000 
2.100000 1.800000 0.000000 
-0.300000 0.600000 0.000000 
-0.600000 0.300000 0.000000 
-1.800000 -2.100000 0.000000 
0.000000 0.900000 0.000000 
-0.900000 0.000000 0.000000 
1.800000 1.800000 0.000000 
-1.800000 -1.800000 0.000000 
0.900000 1.500000 0.000000 
-1.500000 -0.900000 0.000000 
-1.200000 -0.300000 0.000000 
0.300000 1.200000 0.000000 
1.500000 1.800000 0.000000 
-1.800000 -1.500000 0.000000 
-0.600000 0.600000 0.000000 
-1.500000 -0.600000 0.000000 
3.000000 2.100000 0.000000 
-2.100000 -3.000000 0.000000 
0.600000 1.500000 0.000000 
2.700000 2.100000 0.000000 
-0.300000 0.900000 0.000000 
-0.900000 0.300000 0.000000 
-2.100000 -2.700000 0.000000 
1.200000 1.800000 0.000000 
-1.800000 -1.200000 0.000000 
2.400000 2.100000 0.000000 
-2.100000 -2.400000 0.000000 
0.000000 1.200000 0.000000 
-1.200000 0.000000 0.000000 
2.100000 2.100000 0.000000 
-2.100000 -2.100000 0.000000 
-2.100000 -1.800000 0.000000 
1.800000 2.100000 0.000000 
0.900000 1.800000 0.000000 
-1.800000 -0.900000 0.000000 
-1.500000 -0.300000 0.000000 
0.300000 1.500000 0.000000 
-0.600000 0.900000 0.000000 
-0.900000 0.600000 0.000000 
1.500000 2.100000 0.000000 
-2.100000 -1.500000 0.000000 
-1.200000 0.300000 0.000000 
-0.300000 1.200000 0.000000 
0.600000 1.800000 0.000000 
-1.800000 -0.600000 0.000000 
3.000000 2.400000 0.000000 
-2.400000 -3.000000 0.000000 
-2.100000 -1.200000 0.000000 
-2.400000 -2.700000 0.000000 
-1.500000 0.000000 0.000000 
1.200000 2.100000 0.000000 
0.000000 1.500000 0.000000 
2.700000 2.400000 0.000000 
2.400000 2.400000 0.000000 
-2.400000 -2.400000 0.000000 
-2.400000 -2.100000 0.000000 
2.100000 2.400000 0.000000 
-1.800000 -0.300000 0.000000 
0.300000 1.800000 0.000000 
0.900000 2.100000 0.000000 
-2.100000 -0.900000 0.000000 
-0.900000 0.900000 0.000000 
-1.200000 0.600000 0.000000 
-0.600000 1.200000 0.000000 
1.800000 2.400000 0.000000 
-2.400000 -1.800000 0.000000 
-1.500000 0.300000 0.000000 
-0.300000 1.500000 0.000000 
1.500000 2.400000 0.000000 
-2.400000 -1.500000 0.000000 
0.600000 2.100000 0.000000 
-2.100000 -0.600000 0.000000 
-1.800000 0.000000 0.000000 
0.000000 1.800000 0.000000 
1.200000 2.400000 0.000000 
-2.400000 -1.200000 0.000000 
-2.700000 -3.000000 0.000000 
3.000000 2.700000 0.000000 
2.700000 2.700000 0.000000 
-2.700000 -2.700000 0.000000 
2.400000 2.700000 0.000000 
-0.900000 1.200000 0.000000 
-2.700000 -2.400000 0.000000 
-1.200000 0.900000 0.000000 
-0.600000 1.500000 0.000000 
-1.500000 0.600000 0.000000 
2.100000 2.700000 0.000000 
0.300000 2.100000 0.000000 
-2.100000 -0.300000 0.000000 
-2.700000 -2.100000 0.000000 
-2.400000 -0.900000 0.000000 
0.900000 2.400000 0.000000 
1.800000 2.700000 0.000000 
-2.700000 -1.800000 0.000000 
-0.300000 1.800000 0.000000 
-1.800000 0.300000 0.000000 
1.500000 2.700000 0.000000 
-2.700000 -1.500000 0.000000 
-2.400000 -0.600000 0.000000 
0.600000 2.400000 0.000000 
0.000000 2.100000 0.000000 
-2.100000 0.000000 0.000000 
-1.200000 1.200000 0.000000 
-1.500000 0.900000 0.000000 
-0.900000 1.500000 0.000000 
1.200000 2.700000 0.000000 
-2.700000 -1.200000 0.000000 
-3.000000 -3.000000 0.000000 
3.000000 3.000000 0.000000 
-0.600000 1.800000 0.000000 
-1.800000 0.600000 0.000000 
-3.000000 -2.700000 0.000000 
2.700000 3.000000 0.000000 
-3.000000 -2.400000 0.000000 
2.400000 3.000000 0.000000 
0.300000 2.400000 0.000000 
-2.400000 -0.300000 0.000000 
-3.000000 -2.100000 0.000000 
2.100000 3.000000 0.000000 
0.900000 2.700000 0.000000 
-2.700000 -0.900000 0.000000 
-0.300000 2.100000 0.000000 
-2.100000 0.300000 0.000000 
-3.000000 -1.800000 0.000000 
1.800000 3.000000 0.000000 
-1.500000 1.200000 0.000000 
-1.200000 1.500000 0.000000 
-2.400000 0.000000 0.000000 
0.000000 2.400000 0.000000 
-3.000000 -1.500000 0.000000 
1.500000 3.000000 0.000000 
0.600000 2.700000 0.000000 
-2.700000 -0.600000 0.000000 
-0.900000 1.800000 0.000000 
-1.800000 0.900000 0.000000 
-0.600000 2.100000 0.000000 
-2.100000 0.600000 0.000000 
-3.000000 -1.200000 0.000000 
1.200000 3.000000 0.000000 
0.300000 2.700000 0.000000 
-2.700000 -0.300000 0.000000 
-0.300000 2.400000 0.000000 
-2.400000 0.300000 0.000000 
-3.000000 -0.900000 0.000000 
0.900000 3.000000 0.000000 
-1.500000 1.500000 0.000000 
-1.800000 1.200000 0.000000 
-1.200000 1.800000 0.000000 
-0.900000 2.100000 0.000000 
-2.100000 0.900000 0.000000 
0.000000 2.700000 0.000000 
-2.700000 0.000000 0.000000 
-3.000000 -0.600000 0.000000 
0.600000 3.000000 0.000000 
-2.400000 0.600000 0.000000 
-0.600000 2.400000 0.000000 
-3.000000 -0.300000 0.000000 
0.300000 3.000000 0.000000 
-1.500000 1.800000 0.000000 
-1.800000 1.500000 0.000000 
-0.300000 2.700000 0.000000 
-2.700000 0.300000 0.000000 
-1.200000 2.100000 0.000000 
-2.100000 1.200000 0.000000 
-2.400000 0.900000 0.000000 
-0.900000 2.400000 0.000000 
-3.000000 0.000000 0.000000 
0.000000 3.000000 0.000000 
-0.600000 2.700000 0.000000 
-2.700000 0.600000 0.000000 
-1.800000 1.800000 0.000000 
-2.100000 1.500000 0.000000 
-1.500000 2.100000 0.000000 
-2.400000 1.200000 0.000000 
-1.200000 2.400000 0.000000 
-3.000000 0.300000 0.000000 
-0.300000 3.000000 0.000000 
-2.700000 0.900000 0.000000 
-0.900000 2.700000 0.000000 
-3.000000 0.600000 0.000000 
-0.600000 3.000000 0.000000 
-1.800000 2.100000 0.000000 
-2.100000 1.800000 0.000000 
-2.400000 1.500000 0.000000 
-1.500000 2.400000 0.000000 
-1.200000 2.700000 0.000000 
-2.700000 1.200000 0.000000 
-3.000000 0.900000 0.000000 
-0.900000 3.000000 0.000000 
-2.100000 2.100000 0.000000 
-2.400000 1.800000 0.000000 
-1.800000 2.400000 0.000000 
-1.500000 2.700000 0.000000 
-2.700000 1.500000 0.000000 
-3.000000 1.200000 0.000000 
-1.200000 3.000000 0.000000 
-2.400000 2.100000 0.000000 
-2.100000 2.400000 0.000000 
-1.800000 2.700000 0.000000 
-2.700000 1.800000 0.000000 
-3.000000 1.500000 0.000000 
-1.500000 3.000000 0.000000 
-2.400000 2.400000 0.000000 
-2.100000 2.700000 0.000000 
-2.700000 2.100000 0.000000 
-1.800000 3.000000 0.000000 
-3.000000 1.800000 0.000000 
-2.400000 2.700000 0.000000 
-2.700000 2.400000 0.000000 
-3.000000 2.100000 0.000000 
-2.100000 3.000000 0.000000 
-2.700000 2.700000 0.000000 
-3.000000 2.400000 0.000000 
-2.400000 3.000000 0.000000 
-3.000000 2.700000 0.000000 
-2.700000 3.000000 0.000000 
-3.000000 3.000000 0.000000 
VECTORS MOMENTUM float 
0.000000 0.000000 0.000000 
0.000000 0.000000 0.000000 
0.000000 0.000000 0.000000 
0.000000 0.000000 0.000000 
0.000000 0.000000 0.000000 
0.000000 0.000000 0.000000 
0.000000 0.000000 0.000000 
0.000000 0.000000 0.000000 
0.000000 0.000000 0.000000 
0.000000 0.000000 0.000000 
0.000000 0.000000 0.000000 
0.000000 0.000000 0.000000 
0.000000 0.000000 0.000000 
0.000000 0.000000 0.000000 
49.681312 -100.852128 0.000000 
0.000000 0.000000 0.000000 
0.000000 0.000000 0.000000 
0.000000 0.000000 0.000000 
0.000000 0.000000 0.000000 
-3052.798059 4930.648462 0.000000 
-4872.486257 1056.711706 0.000000 
144.895450 3.090831 0.000000 
5108.754955 -859.817381 0.000000 
0.000000 0.000000 0.000000 
0.000000 0.000000 0.000000 
4348.247517 3519.841855 0.000000 
-12.560391 10.893094 0.000000 
0.000000 0.000000 0.000000 
-7.145288 -24.227987 0.000000 
-9413.480138 -6821.789470 0.000000 
4086.572244 -1924.187508 0.000000 
0.000000 0.000000 0.000000 
3696.496408 91.165880 0.000000 
0.000000 0.000000 0.000000 
0.000000 0.000000 0.000000 
27.444987 38.529485 0.000000 
0.000000 0.000000 0.000000 
4.068268 -48.022567 0.000000 
2588.336178 27762.672487 0.000000 
0.000000 0.000000 0.000000 
607.160022 584.271363 0.000000 
0.000000 0.000000 0.000000 
32701.193115 83842.146811 0.000000 
0.000000 0.000000 0.000000 
0.000000 0.000000 0.000000 
3343.703729 16621.386861 0.000000 
0.000000 0.000000 0.000000 
-25619.206427 5118.582355 0.000000 
0.000000 0.000000 0.000000 
-4622.007990 -1875.027019 0.000000 
1317.632809 119506.947637 0.000000 
0.000000 0.000000 0.000000 
0.000000 0.000000 0.000000 
132437.227574 62955.991618 0.000000 
299.773629 15001.811666 0.000000 
7422.302895 -21777.402785 0.000000 
0.000000 0.000000 0.000000 
0.000000 0.000000 0.000000 
-892.742036 -4365.255570 0.000000 
0.000000 0.000000 0.000000 
0.000000 0.000000 0.000000 
-84789.645882 -78141.997213 0.000000 
0.000000 0.000000 0.000000 
-147581.480638 -236538.469584 0.000000 
-3068098.725084 -131600.156771 0.000000 
0.000000 0.000000 0.000000 
83371.709588 10423.881976 0.000000 
-4141.268448 169782.251639 0.000000 
-207402602.527319 -220254328.932590 0.000000 
0.000000 0.000000 0.000000 
29149.921425 5521.667447 0.000000 
0.000000 0.000000 0.000000 
0.000000 0.000000 0.000000 
-6882.245733 7607.926048 0.000000 
0.000000 0.000000 0.000000 
-17939.736584 91364.946771 0.000000 
-505075.248454 -387468.686810 0.000000 
-772733419.703347 -138860594.130651 0.000000 
0.000000 0.000000 0.000000 
-572574.990930 -333904.884283 0.000000 
-10546294520.490641 4608571491.280725 0.000000 
-181695.027571 454889.622822 0.000000 
0.000000 0.000000 0.000000 
-892392.728826 624386.314847 0.000000 
0.000000 0.000000 0.000000 
-18062217991.309376 -14921666605.809223 0.000000 
0.000000 0.000000 0.000000 
0.000000 0.000000 0.000000 
419815.219413 76324.023369 0.000000 
-19409328198.311600 3563166387.190825 0.000000 
-591.674344 -2510.337102 0.000000 
0.000000 0.000000 0.000000 
-22107.170548 -84694.781951 0.000000 
0.000000 0.000000 0.000000 
1511390.103502 1838333.061206 0.000000 
11830043067.861246 44298276932.988129 0.000000 
-408075.838678 -517418.995278 0.000000 
15521.956944 3898.489739 0.000000 
44640139683.627975 36661953253.203033 0.000000 
-10102067040.944012 -8872875411.794806 0.000000 
188.361605 -1059718.359452 0.000000 
-42326.052268 -35437.151204 0.000000 
-20781.647536 -111070.936031 0.000000 
160138749731913.781250 114746359548002.250000 0.000000 
0.000000 0.000000 0.000000 
0.000000 0.000000 0.000000 
0.000000 0.000000 0.000000 
-9.725371 20.956553 0.000000 
20.961550 -5.557327 0.000000 
-168524.858106 -1417804.297890 0.000000 
0.000000 0.000000 0.000000 
-70.638540 -38.010260 0.000000 
-9339247326.020124 -1495502003.309719 0.000000 
-105226.504932 64799.737424 0.000000 
1019693.891488 -6114748.854756 0.000000 
106752207210593.468750 116959976704246.718750 0.000000 
1328.728567 10391.773450 0.000000 
-150973.702016 -121304.939475 0.000000 
-338422990827633.125000 -654509483909132.625000 0.000000 
-89953.073152 141563.448504 0.000000 
5882.830578 4838.202117 0.000000 
0.000000 0.000000 0.000000 
0.000000 0.000000 0.000000 
0.000000 0.000000 0.000000 
22.814393 148.889993 0.000000 
-51607857021.996674 -57850469680.011391 0.000000 
221298126983.506317 446182023438.441772 0.000000 
-164050.124125 15937.285044 0.000000 
0.000000 0.000000 0.000000 
52.680958 -155.987202 0.000000 
12.264478 -14.166698 0.000000 
-88338846.667966 60600875.740371 0.000000 
148344369534941.468750 406293039428534.875000 0.000000 
31596.459380 39344.192031 0.000000 
-59667.848226 23806.371366 0.000000 
-6009.026200 -57877.394896 0.000000 
-38518242114773.968750 -41476733645340.296875 0.000000 
60562.741763 -27277.944519 0.000000 
-11740.849623 -22770.185368 0.000000 
-252588416431.816040 -448687498386.946106 0.000000 
106104075.691115 124272677.856547 0.000000 
1264271273740.131348 2227681675098.269531 0.000000 
290592.021901 -261778.190499 0.000000 
0.000000 0.000000 0.000000 
0.000000 0.000000 0.000000 
0.000000 0.000000 0.000000 
0.000000 0.000000 0.000000 
-87069009.586738 -62853545.603160 0.000000 
-38237246613980.679688 56209519427985.757812 0.000000 
0.000000 0.000000 0.000000 
0.000000 0.000000 0.000000 
0.000000 0.000000 0.000000 
0.000000 0.000000 0.000000 
0.000000 0.000000 0.000000 
-221923129456.330231 -532852822782.210449 0.000000 
-46327.820263 -33079.834607 0.000000 
23034754681.430153 -54808110256.186111 0.000000 
41566434803.921951 -331665547406.700134 0.000000 
43110785.809182 -157262778.992762 0.000000 
-0.251600 6.111573 0.000000 
0.000000 0.000000 0.000000 
-484142745259.628784 591395954485.186157 0.000000 
-659168132292.589844 -63486000983.325371 0.000000 
19838.167643 6721.475595 0.000000 
1.330725 6.799031 0.000000 
0.000000 0.000000 0.000000 
18017191.230298 -13649715.436081 0.000000 
0.000000 0.000000 0.000000 
30782781.250552 22574210.348904 0.000000 
0.000000 0.000000 0.000000 
0.000000 0.000000 0.000000 
0.000000 0.000000 0.000000 
36911792003.145432 -410364042570.489319 0.000000 
201798977275.191010 45250847180.880501 0.000000 
49274314545.780701 -76485953449.387955 0.000000 
8.198231 38.759018 0.000000 
0.000000 0.000000 0.000000 
-23848.186222 -20542.354853 0.000000 
40.929683 -1709.519199 0.000000 
11952042551.032728 -2488817906.708344 0.000000 
826.781045 -178.986245 0.000000 
7.327898 6.930727 0.000000 
-4636.252302 -3542.427670 0.000000 
-98020605.813625 21738932.431174 0.000000 
1858.376909 -19260.003865 0.000000 
0.000000 0.000000 0.000000 
19.064910 3.183970 0.000000 
-198008252613.395935 407304632881.767395 0.000000 
-38146357986.597855 -1068259934.588715 0.000000 
602507240.496309 407513766.351448 0.000000 
36252775186.443092 -38556963891.372833 0.000000 
0.000000 0.000000 0.000000 
-16664150.500812 -20676197.963667 0.000000 
0.000000 0.000000 0.000000 
-14758309.835638 15948087.511533 0.000000 
0.000000 0.000000 0.000000 
0.000000 0.000000 0.000000 
4559.745175 2888.046772 0.000000 
-7336.874782 7883.402915 0.000000 
-35.665752 278.906938 0.000000 
1124551168.858880 -1962182762.124955 0.000000 
15126.506895 102.996515 0.000000 
-1295596.798439 1323264.061891 0.000000 