# vtk DataFile Version 3.0 
vtk output 
ASCII 
DATASET UNSTRUCTURED_GRID 
POINTS 1281 float 
1.000000 3.000000 0.000000 
1.000000 2.900000 0.000000 
0.900000 3.000000 0.000000 
0.900000 2.900000 0.000000 
0.800000 3.000000 0.000000 
1.000000 2.800000 0.000000 
0.900000 2.800000 0.000000 
0.800000 2.900000 0.000000 
0.800000 2.800000 0.000000 
1.000000 2.700000 0.000000 
0.700000 3.000000 0.000000 
0.900000 2.700000 0.000000 
0.700000 2.900000 0.000000 
0.800000 2.700000 0.000000 
0.700000 2.800000 0.000000 
1.000000 2.600000 0.000000 
0.600000 3.000000 0.000000 
0.600000 2.900000 0.000000 
0.900000 2.600000 0.000000 
0.700000 2.700000 0.000000 
0.600000 2.800000 0.000000 
0.800000 2.600000 0.000000 
0.600000 2.700000 0.000000 
1.000000 2.500000 0.000000 
0.500000 3.000000 0.000000 
0.700000 2.600000 0.000000 
0.900000 2.500000 0.000000 
0.500000 2.900000 0.000000 
0.800000 2.500000 0.000000 
0.500000 2.800000 0.000000 
0.600000 2.600000 0.000000 
0.500000 2.700000 0.000000 
0.700000 2.500000 0.000000 
1.000000 2.400000 0.000000 
0.400000 3.000000 0.000000 
0.900000 2.400000 0.000000 
0.400000 2.900000 0.000000 
0.800000 2.400000 0.000000 
0.400000 2.800000 0.000000 
0.600000 2.500000 0.000000 
0.500000 2.600000 0.000000 
0.400000 2.700000 0.000000 
0.700000 2.400000 0.000000 
0.300000 3.000000 0.000000 
1.000000 2.300000 0.000000 
0.500000 2.500000 0.000000 
0.300000 2.900000 0.000000 
0.900000 2.300000 0.000000 
0.600000 2.400000 0.000000 
0.400000 2.600000 0.000000 
0.300000 2.800000 0.000000 
0.800000 2.300000 0.000000 
0.300000 2.700000 0.000000 
0.700000 2.300000 0.000000 
0.500000 2.400000 0.000000 
0.400000 2.500000 0.000000 
1.000000 2.200000 0.000000 
0.200000 3.000000 0.000000 
0.300000 2.600000 0.000000 
0.600000 2.300000 0.000000 
0.200000 2.900000 0.000000 
0.900000 2.200000 0.000000 
0.200000 2.800000 0.000000 
0.800000 2.200000 0.000000 
0.400000 2.400000 0.000000 
0.200000 2.700000 0.000000 
0.700000 2.200000 0.000000 
0.300000 2.500000 0.000000 
0.500000 2.300000 0.000000 
0.200000 2.600000 0.000000 
0.600000 2.200000 0.000000 
1.000000 2.100000 0.000000 
0.100000 3.000000 0.000000 
0.100000 2.900000 0.000000 
0.900000 2.100000 0.000000 
0.300000 2.400000 0.000000 
0.400000 2.300000 0.000000 
0.100000 2.800000 0.000000 
0.800000 2.100000 0.000000 
0.200000 2.500000 0.000000 
0.500000 2.200000 0.000000 
0.100000 2.700000 0.000000 
0.700000 2.100000 0.000000 
0.100000 2.600000 0.000000 
0.600000 2.100000 0.000000 
0.300000 2.300000 0.000000 
0.200000 2.400000 0.000000 
1.000000 2.000000 0.000000 
0.000000 3.000000 0.000000 
0.400000 2.200000 0.000000 
0.900000 2.000000 0.000000 
-0.000000 2.900000 0.000000 
0.800000 2.000000 0.000000 
-0.000000 2.800000 0.000000 
0.500000 2.100000 0.000000 
0.100000 2.500000 0.000000 
0.700000 2.000000 0.000000 
-0.000000 2.700000 0.000000 
0.200000 2.300000 0.000000 
0.300000 2.200000 0.000000 
0.600000 2.000000 0.000000 
-0.000000 2.600000 0.000000 
0.100000 2.400000 0.000000 
0.400000 2.100000 0.000000 
1.000000 1.900000 0.000000 
-0.100000 3.000000 0.000000 
0.900000 1.900000 0.000000 
-0.100000 2.900000 0.000000 
0.800000 1.900000 0.000000 
-0.100000 2.800000 0.000000 
0.500000 2.000000 0.000000 
-0.000000 2.500000 0.000000 
0.200000 2.200000 0.000000 
0.700000 1.900000 0.000000 
0.100000 2.300000 0.000000 
0.300000 2.100000 0.000000 
-0.100000 2.700000 0.000000 
0.000000 2.400000 0.000000 
0.400000 2.000000 0.000000 
0.600000 1.900000 0.000000 
-0.100000 2.600000 0.000000 
-0.200000 3.000000 3959815436851288190484480.000000 
1.000000 1.800000 0.000000 
0.200000 2.100000 0.000000 
-0.200000 2.900000 0.000000 
0.900000 1.800000 0.000000 
0.100000 2.200000 0.000000 
0.500000 1.900000 0.000000 
-0.100000 2.500000 0.000000 
-0.200000 2.800000 0.000000 
0.800000 1.800000 0.000000 
0.300000 2.000000 0.000000 
-0.000000 2.300000 0.000000 
-0.200000 2.700000 0.000000 
0.700000 1.800000 0.000000 
0.400000 1.900000 0.000000 
-0.100000 2.400000 0.000000 
0.600000 1.800000 0.000000 
-0.200000 2.600000 0.000000 
0.100000 2.100000 0.000000 
0.200000 2.000000 0.000000 
-0.000000 2.200000 0.000000 
0.500000 1.800000 0.000000 
1.000000 1.700000 0.000000 
-0.300000 3.000000 0.000000 
-0.200000 2.500000 0.000000 
0.900000 1.700000 0.000000 
-0.300000 2.900000 0.000000 
0.300000 1.900000 0.000000 
-0.100000 2.300000 0.000000 
0.800000 1.700000 0.000000 
-0.300000 2.800000 0.000000 
0.700000 1.700000 0.000000 
-0.300000 2.700000 0.000000 
-0.200000 2.400000 0.000000 
0.400000 1.800000 0.000000 
0.100000 2.000000 0.000000 
-0.000000 2.100000 0.000000 
0.600000 1.700000 0.000000 
0.200000 1.900000 0.000000 
-0.100000 2.200000 0.000000 
-0.300000 2.600000 0.000000 
-0.200000 2.300000 0.000000 
0.300000 1.800000 0.000000 
0.500000 1.700000 0.000000 
-0.300000 2.500000 0.000000 
1.000000 1.600000 0.000000 
-0.400000 3.000000 0.000000 
-0.400000 2.900000 0.000000 
0.900000 1.600000 0.000000 
-0.400000 2.800000 0.000000 
0.800000 1.600000 0.000000 
-0.000000 2.000000 0.000000 
0.100000 1.900000 0.000000 
-0.100000 2.100000 0.000000 
0.400000 1.700000 0.000000 
-0.300000 2.400000 0.000000 
-0.400000 2.700000 0.000000 
0.700000 1.600000 0.000000 
0.200000 1.800000 0.000000 
-0.200000 2.200000 0.000000 
-0.400000 2.600000 0.000000 
0.600000 1.600000 0.000000 
0.300000 1.700000 0.000000 
-0.300000 2.300000 0.000000 
-0.000000 1.900000 0.000000 
-0.400000 2.500000 0.000000 
0.500000 1.600000 0.000000 
-0.100000 2.000000 0.000000 
0.100000 1.800000 0.000000 
1.000000 1.500000 0.000000 
-0.500000 3.000000 0.000000 
-0.200000 2.100000 0.000000 
-0.500000 2.900000 0.000000 
0.900000 1.500000 0.000000 
0.800000 1.500000 0.000000 
-0.500000 2.800000 0.000000 
-0.400000 2.400000 0.000000 
0.400000 1.600000 0.000000 
0.200000 1.700000 0.000000 
-0.300000 2.200000 0.000000 
0.700000 1.500000 0.000000 
-0.500000 2.700000 0.000000 
-0.500000 2.600000 0.000000 
0.600000 1.500000 0.000000 
-0.100000 1.900000 0.000000 
0.000000 1.800000 0.000000 
-0.200000 2.000000 0.000000 
-0.400000 2.300000 0.000000 
0.300000 1.600000 0.000000 
0.100000 1.700000 0.000000 
-0.300000 2.100000 0.000000 
-0.500000 2.500000 0.000000 
0.500000 1.500000 0.000000 
1.000000 1.400000 0.000000 
-0.600000 3.000000 0.000000 
-0.600000 2.900000 0.000000 
0.900000 1.400000 0.000000 
-0.400000 2.200000 0.000000 
-0.600000 2.800000 0.000000 
0.200000 1.600000 0.000000 
0.800000 1.400000 0.000000 
-0.500000 2.400000 0.000000 
0.400000 1.500000 0.000000 
-0.100000 1.800000 0.000000 
-0.200000 1.900000 0.000000 
-0.600000 2.700000 0.000000 
0.700000 1.400000 0.000000 
-0.000000 1.700000 0.000000 
-0.300000 2.000000 0.000000 
-0.600000 2.600000 0.000000 
0.600000 1.400000 0.000000 
0.300000 1.500000 0.000000 
-0.500000 2.300000 0.000000 
0.100000 1.600000 0.000000 
-0.400000 2.100000 0.000000 
-0.600000 2.500000 0.000000 
0.500000 1.400000 0.000000 
-0.200000 1.800000 0.000000 
1.000000 1.300000 0.000000 
-0.700000 3.000000 0.000000 
0.200000 1.500000 0.000000 
-0.500000 2.200000 0.000000 
-0.100000 1.700000 0.000000 
-0.300000 1.900000 0.000000 
-0.700000 2.900000 0.000000 
0.900000 1.300000 0.000000 
-0.600000 2.400000 0.000000 
0.400000 1.400000 0.000000 
-0.700000 2.800000 0.000000 
0.800000 1.300000 0.000000 
-0.400000 2.000000 0.000000 
-0.000000 1.600000 0.000000 
-0.700000 2.700000 0.000000 
0.700000 1.300000 0.000000 
0.300000 1.400000 0.000000 
-0.600000 2.300000 0.000000 
-0.700000 2.600000 0.000000 
0.600000 1.300000 0.000000 
-0.500000 2.100000 0.000000 
0.100000 1.500000 0.000000 
-0.300000 1.800000 0.000000 
-0.200000 1.700000 0.000000 
-0.700000 2.500000 0.000000 
0.500000 1.300000 0.000000 
-0.400000 1.900000 0.000000 
-0.100000 1.600000 0.000000 
-0.600000 2.200000 0.000000 
0.200000 1.400000 0.000000 
1.000000 1.200000 0.000000 
-0.800000 3.000000 0.000000 
-0.700000 2.400000 0.000000 
0.900000 1.200000 0.000000 
-0.500000 2.000000 0.000000 
-0.000000 1.500000 0.000000 
-0.800000 2.900000 0.000000 
0.400000 1.300000 0.000000 
0.800000 1.200000 0.000000 
-0.800000 2.800000 0.000000 
0.700000 1.200000 0.000000 
-0.800000 2.700000 0.000000 
-0.600000 2.100000 0.000000 
0.100000 1.400000 0.000000 
-0.300000 1.700000 0.000000 
-0.700000 2.300000 0.000000 
0.300000 1.300000 0.000000 
-0.400000 1.800000 0.000000 
0.600000 1.200000 0.000000 
-0.800000 2.600000 0.000000 
-0.200000 1.600000 0.000000 
-0.500000 1.900000 0.000000 
-0.100000 1.500000 0.000000 
0.500000 1.200000 0.000000 
-0.800000 2.500000 0.000000 
-0.700000 2.200000 0.000000 
0.200000 1.300000 0.000000 
-0.600000 2.000000 0.000000 
0.000000 1.400000 0.000000 
-0.800000 2.400000 0.000000 
0.400000 1.200000 0.000000 
1.000000 1.100000 0.000000 
-0.900000 3.000000 0.000000 
0.900000 1.100000 0.000000 
-0.900000 2.900000 0.000000 
-0.400000 1.700000 0.000000 
-0.900000 2.800000 0.000000 
0.800000 1.100000 0.000000 
-0.300000 1.600000 0.000000 
-0.500000 1.800000 0.000000 
-0.200000 1.500000 0.000000 
-0.900000 2.700000 0.000000 
0.700000 1.100000 0.000000 
-0.700000 2.100000 0.000000 
0.100000 1.300000 0.000000 
0.300000 1.200000 0.000000 
-0.800000 2.300000 0.000000 
-0.900000 2.600000 0.000000 
0.600000 1.100000 0.000000 
-0.600000 1.900000 0.000000 
-0.100000 1.400000 0.000000 
0.500000 1.100000 0.000000 
-0.900000 2.500000 0.000000 
-0.800000 2.200000 0.000000 
0.200000 1.200000 0.000000 
-0.700000 2.000000 0.000000 
-0.000000 1.300000 0.000000 
-0.400000 1.600000 0.000000 
-0.500000 1.700000 0.000000 
-0.300000 1.500000 0.000000 
-0.900000 2.400000 0.000000 
0.400000 1.100000 0.000000 
-0.600000 1.800000 0.000000 
-1.000000 3.000000 0.000000 
1.000000 1.000000 0.000000 
-0.200000 1.400000 0.000000 
0.900000 1.000000 0.000000 
-1.000000 2.900000 0.000000 
0.800000 1.000000 0.000000 
-1.000000 2.800000 0.000000 
0.100000 1.200000 0.000000 
-0.800000 2.100000 0.000000 
0.700000 1.000000 0.000000 
-1.000000 2.700000 0.000000 
-0.700000 1.900000 0.000000 
0.300000 1.100000 0.000000 
-0.900000 2.300000 0.000000 
-0.100000 1.300000 0.000000 
[...]
POINT_DATA 1281 
VECTORS X_GC float 
1.000000 3.000000 0.000000 
1.000000 2.900000 0.000000 
0.900000 3.000000 0.000000 
0.900000 2.900000 0.000000 
0.800000 3.000000 0.000000 
1.000000 2.800000 0.000000 
0.900000 2.800000 0.000000 
0.800000 2.900000 0.000000 
0.800000 2.800000 0.000000 
1.000000 2.700000 0.000000 
0.700000 3.000000 0.000000 
0.900000 2.700000 0.000000 
0.700000 2.900000 0.000000 
0.800000 2.700000 0.000000 
0.700000 2.800000 0.000000 
1.000000 2.600000 0.000000 
0.600000 3.000000 0.000000 
0.600000 2.900000 0.000000 
0.900000 2.600000 0.000000 
0.700000 2.700000 0.000000 
0.600000 2.800000 0.000000 
0.800000 2.600000 0.000000 
0.600000 2.700000 0.000000 
1.000000 2.500000 0.000000 
0.500000 3.000000 0.000000 
0.700000 2.600000 0.000000 
0.900000 2.500000 0.000000 
0.500000 2.900000 0.000000 
0.800000 2.500000 0.000000 
0.500000 2.800000 0.000000 
0.600000 2.600000 0.000000 
0.500000 2.700000 0.000000 
0.700000 2.500000 0.000000 
1.000000 2.400000 0.000000 
0.400000 3.000000 0.000000 
0.900000 2.400000 0.000000 
0.400000 2.900000 0.000000 
0.800000 2.400000 0.000000 
0.400000 2.800000 0.000000 
0.600000 2.500000 0.000000 
0.500000 2.600000 0.000000 
0.400000 2.700000 0.000000 
0.700000 2.400000 0.000000 
0.300000 3.000000 0.000000 
1.000000 2.300000 0.000000 
0.500000 2.500000 0.000000 
0.300000 2.900000 0.000000 
0.900000 2.300000 0.000000 
0.600000 2.400000 0.000000 
0.400000 2.600000 0.000000 
0.300000 2.800000 0.000000 
0.800000 2.300000 0.000000 
0.300000 2.700000 0.000000 
0.700000 2.300000 0.000000 
0.500000 2.400000 0.000000 
0.400000 2.500000 0.000000 
1.000000 2.200000 0.000000 
0.200000 3.000000 0.000000 
0.300000 2.600000 0.000000 
0.600000 2.300000 0.000000 
0.200000 2.900000 0.000000 
0.900000 2.200000 0.000000 
0.200000 2.800000 0.000000 
0.800000 2.200000 0.000000 
0.400000 2.400000 0.000000 
0.200000 2.700000 0.000000 
0.700000 2.200000 0.000000 
0.300000 2.500000 0.000000 
0.500000 2.300000 0.000000 
0.200000 2.600000 0.000000 
0.600000 2.200000 0.000000 
1.000000 2.100000 0.000000 
0.100000 3.000000 0.000000 
0.100000 2.900000 0.000000 
0.900000 2.100000 0.000000 
0.300000 2.400000 0.000000 
0.400000 2.300000 0.000000 
0.100000 2.800000 0.000000 
0.800000 2.100000 0.000000 
0.200000 2.500000 0.000000 
0.500000 2.200000 0.000000 
0.100000 2.700000 0.000000 
0.700000 2.100000 0.000000 
0.100000 2.600000 0.000000 
0.600000 2.100000 0.000000 
0.300000 2.300000 0.000000 
0.200000 2.400000 0.000000 
1.000000 2.000000 0.000000 
0.000000 3.000000 0.000000 
0.400000 2.200000 0.000000 
0.900000 2.000000 0.000000 
-0.000000 2.900000 0.000000 
0.800000 2.000000 0.000000 
-0.000000 2.800000 0.000000 
0.500000 2.100000 0.000000 
0.100000 2.500000 0.000000 
0.700000 2.000000 0.000000 
-0.000000 2.700000 0.000000 
0.200000 2.300000 0.000000 
0.300000 2.200000 0.000000 
0.600000 2.000000 0.000000 
-0.000000 2.600000 0.000000 
0.100000 2.400000 0.000000 
0.400000 2.100000 0.000000 
1.000000 1.900000 0.000000 
-0.100000 3.000000 0.000000 
0.900000 1.900000 0.000000 
-0.100000 2.900000 0.000000 
0.800000 1.900000 0.000000 
-0.100000 2.800000 0.000000 
0.500000 2.000000 0.000000 
-0.000000 2.500000 0.000000 
0.200000 2.200000 0.000000 
0.700000 1.900000 0.000000 
0.100000 2.300000 0.000000 
0.300000 2.100000 0.000000 
-0.100000 2.700000 0.000000 
0.000000 2.400000 0.000000 
0.400000 2.000000 0.000000 
0.600000 1.900000 0.000000 
-0.100000 2.600000 0.000000 
-0.200000 3.000000 3959815436851288190484480.000000 
1.000000 1.800000 0.000000 
0.200000 2.100000 0.000000 
-0.200000 2.900000 0.000000 
0.900000 1.800000 0.000000 
0.100000 2.200000 0.000000 
0.500000 1.900000 0.000000 
-0.100000 2.500000 0.000000 
-0.200000 2.800000 0.000000 
0.800000 1.800000 0.000000 
0.300000 2.000000 0.000000 
-0.000000 2.300000 0.000000 
-0.200000 2.700000 0.000000 
0.700000 1.800000 0.000000 
0.400000 1.900000 0.000000 
-0.100000 2.400000 0.000000 
0.600000 1.800000 0.000000 
-0.200000 2.600000 0.000000 
0.100000 2.100000 0.000000 
0.200000 2.000000 0.000000 
-0.000000 2.200000 0.000000 
0.500000 1.800000 0.000000 
1.000000 1.700000 0.000000 
-0.300000 3.000000 0.000000 
-0.200000 2.500000 0.000000 
0.900000 1.700000 0.000000 
-0.300000 2.900000 0.000000 
0.300000 1.900000 0.000000 
-0.100000 2.300000 0.000000 
0.800000 1.700000 0.000000 
-0.300000 2.800000 0.000000 
0.700000 1.700000 0.000000 
-0.300000 2.700000 0.000000 
-0.200000 2.400000 0.000000 
0.400000 1.800000 0.000000 
0.100000 2.000000 0.000000 
-0.000000 2.100000 0.000000 
0.600000 1.700000 0.000000 
0.200000 1.900000 0.000000 
-0.100000 2.200000 0.000000 
-0.300000 2.600000 0.000000 
-0.200000 2.300000 0.000000 
0.300000 1.800000 0.000000 
0.500000 1.700000 0.000000 
-0.300000 2.500000 0.000000 
1.000000 1.600000 0.000000 
-0.400000 3.000000 0.000000 
-0.400000 2.900000 0.000000 
0.900000 1.600000 0.000000 
-0.400000 2.800000 0.000000 
0.800000 1.600000 0.000000 
-0.000000 2.000000 0.000000 
0.100000 1.900000 0.000000 
-0.100000 2.100000 0.000000 
0.400000 1.700000 0.000000 
-0.300000 2.400000 0.000000 
-0.400000 2.700000 0.000000 
0.700000 1.600000 0.000000 
0.200000 1.800000 0.000000 
-0.200000 2.200000 0.000000 
-0.400000 2.600000 0.000000 
0.600000 1.600000 0.000000 
0.300000 1.700000 0.000000 
-0.300000 2.300000 0.000000 
-0.000000 1.900000 0.000000 
-0.400000 2.500000 0.000000 
0.500000 1.600000 0.000000 
-0.100000 2.000000 0.000000 
0.100000 1.800000 0.000000 
1.000000 1.500000 0.000000 
-0.500000 3.000000 0.000000 
-0.200000 2.100000 0.000000 
-0.500000 2.900000 0.000000 
0.900000 1.500000 0.000000 
0.800000 1.500000 0.000000 
-0.500000 2.800000 0.000000 
-0.400000 2.400000 0.000000 
0.400000 1.600000 0.000000 
0.200000 1.700000 0.000000 
-0.300000 2.200000 0.000000 
0.700000 1.500000 0.000000 
-0.500000 2.700000 0.000000 
-0.500000 2.600000 0.000000 
0.600000 1.500000 0.000000 
-0.100000 1.900000 0.000000 
0.000000 1.800000 0.000000 
-0.200000 2.000000 0.000000 
-0.400000 2.300000 0.000000 
0.300000 1.600000 0.000000 
0.100000 1.700000 0.000000 
-0.300000 2.100000 0.000000 
-0.500000 2.500000 0.000000 
0.500000 1.500000 0.000000 
1.000000 1.400000 0.000000 
-0.600000 3.000000 0.000000 
-0.600000 2.900000 0.000000 
0.900000 1.400000 0.000000 
-0.400000 2.200000 0.000000 
-0.600000 2.800000 0.000000 
0.200000 1.600000 0.000000 
0.800000 1.400000 0.000000 
-0.500000 2.400000 0.000000 
0.400000 1.500000 0.000000 
-0.100000 1.800000 0.000000 
-0.200000 1.900000 0.000000 
-0.600000 2.700000 0.000000 
0.700000 1.400000 0.000000 
-0.000000 1.700000 0.000000 
-0.300000 2.000000 0.000000 
-0.600000 2.600000 0.000000 
0.600000 1.400000 0.000000 
0.300000 1.500000 0.000000 
-0.500000 2.300000 0.000000 
0.100000 1.600000 0.000000 
-0.400000 2.100000 0.000000 
-0.600000 2.500000 0.000000 
0.500000 1.400000 0.000000 
-0.200000 1.800000 0.000000 
1.000000 1.300000 0.000000 
-0.700000 3.000000 0.000000 
0.200000 1.500000 0.000000 
-0.500000 2.200000 0.000000 
-0.100000 1.700000 0.000000 
-0.300000 1.900000 0.000000 
-0.700000 2.900000 0.000000 
0.900000 1.300000 0.000000 
-0.600000 2.400000 0.000000 
0.400000 1.400000 0.000000 
-0.700000 2.800000 0.000000 
0.800000 1.300000 0.000000 
-0.400000 2.000000 0.000000 
-0.000000 1.600000 0.000000 
-0.700000 2.700000 0.000000 
0.700000 1.300000 0.000000 
0.300000 1.400000 0.000000 
-0.600000 2.300000 0.000000 
-0.700000 2.600000 0.000000 
0.600000 1.300000 0.000000 
-0.500000 2.100000 0.000000 
0.100000 1.500000 0.000000 
-0.300000 1.800000 0.000000 
-0.200000 1.700000 0.000000 
-0.700000 2.500000 0.000000 
0.500000 1.300000 0.000000 
-0.400000 1.900000 0.000000 
-0.100000 1.600000 0.000000 
-0.600000 2.200000 0.000000 
0.200000 1.400000 0.000000 
1.000000 1.200000 0.000000 
-0.800000 3.000000 0.000000 
-0.700000 2.400000 0.000000 
0.900000 1.200000 0.000000 
-0.500000 2.000000 0.000000 
-0.000000 1.500000 0.000000 
-0.800000 2.900000 0.000000 
0.400000 1.300000 0.000000 
0.800000 1.200000 0.000000 
-0.800000 2.800000 0.000000 
0.700000 1.200000 0.000000 
-0.800000 2.700000 0.000000 
-0.600000 2.100000 0.000000 
0.100000 1.400000 0.000000 
-0.300000 1.700000 0.000000 
-0.700000 2.300000 0.000000 
0.300000 1.300000 0.000000 
-0.400000 1.800000 0.000000 
0.600000 1.200000 0.000000 
-0.800000 2.600000 0.000000 
-0.200000 1.600000 0.000000 
-0.500000 1.900000 0.000000 
-0.100000 1.500000 0.000000 
0.500000 1.200000 0.000000 
-0.800000 2.500000 0.000000 
-0.700000 2.200000 0.000000 
0.200000 1.300000 0.000000 
-0.600000 2.000000 0.000000 
0.000000 1.400000 0.000000 
-0.800000 2.400000 0.000000 
0.400000 1.200000 0.000000 
1.000000 1.100000 0.000000 
-0.900000 3.000000 0.000000 
0.900000 1.100000 0.000000 
-0.900000 2.900000 0.000000 
-0.400000 1.700000 0.000000 
-0.900000 2.800000 0.000000 
0.800000 1.100000 0.000000 
-0.300000 1.600000 0.000000 
-0.500000 1.800000 0.000000 
-0.200000 1.500000 0.000000 
-0.900000 2.700000 0.000000 
0.700000 1.100000 0.000000 
-0.700000 2.100000 0.000000 
0.100000 1.300000 0.000000 
0.300000 1.200000 0.000000 
-0.800000 2.300000 0.000000 
-0.900000 2.600000 0.000000 
0.600000 1.100000 0.000000 
-0.600000 1.900000 0.000000 
-0.100000 1.400000 0.000000 
0.500000 1.100000 0.000000 
-0.900000 2.500000 0.000000 
-0.800000 2.200000 0.000000 
0.200000 1.200000 0.000000 
-0.700000 2.000000 0.000000 
-0.000000 1.300000 0.000000 
-0.400000 1.600000 0.000000 
-0.500000 1.700000 0.000000 
-0.300000 1.500000 0.000000 
-0.900000 2.400000 0.000000 
0.400000 1.100000 0.000000 
-0.600000 1.800000 0.000000 
-1.000000 3.000000 0.000000 
1.000000 1.000000 0.000000 
-0.200000 1.400000 0.000000 
0.900000 1.000000 0.000000 
-1.000000 2.900000 0.000000 
0.800000 1.000000 0.000000 
-1.000000 2.800000 0.000000 
0.100000 1.200000 0.000000 
-0.800000 2.100000 0.000000 
0.700000 1.000000 0.000000 
-1.000000 2.700000 0.000000 
-0.700000 1.900000 0.000000 
0.300000 1.100000 0.000000 
-0.900000 2.300000 0.000000 
-0.100000 1.300000 0.000000 
0.600000 1.000000 0.000000 
-1.000000 2.600000 0.000000 
-0.400000 1.500000 0.000000 
-0.500000 1.600000 0.000000 
0.000000 1.200000 0.000000 
-0.800000 2.000000 0.000000 
-0.600000 1.700000 0.000000 
0.500000 1.000000 0.000000 
-1.000000 2.500000 0.000000 
0.200000 1.100000 0.000000 
-0.900000 2.200000 0.000000 
-0.300000 1.400000 0.000000 
-0.700000 1.800000 0.000000 
-0.200000 1.300000 0.000000 
-1.000000 2.400000 0.000000 
0.400000 1.000000 0.000000 
1.000000 0.900000 0.000000 
0.900000 0.900000 0.000000 
0.100000 1.100000 0.000000 
-0.900000 2.100000 0.000000 
0.800000 0.900000 0.000000 
-0.100000 1.200000 0.000000 
-0.800000 1.900000 0.000000 
0.300000 1.000000 0.000000 
-1.000000 2.300000 0.000000 
0.700000 0.900000 0.000000 
-0.500000 1.500000 0.000000 
-0.400000 1.400000 0.000000 
-0.600000 1.600000 0.000000 
0.600000 0.900000 0.000000 
-0.700000 1.700000 0.000000 
-0.300000 1.300000 0.000000 
-0.900000 2.000000 0.000000 
-0.000000 1.100000 0.000000 
0.200000 1.000000 0.000000 
-1.000000 2.200000 0.000000 
0.500000 0.900000 0.000000 
-0.200000 1.200000 0.000000 
-0.800000 1.800000 0.000000 
0.400000 0.900000 0.000000 
0.100000 1.000000 0.000000 
-1.000000 2.100000 0.000000 
-0.500000 1.400000 0.000000 
-0.600000 1.500000 0.000000 
-0.900000 1.900000 0.000000 
-0.100000 1.100000 0.000000 
1.000000 0.800000 0.000000 
0.900000 0.800000 0.000000 
-0.700000 1.600000 0.000000 
-0.400000 1.300000 0.000000 
0.800000 0.800000 0.000000 
0.300000 0.900000 0.000000 
0.700000 0.800000 0.000000 
-0.300000 1.200000 0.000000 
-0.800000 1.700000 0.000000 
0.600000 0.800000 0.000000 
-1.000000 2.000000 0.000000 
-0.000000 1.000000 0.000000 
0.200000 0.900000 0.000000 
-0.900000 1.800000 0.000000 
-0.200000 1.100000 0.000000 
0.500000 0.800000 0.000000 
-0.600000 1.400000 0.000000 
-0.700000 1.500000 0.000000 
-0.500000 1.300000 0.000000 
0.400000 0.800000 0.000000 
-0.400000 1.200000 0.000000 
-0.800000 1.600000 0.000000 
-1.000000 1.900000 0.000000 
-0.100000 1.000000 0.000000 
0.100000 0.900000 0.000000 
1.000000 0.700000 0.000000 
-0.900000 1.700000 0.000000 
0.900000 0.700000 0.000000 
-0.300000 1.100000 0.000000 
0.300000 0.800000 0.000000 
0.800000 0.700000 0.000000 
0.700000 0.700000 0.000000 
-0.000000 0.900000 0.000000 
-1.000000 1.800000 0.000000 
-0.200000 1.000000 0.000000 
0.600000 0.700000 0.000000 
-0.600000 1.300000 0.000000 
-0.700000 1.400000 0.000000 
0.200000 0.800000 0.000000 
-0.500000 1.200000 0.000000 
-0.800000 1.500000 0.000000 
0.500000 0.700000 0.000000 
-0.400000 1.100000 0.000000 
-0.900000 1.600000 0.000000 
-0.100000 0.900000 0.000000 
0.100000 0.800000 0.000000 
0.400000 0.700000 0.000000 
-0.300000 1.000000 0.000000 
-1.000000 1.700000 0.000000 
1.000000 0.600000 0.000000 
0.900000 0.600000 0.000000 
0.300000 0.700000 0.000000 
-0.700000 1.300000 0.000000 
-0.600000 1.200000 0.000000 
0.800000 0.600000 0.000000 
-0.800000 1.400000 0.000000 
-0.000000 0.800000 0.000000 
0.700000 0.600000 0.000000 
-0.200000 0.900000 0.000000 
-0.900000 1.500000 0.000000 
-0.500000 1.100000 0.000000 
0.600000 0.600000 0.000000 
0.200000 0.700000 0.000000 
-1.000000 1.600000 0.000000 
-0.400000 1.000000 0.000000 
0.500000 0.600000 0.000000 
-0.100000 0.800000 0.000000 
-0.300000 0.900000 0.000000 
0.100000 0.700000 0.000000 
0.400000 0.600000 0.000000 
-0.700000 1.200000 0.000000 
-0.800000 1.300000 0.000000 
-0.900000 1.400000 0.000000 
-0.600000 1.100000 0.000000 
1.000000 0.500000 0.000000 
-1.000000 1.500000 0.000000 
-0.500000 1.000000 0.000000 
0.300000 0.600000 0.000000 
0.900000 0.500000 0.000000 
-0.200000 0.800000 0.000000 
-0.000000 0.700000 0.000000 
0.800000 0.500000 0.000000 
0.700000 0.500000 0.000000 
-0.400000 0.900000 0.000000 
0.200000 0.600000 0.000000 
0.600000 0.500000 0.000000 
-0.800000 1.200000 0.000000 
-0.100000 0.700000 0.000000 
-0.700000 1.100000 0.000000 
0.500000 0.500000 0.000000 
-0.900000 1.300000 0.000000 
-0.300000 0.800000 0.000000 
-0.600000 1.000000 0.000000 
-1.000000 1.400000 0.000000 
0.100000 0.600000 0.000000 
0.400000 0.500000 0.000000 
-0.500000 0.900000 0.000000 
-0.200000 0.700000 0.000000 
0.300000 0.500000 0.000000 
1.000000 0.400000 0.000000 
-0.000000 0.600000 0.000000 
0.900000 0.400000 0.000000 
0.800000 0.400000 0.000000 
-0.400000 0.800000 0.000000 
-0.800000 1.100000 0.000000 
-0.900000 1.200000 0.000000 
0.700000 0.400000 0.000000 
-0.700000 1.000000 0.000000 
-1.000000 1.300000 0.000000 
0.200000 0.500000 0.000000 
0.600000 0.400000 0.000000 
-0.600000 0.900000 0.000000 
-0.100000 0.600000 0.000000 
-0.300000 0.700000 0.000000 
0.500000 0.400000 0.000000 
0.100000 0.500000 0.000000 
-0.500000 0.800000 0.000000 
0.400000 0.400000 0.000000 
-0.200000 0.600000 0.000000 
-0.900000 1.100000 0.000000 
-0.800000 1.000000 0.000000 
-1.000000 1.200000 0.000000 
-0.400000 0.700000 0.000000 
0.300000 0.400000 0.000000 
0.000000 0.500000 0.000000 
1.000000 0.300000 0.000000 
-0.700000 0.900000 0.000000 
0.900000 0.300000 0.000000 
0.800000 0.300000 0.000000 
0.700000 0.300000 0.000000 
-0.600000 0.800000 0.000000 
0.200000 0.400000 0.000000 
-0.300000 0.600000 0.000000 
0.600000 0.300000 0.000000 
-0.100000 0.500000 0.000000 
-0.500000 0.700000 0.000000 
0.500000 0.300000 0.000000 
0.100000 0.400000 0.000000 
-0.900000 1.000000 0.000000 
-1.000000 1.100000 0.000000 
-0.800000 0.900000 0.000000 
0.400000 0.300000 0.000000 
-0.200000 0.500000 0.000000 
-0.400000 0.600000 0.000000 
-0.700000 0.800000 0.000000 
-0.000000 0.400000 0.000000 
0.300000 0.300000 0.000000 
1.000000 0.200000 0.000000 
-0.600000 0.700000 0.000000 
0.900000 0.200000 0.000000 
0.800000 0.200000 0.000000 
0.700000 0.200000 0.000000 
0.200000 0.300000 0.000000 
-0.300000 0.500000 0.000000 
-0.100000 0.400000 0.000000 
-1.000000 1.000000 0.000000 
0.600000 0.200000 0.000000 
-0.500000 0.600000 0.000000 
-0.900000 0.900000 0.000000 
-0.800000 0.800000 0.000000 
0.500000 0.200000 0.000000 
0.100000 0.300000 0.000000 
-0.700000 0.700000 0.000000 
-0.200000 0.400000 0.000000 
0.400000 0.200000 0.000000 
-0.400000 0.500000 0.000000 
-0.000000 0.300000 0.000000 
-0.600000 0.600000 0.000000 
0.300000 0.200000 0.000000 
-1.000000 0.900000 0.000000 
1.000000 0.100000 0.000000 
0.900000 0.100000 0.000000 
0.800000 0.100000 0.000000 
-0.300000 0.400000 0.000000 
-0.900000 0.800000 0.000000 
0.200000 0.200000 0.000000 
0.700000 0.100000 0.000000 
-0.500000 0.500000 0.000000 
-0.100000 0.300000 0.000000 
-0.800000 0.700000 0.000000 
0.600000 0.100000 0.000000 
-0.700000 0.600000 0.000000 
0.100000 0.200000 0.000000 
0.500000 0.100000 0.000000 
-0.400000 0.400000 0.000000 
-0.200000 0.300000 0.000000 
0.400000 0.100000 0.000000 
-0.600000 0.500000 0.000000 
-1.000000 0.800000 0.000000 
-0.000000 0.200000 0.000000 
0.300000 0.100000 0.000000 
-0.900000 0.700000 0.000000 
-0.300000 0.300000 0.000000 
1.000000 0.000000 0.000000 
-0.800000 0.600000 0.000000 
-0.500000 0.400000 0.000000 
0.900000 -0.000000 0.000000 
0.800000 -0.000000 0.000000 
0.200000 0.100000 0.000000 
-0.100000 0.200000 0.000000 
0.700000 -0.000000 0.000000 
-0.700000 0.500000 0.000000 
0.600000 -0.000000 0.000000 
0.100000 0.100000 0.000000 
0.500000 -0.000000 0.000000 
-0.400000 0.300000 0.000000 
-0.200000 0.200000 0.000000 
-1.000000 0.700000 0.000000 
-0.600000 0.400000 0.000000 
0.400000 -0.000000 0.000000 
-0.900000 0.600000 0.000000 
-0.000000 0.100000 0.000000 
-0.800000 0.500000 0.000000 
0.300000 -0.000000 0.000000 
-0.300000 0.200000 0.000000 
-0.500000 0.300000 0.000000 
1.000000 -0.100000 0.000000 
-0.100000 0.100000 0.000000 
0.900000 -0.100000 0.000000 
0.200000 -0.000000 0.000000 
-0.700000 0.400000 0.000000 
0.800000 -0.100000 0.000000 
0.700000 -0.100000 0.000000 
-1.000000 0.600000 0.000000 
0.600000 -0.100000 0.000000 
-0.400000 0.200000 0.000000 
0.100000 -0.000000 0.000000 
-0.200000 0.100000 0.000000 
-0.600000 0.300000 0.000000 
-0.900000 0.500000 0.000000 
0.500000 -0.100000 0.000000 
0.400000 -0.100000 0.000000 
-0.800000 0.400000 0.000000 
0.000000 -0.000000 0.000000 
-0.500000 0.200000 0.000000 
-0.300000 0.100000 0.000000 
0.300000 -0.100000 0.000000 
-0.700000 0.300000 0.000000 
-0.100000 0.000000 0.000000 
1.000000 -0.200000 0.000000 
-1.000000 0.500000 0.000000 
0.900000 -0.200000 0.000000 
0.200000 -0.100000 0.000000 
0.800000 -0.200000 0.000000 
0.700000 -0.200000 0.000000 
-0.900000 0.400000 0.000000 
-0.400000 0.100000 0.000000 
0.600000 -0.200000 0.000000 
-0.600000 0.200000 0.000000 
0.100000 -0.100000 0.000000 
-0.200000 -0.000000 0.000000 
0.500000 -0.200000 0.000000 
-0.800000 0.300000 0.000000 
0.400000 -0.200000 0.000000 
-0.000000 -0.100000 0.000000 
-0.500000 0.100000 0.000000 
-0.300000 -0.000000 0.000000 
0.300000 -0.200000 0.000000 
-0.700000 0.200000 0.000000 
-1.000000 0.400000 0.000000 
-0.100000 -0.100000 0.000000 
0.200000 -0.200000 0.000000 
1.000000 -0.300000 0.000000 
-0.900000 0.300000 0.000000 
0.900000 -0.300000 0.000000 
0.800000 -0.300000 0.000000 
-0.400000 -0.000000 0.000000 
-0.600000 0.100000 0.000000 
0.700000 -0.300000 0.000000 
0.600000 -0.300000 0.000000 
0.100000 -0.200000 0.000000 
-0.200000 -0.100000 0.000000 
-0.800000 0.200000 0.000000 
0.500000 -0.300000 0.000000 
0.000000 -0.200000 0.000000 
0.400000 -0.300000 0.000000 
-0.500000 -0.000000 0.000000 
-1.000000 0.300000 0.000000 
-0.700000 0.100000 0.000000 
-0.300000 -0.100000 0.000000 
0.300000 -0.300000 0.000000 
-0.100000 -0.200000 0.000000 
-0.900000 0.200000 0.000000 
0.200000 -0.300000 0.000000 
1.000000 -0.400000 0.000000 
-0.600000 -0.000000 0.000000 
0.900000 -0.400000 0.000000 
-0.400000 -0.100000 0.000000 
0.800000 -0.400000 0.000000 
0.700000 -0.400000 0.000000 
-0.800000 0.100000 0.000000 
-0.200000 -0.200000 0.000000 
0.100000 -0.300000 0.000000 
0.600000 -0.400000 0.000000 
0.500000 -0.400000 0.000000 
-1.000000 0.200000 0.000000 
-0.500000 -0.100000 0.000000 
-0.000000 -0.300000 0.000000 
-0.700000 -0.000000 0.000000 
0.400000 -0.400000 0.000000 
-0.300000 -0.200000 0.000000 
-0.900000 0.100000 0.000000 
0.300000 -0.400000 0.000000 
-0.100000 -0.300000 0.000000 