# vtk DataFile Version 3.0 
vtk output 
ASCII 
DATASET UNSTRUCTURED_GRID 
POINTS 441 float 
3.000000 -3.000000 0.000000 
2.700000 -3.000000 0.000000 
3.000000 -2.700000 0.000000 
2.700000 -2.700000 0.000000 
3.000000 -2.400000 0.000000 
2.400000 -3.000000 0.000000 
2.700000 -2.400000 0.000000 
2.400000 -2.700000 0.000000 
2.400000 -2.400000 0.000000 
2.100000 -3.000000 0.000000 
3.000000 -2.100000 0.000000 
2.700000 -2.100000 0.000000 
2.100000 -2.700000 0.000000 
2.400000 -2.100000 0.000000 
2.100000 -2.400000 0.000000 
3.000000 -1.800000 0.000000 
1.800000 -3.000000 0.000000 
2.700000 -1.800000 0.000000 
1.800000 -2.700000 0.000000 
2.100000 -2.100000 0.000000 
2.400000 -1.800000 0.000000 
1.800000 -2.400000 0.000000 
2.100000 -1.800000 0.000000 
3.000000 -1.500000 0.000000 
1.500000 -3.000000 0.000000 
1.800000 -2.100000 0.000000 
1.500000 -2.700000 0.000000 
2.700000 -1.500000 0.000000 
1.500000 -2.400000 0.000000 
2.400000 -1.500000 0.000000 
1.800000 -1.800000 0.000000 
1.500000 -2.100000 0.000000 
2.100000 -1.500000 0.000000 
1.200000 -3.000000 0.000000 
3.000000 -1.200000 0.000000 
1.200000 -2.700000 0.000000 
2.700000 -1.200000 0.000000 
1.200000 -2.400000 0.000000 
2.400000 -1.200000 0.000000 
1.500000 -1.800000 0.000000 
1.800000 -1.500000 0.000000 
1.200000 -2.100000 0.000000 
2.100000 -1.200000 0.000000 
3.000000 -0.900000 0.000000 
0.900000 -3.000000 0.000000 
2.700000 -0.900000 0.000000 
0.900000 -2.700000 0.000000 
1.500000 -1.500000 0.000000 
1.200000 -1.800000 0.000000 
1.800000 -1.200000 0.000000 
2.400000 -0.900000 0.000000 
0.900000 -2.400000 0.000000 
0.900000 -2.100000 0.000000 
2.100000 -0.900000 0.000000 
1.500000 -1.200000 0.000000 
1.200000 -1.500000 0.000000 
3.000000 -0.600000 0.000000 
0.600000 -3.000000 0.000000 
1.800000 -0.900000 0.000000 
0.900000 -1.800000 0.000000 
0.600000 -2.700000 0.000000 
2.700000 -0.600000 0.000000 
0.600000 -2.400000 0.000000 
2.400000 -0.600000 0.000000 
1.200000 -1.200000 0.000000 
0.600000 -2.100000 0.000000 
2.100000 -0.600000 0.000000 
1.500000 -0.900000 0.000000 
0.900000 -1.500000 0.000000 
0.600000 -1.800000 0.000000 
1.800000 -0.600000 0.000000 
3.000000 -0.300000 0.000000 
0.300000 -3.000000 0.000000 
2.700000 -0.300000 0.000000 
0.300000 -2.700000 0.000000 
2.400000 -0.300000 0.000000 
1.200000 -0.900000 0.000000 
0.900000 -1.200000 0.000000 
0.300000 -2.400000 0.000000 
1.500000 -0.600000 0.000000 
0.600000 -1.500000 0.000000 
2.100000 -0.300000 0.000000 
0.300000 -2.100000 0.000000 
1.800000 -0.300000 0.000000 
0.300000 -1.800000 0.000000 
0.900000 -0.900000 0.000000 
3.000000 0.000000 0.000000 
0.000000 -3.000000 0.000000 
1.200000 -0.600000 0.000000 
0.600000 -1.200000 0.000000 
2.700000 0.000000 0.000000 
0.000000 -2.700000 0.000000 
2.400000 0.000000 0.000000 
0.000000 -2.400000 0.000000 
1.500000 -0.300000 0.000000 
0.300000 -1.500000 0.000000 
2.100000 0.000000 0.000000 
0.000000 -2.100000 0.000000 
0.600000 -0.900000 0.000000 
0.900000 -0.600000 0.000000 
1.800000 0.000000 0.000000 
0.000000 -1.800000 0.000000 
1.200000 -0.300000 0.000000 
0.300000 -1.200000 0.000000 
3.000000 0.300000 0.000000 
-0.300000 -3.000000 0.000000 
2.700000 0.300000 0.000000 
-0.300000 -2.700000 0.000000 
2.400000 0.300000 0.000000 
1.500000 0.000000 0.000000 
0.000000 -1.500000 0.000000 
-0.300000 -2.400000 0.000000 
0.600000 -0.600000 0.000000 
2.100000 0.300000 0.000000 
0.900000 -0.300000 0.000000 
0.300000 -0.900000 0.000000 
-0.300000 -2.100000 0.000000 
1.200000 0.000000 0.000000 
0.000000 -1.200000 0.000000 
1.800000 0.300000 0.000000 
-0.300000 -1.800000 0.000000 
3.000000 0.600000 0.000000 
-0.600000 -3.000000 0.000000 
2.700000 0.600000 0.000000 
-0.600000 -2.700000 0.000000 
0.600000 -0.300000 0.000000 
0.300000 -0.600000 0.000000 
1.500000 0.300000 0.000000 
-0.300000 -1.500000 0.000000 
-0.600000 -2.400000 0.000000 
2.400000 0.600000 0.000000 
0.900000 0.000000 0.000000 
0.000000 -0.900000 0.000000 
-0.600000 -2.100000 0.000000 
2.100000 0.600000 0.000000 
1.200000 0.300000 0.000000 
-0.300000 -1.200000 0.000000 
1.800000 0.600000 0.000000 
-0.600000 -1.800000 0.000000 
0.300000 -0.300000 0.000000 
0.600000 0.000000 0.000000 
0.000000 -0.600000 0.000000 
1.500000 0.600000 0.000000 
-0.600000 -1.500000 0.000000 
3.000000 0.900000 0.000000 
-0.900000 -3.000000 0.000000 
-0.900000 -2.700000 0.000000 
0.900000 0.300000 0.000000 
-0.300000 -0.900000 0.000000 
2.700000 0.900000 0.000000 
2.400000 0.900000 0.000000 
-0.900000 -2.400000 0.000000 
-0.900000 -2.100000 0.000000 
2.100000 0.900000 0.000000 
-0.600000 -1.200000 0.000000 
1.200000 0.600000 0.000000 
0.300000 0.000000 0.000000 
0.000000 -0.300000 0.000000 
0.600000 0.300000 0.000000 
1.800000 0.900000 0.000000 
-0.900000 -1.800000 0.000000 
-0.300000 -0.600000 0.000000 
-0.600000 -0.900000 0.000000 
0.900000 0.600000 0.000000 
1.500000 0.900000 0.000000 
-0.900000 -1.500000 0.000000 
-1.200000 -3.000000 0.000000 
3.000000 1.200000 0.000000 
-1.200000 -2.700000 0.000000 
2.700000 1.200000 0.000000 
-1.200000 -2.400000 0.000000 
2.400000 1.200000 0.000000 
0.000000 0.000000 0.000000 
0.300000 0.300000 0.000000 
-0.300000 -0.300000 0.000000 
-1.200000 -2.100000 0.000000 
2.100000 1.200000 0.000000 
1.200000 0.900000 0.000000 
-0.900000 -1.200000 0.000000 
-0.600000 -0.600000 0.000000 
0.600000 0.600000 0.000000 
1.800000 1.200000 0.000000 
-1.200000 -1.800000 0.000000 
-0.900000 -0.900000 0.000000 
0.900000 0.900000 0.000000 
-1.200000 -1.500000 0.000000 
1.500000 1.200000 0.000000 
0.000000 0.300000 0.000000 
-0.300000 0.000000 0.000000 
0.300000 0.600000 0.000000 
-0.600000 -0.300000 0.000000 
3.000000 1.500000 0.000000 
-1.500000 -3.000000 0.000000 
2.700000 1.500000 0.000000 
-1.500000 -2.700000 0.000000 
-1.500000 -2.400000 0.000000 
2.400000 1.500000 0.000000 
-1.200000 -1.200000 0.000000 
1.200000 1.200000 0.000000 
0.600000 0.900000 0.000000 
-0.900000 -0.600000 0.000000 
-1.500000 -2.100000 0.000000 
2.100000 1.500000 0.000000 
-1.500000 -1.800000 0.000000 
1.800000 1.500000 0.000000 
-0.300000 0.300000 0.000000 
0.000000 0.600000 0.000000 
-0.600000 0.000000 0.000000 
-1.200000 -0.900000 0.000000 
0.900000 1.200000 0.000000 
-1.500000 -1.500000 0.000000 
1.500000 1.500000 0.000000 
0.300000 0.900000 0.000000 
-0.900000 -0.300000 0.000000 
3.000000 1.800000 0.000000 
-1.800000 -3.000000 0.000000 
2.700000 1.800000 0.000000 
-1.800000 -2.700000 0.000000 
2.400000 1.800000 0.000000 
-1.200000 -0.600000 0.000000 
0.600000 1.200000 0.000000 
-1.800000 -2.400000 0.000000 
1.200000 1.500000 0.000000 
-1.500000 -1.200000 0.000000 
2.100000 1.800000 0.000000 
-0.300000 0.600000 0.000000 
-0.600000 0.300000 0.000000 
-1.800000 -2.100000 0.000000 
0.000000 0.900000 0.000000 
-0.900000 0.000000 0.000000 
1.800000 1.800000 0.000000 
-1.800000 -1.800000 0.000000 
0.900000 1.500000 0.000000 
-1.500000 -0.900000 0.000000 
-1.200000 -0.300000 0.000000 
0.300000 1.200000 0.000000 
1.500000 1.800000 0.000000 
-1.800000 -1.500000 0.000000 
-0.600000 0.600000 0.000000 
-1.500000 -0.600000 0.000000 
3.000000 2.100000 0.000000 
-2.100000 -3.000000 0.000000 
0.600000 1.500000 0.000000 
2.700000 2.100000 0.000000 
-0.300000 0.900000 0.000000 
-0.900000 0.300000 0.000000 
-2.100000 -2.700000 0.000000 
1.200000 1.800000 0.000000 
-1.800000 -1.200000 0.000000 
2.400000 2.100000 0.000000 
-2.100000 -2.400000 0.000000 
0.000000 1.200000 0.000000 
-1.200000 0.000000 0.000000 
2.100000 2.100000 0.000000 
-2.100000 -2.100000 0.000000 
-2.100000 -1.800000 0.000000 
1.800000 2.100000 0.000000 
0.900000 1.800000 0.000000 
-1.800000 -0.900000 0.000000 
-1.500000 -0.300000 0.000000 
0.300000 1.500000 0.000000 
-0.600000 0.900000 0.000000 
-0.900000 0.600000 0.000000 
1.500000 2.100000 0.000000 
-2.100000 -1.500000 0.000000 
-1.200000 0.300000 0.000000 
-0.300000 1.200000 0.000000 
0.600000 1.800000 0.000000 
-1.800000 -0.600000 0.000000 
3.000000 2.400000 0.000000 
-2.400000 -3.000000 0.000000 
-2.100000 -1.200000 0.000000 
-2.400000 -2.700000 0.000000 
-1.500000 0.000000 0.000000 
1.200000 2.100000 0.000000 
0.000000 1.500000 0.000000 
2.700000 2.400000 0.000000 
2.400000 2.400000 0.000000 
-2.400000 -2.400000 0.000000 
-2.400000 -2.100000 0.000000 
2.100000 2.400000 0.000000 
-1.800000 -0.300000 0.000000 
0.300000 1.800000 0.000000 
0.900000 2.100000 0.000000 
-2.100000 -0.900000 0.000000 
-0.900000 0.900000 0.000000 
-1.200000 0.600000 0.000000 
-0.600000 1.200000 0.000000 
1.800000 2.400000 0.000000 
-2.400000 -1.800000 0.000000 
-1.500000 0.300000 0.000000 
-0.300000 1.500000 0.000000 
1.500000 2.400000 0.000000 
-2.400000 -1.500000 0.000000 
0.600000 2.100000 0.000000 
-2.100000 -0.600000 0.000000 
-1.800000 0.000000 0.000000 
0.000000 1.800000 0.000000 
1.200000 2.400000 0.000000 
-2.400000 -1.200000 0.000000 
-2.700000 -3.000000 0.000000 
3.000000 2.700000 0.000000 
2.700000 2.700000 0.000000 
-2.700000 -2.700000 0.000000 
2.400000 2.700000 0.000000 
-0.900000 1.200000 0.000000 
-2.700000 -2.400000 0.000000 
-1.200000 0.900000 0.000000 
-0.600000 1.500000 0.000000 
-1.500000 0.600000 0.000000 
2.100000 2.700000 0.000000 
0.300000 2.100000 0.000000 
-2.100000 -0.300000 0.000000 
-2.700000 -2.100000 0.000000 
-2.400000 -0.900000 0.000000 
0.900000 2.400000 0.000000 
1.800000 2.700000 0.000000 
-2.700000 -1.800000 0.000000 
-0.300000 1.800000 0.000000 
-1.800000 0.300000 0.000000 
1.500000 2.700000 0.000000 
-2.700000 -1.500000 0.000000 
-2.400000 -0.600000 0.000000 
0.600000 2.400000 0.000000 
0.000000 2.100000 0.000000 
-2.100000 0.000000 0.000000 
-1.200000 1.200000 0.000000 
-1.500000 0.900000 0.000000 
-0.900000 1.500000 0.000000 
1.200000 2.700000 0.000000 
-2.700000 -1.200000 0.000000 
-3.000000 -3.000000 0.000000 
3.000000 3.000000 0.000000 
-0.600000 1.800000 0.000000 
-1.800000 0.600000 0.000000 
-3.000000 -2.700000 0.000000 
2.700000 3.000000 0.000000 
-3.000000 -2.400000 0.000000 
2.400000 3.000000 0.000000 
0.300000 2.400000 0.000000 
-2.400000 -0.300000 0.000000 
-3.000000 -2.100000 0.000000 
[...]
POINT_DATA 441 
VECTORS X_GC float 
3.000000 -3.000000 0.000000 
2.700000 -3.000000 0.000000 
3.000000 -2.700000 0.000000 
2.700000 -2.700000 0.000000 
3.000000 -2.400000 0.000000 
2.400000 -3.000000 0.000000 
2.700000 -2.400000 0.000000 
2.400000 -2.700000 0.000000 
2.400000 -2.400000 0.000000 
2.100000 -3.000000 0.000000 
3.000000 -2.100000 0.000000 
2.700000 -2.100000 0.000000 
2.100000 -2.700000 0.000000 
2.400000 -2.100000 0.000000 
2.100000 -2.400000 0.000000 
3.000000 -1.800000 0.000000 
1.800000 -3.000000 0.000000 
2.700000 -1.800000 0.000000 
1.800000 -2.700000 0.000000 
2.100000 -2.100000 0.000000 
2.400000 -1.800000 0.000000 
1.800000 -2.400000 0.000000 
2.100000 -1.800000 0.000000 
3.000000 -1.500000 0.000000 
1.500000 -3.000000 0.000000 
1.800000 -2.100000 0.000000 
1.500000 -2.700000 0.000000 
2.700000 -1.500000 0.000000 
1.500000 -2.400000 0.000000 
2.400000 -1.500000 0.000000 
1.800000 -1.800000 0.000000 
1.500000 -2.100000 0.000000 
2.100000 -1.500000 0.000000 
1.200000 -3.000000 0.000000 
3.000000 -1.200000 0.000000 
1.200000 -2.700000 0.000000 
2.700000 -1.200000 0.000000 
1.200000 -2.400000 0.000000 
2.400000 -1.200000 0.000000 
1.500000 -1.800000 0.000000 
1.800000 -1.500000 0.000000 
1.200000 -2.100000 0.000000 
2.100000 -1.200000 0.000000 
3.000000 -0.900000 0.000000 
0.900000 -3.000000 0.000000 
2.700000 -0.900000 0.000000 
0.900000 -2.700000 0.000000 
1.500000 -1.500000 0.000000 
1.200000 -1.800000 0.000000 
1.800000 -1.200000 0.000000 
2.400000 -0.900000 0.000000 
0.900000 -2.400000 0.000000 
0.900000 -2.100000 0.000000 
2.100000 -0.900000 0.000000 
1.500000 -1.200000 0.000000 
1.200000 -1.500000 0.000000 
3.000000 -0.600000 0.000000 
0.600000 -3.000000 0.000000 
1.800000 -0.900000 0.000000 
0.900000 -1.800000 0.000000 
0.600000 -2.700000 0.000000 
2.700000 -0.600000 0.000000 
0.600000 -2.400000 0.000000 
2.400000 -0.600000 0.000000 
1.200000 -1.200000 0.000000 
0.600000 -2.100000 0.000000 
2.100000 -0.600000 0.000000 
1.500000 -0.900000 0.000000 
0.900000 -1.500000 0.000000 
0.600000 -1.800000 0.000000 
1.800000 -0.600000 0.000000 
3.000000 -0.300000 0.000000 
0.300000 -3.000000 0.000000 
2.700000 -0.300000 0.000000 
0.300000 -2.700000 0.000000 
2.400000 -0.300000 0.000000 
1.200000 -0.900000 0.000000 
0.900000 -1.200000 0.000000 
0.300000 -2.400000 0.000000 
1.500000 -0.600000 0.000000 
0.600000 -1.500000 0.000000 
2.100000 -0.300000 0.000000 
0.300000 -2.100000 0.000000 
1.800000 -0.300000 0.000000 
0.300000 -1.800000 0.000000 
0.900000 -0.900000 0.000000 
3.000000 0.000000 0.000000 
0.000000 -3.000000 0.000000 
1.200000 -0.600000 0.000000 
0.600000 -1.200000 0.000000 
2.700000 0.000000 0.000000 
0.000000 -2.700000 0.000000 
2.400000 0.000000 0.000000 
0.000000 -2.400000 0.000000 
1.500000 -0.300000 0.000000 
0.300000 -1.500000 0.000000 
2.100000 0.000000 0.000000 
0.000000 -2.100000 0.000000 
0.600000 -0.900000 0.000000 
0.900000 -0.600000 0.000000 
1.800000 0.000000 0.000000 
0.000000 -1.800000 0.000000 
1.200000 -0.300000 0.000000 
0.300000 -1.200000 0.000000 
3.000000 0.300000 0.000000 
-0.300000 -3.000000 0.000000 
2.700000 0.300000 0.000000 
-0.300000 -2.700000 0.000000 
2.400000 0.300000 0.000000 
1.500000 0.000000 0.000000 
0.000000 -1.500000 0.000000 
-0.300000 -2.400000 0.000000 
0.600000 -0.600000 0.000000 
2.100000 0.300000 0.000000 
0.900000 -0.300000 0.000000 
0.300000 -0.900000 0.000000 
-0.300000 -2.100000 0.000000 
1.200000 0.000000 0.000000 
0.000000 -1.200000 0.000000 
1.800000 0.300000 0.000000 
-0.300000 -1.800000 0.000000 
3.000000 0.600000 0.000000 
-0.600000 -3.000000 0.000000 
2.700000 0.600000 0.000000 
-0.600000 -2.700000 0.000000 
0.600000 -0.300000 0.000000 
0.300000 -0.600000 0.000000 
1.500000 0.300000 0.000000 
-0.300000 -1.500000 0.000000 
-0.600000 -2.400000 0.000000 
2.400000 0.600000 0.000000 
0.900000 0.000000 0.000000 
0.000000 -0.900000 0.000000 
-0.600000 -2.100000 0.000000 
2.100000 0.600000 0.000000 
1.200000 0.300000 0.000000 
-0.300000 -1.200000 0.000000 
1.800000 0.600000 0.000000 
-0.600000 -1.800000 0.000000 
0.300000 -0.300000 0.000000 
0.600000 0.000000 0.000000 
0.000000 -0.600000 0.000000 
1.500000 0.600000 0.000000 
-0.600000 -1.500000 0.000000 
3.000000 0.900000 0.000000 
-0.900000 -3.000000 0.000000 
-0.900000 -2.700000 0.000000 
0.900000 0.300000 0.000000 
-0.300000 -0.900000 0.000000 
2.700000 0.900000 0.000000 
2.400000 0.900000 0.000000 
-0.900000 -2.400000 0.000000 
-0.900000 -2.100000 0.000000 
2.100000 0.900000 0.000000 
-0.600000 -1.200000 0.000000 
1.200000 0.600000 0.000000 
0.300000 0.000000 0.000000 
0.000000 -0.300000 0.000000 
0.600000 0.300000 0.000000 
1.800000 0.900000 0.000000 
-0.900000 -1.800000 0.000000 
-0.300000 -0.600000 0.000000 
-0.600000 -0.900000 0.000000 
0.900000 0.600000 0.000000 
1.500000 0.900000 0.000000 
-0.900000 -1.500000 0.000000 
-1.200000 -3.000000 0.000000 
3.000000 1.200000 0.000000 
-1.200000 -2.700000 0.000000 
2.700000 1.200000 0.000000 
-1.200000 -2.400000 0.000000 
2.400000 1.200000 0.000000 
0.000000 0.000000 0.000000 
0.300000 0.300000 0.000000 
-0.300000 -0.300000 0.000000 
-1.200000 -2.100000 0.000000 
2.100000 1.200000 0.000000 
1.200000 0.900000 0.000000 
-0.900000 -1.200000 0.000000 
-0.600000 -0.600000 0.000000 
0.600000 0.600000 0.000000 
1.800000 1.200000 0.000000 
-1.200000 -1.800000 0.000000 
-0.900000 -0.900000 0.000000 
0.900000 0.900000 0.000000 
-1.200000 -1.500000 0.000000 
1.500000 1.200000 0.000000 
0.000000 0.300000 0.000000 
-0.300000 0.000000 0.000000 
0.300000 0.600000 0.000000 
-0.600000 -0.300000 0.000000 
3.000000 1.500000 0.000000 
-1.500000 -3.000000 0.000000 
2.700000 1.500000 0.000000 
-1.500000 -2.700000 0.000000 
-1.500000 -2.400000 0.000000 
2.400000 1.500000 0.000000 
-1.200000 -1.200000 0.000000 
1.200000 1.200000 0.000000 
0.600000 0.900000 0.000000 
-0.900000 -0.600000 0.000000 
-1.500000 -2.100000 0.000000 
2.100000 1.500000 0.000000 
-1.500000 -1.800000 0.000000 
1.800000 1.500000 0.000000 
-0.300000 0.300000 0.000000 
0.000000 0.600000 0.000000 
-0.600000 0.000000 0.000000 
-1.200000 -0.900000 0.000000 
0.900000 1.200000 0.000000 
-1.500000 -1.500000 0.000000 
1.500000 1.500000 0.000000 
0.300000 0.900000 0.000000 
-0.900000 -0.300000 0.000000 
3.000000 1.800000 0.000000 
-1.800000 -3.000000 0.000000 
2.700000 1.800000 0.000000 
-1.800000 -2.700000 0.000000 
2.400000 1.800000 0.000000 
-1.200000 -0.600000 0.000000 
0.600000 1.200000 0.000000 
-1.800000 -2.400000 0.000000 
1.200000 1.500000 0.000000 
-1.500000 -1.200000 0.000000 
2.100000 1.800000 0.000000 
-0.300000 0.600000 0.000000 
-0.600000 0.300000 0.000000 
-1.800000 -2.100000 0.000000 
0.000000 0.900000 0.000000 
-0.900000 0.000000 0.000000 
1.800000 1.800000 0.000000 
-1.800000 -1.800000 0.000000 
0.900000 1.500000 0.000000 
-1.500000 -0.900000 0.000000 
-1.200000 -0.300000 0.000000 
0.300000 1.200000 0.000000 
1.500000 1.800000 0.000000 
-1.800000 -1.500000 0.000000 
-0.600000 0.600000 0.000000 
-1.500000 -0.600000 0.000000 
3.000000 2.100000 0.000000 
-2.100000 -3.000000 0.000000 
0.600000 1.500000 0.000000 
2.700000 2.100000 0.000000 
-0.300000 0.900000 0.000000 
-0.900000 0.300000 0.000000 
-2.100000 -2.700000 0.000000 
1.200000 1.800000 0.000000 
-1.800000 -1.200000 0.000000 
2.400000 2.100000 0.000000 
-2.100000 -2.400000 0.000000 
0.000000 1.200000 0.000000 
-1.200000 0.000000 0.000000 
2.100000 2.100000 0.000000 
-2.100000 -2.100000 0.000000 
-2.100000 -1.800000 0.000000 
1.800000 2.100000 0.000000 
0.900000 1.800000 0.000000 
-1.800000 -0.900000 0.000000 
-1.500000 -0.300000 0.000000 
0.300000 1.500000 0.000000 
-0.600000 0.900000 0.000000 
-0.900000 0.600000 0.000000 
1.500000 2.100000 0.000000 
-2.100000 -1.500000 0.000000 
-1.200000 0.300000 0.000000 
-0.300000 1.200000 0.000000 
0.600000 1.800000 0.000000 
-1.800000 -0.600000 0.000000 
3.000000 2.400000 0.000000 
-2.400000 -3.000000 0.000000 
-2.100000 -1.200000 0.000000 
-2.400000 -2.700000 0.000000 
-1.500000 0.000000 0.000000 
1.200000 2.100000 0.000000 
0.000000 1.500000 0.000000 
2.700000 2.400000 0.000000 
2.400000 2.400000 0.000000 
-2.400000 -2.400000 0.000000 
-2.400000 -2.100000 0.000000 
2.100000 2.400000 0.000000 
-1.800000 -0.300000 0.000000 
0.300000 1.800000 0.000000 
0.900000 2.100000 0.000000 
-2.100000 -0.900000 0.000000 
-0.900000 0.900000 0.000000 
-1.200000 0.600000 0.000000 
-0.600000 1.200000 0.000000 
1.800000 2.400000 0.000000 
-2.400000 -1.800000 0.000000 
-1.500000 0.300000 0.000000 
-0.300000 1.500000 0.000000 
1.500000 2.400000 0.000000 
-2.400000 -1.500000 0.000000 
0.600000 2.100000 0.000000 
-2.100000 -0.600000 0.000000 
-1.800000 0.000000 0.000000 
0.000000 1.800000 0.000000 
1.200000 2.400000 0.000000 
-2.400000 -1.200000 0.000000 
-2.700000 -3.000000 0.000000 
3.000000 2.700000 0.000000 
2.700000 2.700000 0.000000 
-2.700000 -2.700000 0.000000 
2.400000 2.700000 0.000000 
-0.900000 1.200000 0.000000 
-2.700000 -2.400000 0.000000 
-1.200000 0.900000 0.000000 
-0.600000 1.500000 0.000000 
-1.500000 0.600000 0.000000 
2.100000 2.700000 0.000000 
0.300000 2.100000 0.000000 
-2.100000 -0.300000 0.000000 
-2.700000 -2.100000 0.000000 
-2.400000 -0.900000 0.000000 
0.900000 2.400000 0.000000 
1.800000 2.700000 0.000000 
-2.700000 -1.800000 0.000000 
-0.300000 1.800000 0.000000 
-1.800000 0.300000 0.000000 
1.500000 2.700000 0.000000 
-2.700000 -1.500000 0.000000 
-2.400000 -0.600000 0.000000 
0.600000 2.400000 0.000000 
0.000000 2.100000 0.000000 
-2.100000 0.000000 0.000000 
-1.200000 1.200000 0.000000 
-1.500000 0.900000 0.000000 
-0.900000 1.500000 0.000000 
1.200000 2.700000 0.000000 
-2.700000 -1.200000 0.000000 
-3.000000 -3.000000 0.000000 
3.000000 3.000000 0.000000 
-0.600000 1.800000 0.000000 
-1.800000 0.600000 0.000000 
-3.000000 -2.700000 0.000000 
2.700000 3.000000 0.000000 
-3.000000 -2.400000 0.000000 
2.400000 3.000000 0.000000 
0.300000 2.400000 0.000000 
-2.400000 -0.300000 0.000000 
-3.000000 -2.100000 0.000000 
2.100000 3.000000 0.000000 
0.900000 2.700000 0.000000 
-2.700000 -0.900000 0.000000 
-0.300000 2.100000 0.000000 
-2.100000 0.300000 0.000000 
-3.000000 -1.800000 0.000000 
1.800000 3.000000 0.000000 
-1.500000 1.200000 0.000000 
-1.200000 1.500000 0.000000 
-2.400000 0.000000 0.000000 
0.000000 2.400000 0.000000 
-3.000000 -1.500000 0.000000 
1.500000 3.000000 0.000000 
0.600000 2.700000 0.000000 
-2.700000 -0.600000 0.000000 
-0.900000 1.800000 0.000000 
-1.800000 0.900000 0.000000 
-0.600000 2.100000 0.000000 
-2.100000 0.600000 0.000000 
-3.000000 -1.200000 0.000000 
1.200000 3.000000 0.000000 
0.300000 2.700000 0.000000 
-2.700000 -0.300000 0.000000 
-0.300000 2.400000 0.000000 
-2.400000 0.300000 0.000000 
-3.000000 -0.900000 0.000000 
0.900000 3.000000 0.000000 
-1.500000 1.500000 0.000000 
-1.800000 1.200000 0.000000 
-1.200000 1.800000 0.000000 
-0.900000 2.100000 0.000000 
-2.100000 0.900000 0.000000 
0.000000 2.700000 0.000000 
-2.700000 0.000000 0.000000 
-3.000000 -0.600000 0.000000 
0.600000 3.000000 0.000000 
-2.400000 0.600000 0.000000 
-0.600000 2.400000 0.000000 
-3.000000 -0.300000 0.000000 
0.300000 3.000000 0.000000 
-1.500000 1.800000 0.000000 
-1.800000 1.500000 0.000000 
-0.300000 2.700000 0.000000 
-2.700000 0.300000 0.000000 
-1.200000 2.100000 0.000000 
-2.100000 1.200000 0.000000 
-2.400000 0.900000 0.000000 
-0.900000 2.400000 0.000000 
-3.000000 0.000000 0.000000 
0.000000 3.000000 0.000000 
-0.600000 2.700000 0.000000 
-2.700000 0.600000 0.000000 
-1.800000 1.800000 0.000000 
-2.100000 1.500000 0.000000 
-1.500000 2.100000 0.000000 
-2.400000 1.200000 0.000000 
-1.200000 2.400000 0.000000 
-3.000000 0.300000 0.000000 
-0.300000 3.000000 0.000000 
-2.700000 0.900000 0.000000 
-0.900000 2.700000 0.000000 
-3.000000 0.600000 0.000000 
-0.600000 3.000000 0.000000 
-1.800000 2.100000 0.000000 
-2.100000 1.800000 0.000000 
-2.400000 1.500000 0.000000 
-1.500000 2.400000 0.000000 
-1.200000 2.700000 0.000000 
-2.700000 1.200000 0.000000 
-3.000000 0.900000 0.000000 
-0.900000 3.000000 0.000000 
-2.100000 2.100000 0.000000 
-2.400000 1.800000 0.000000 
-1.800000 2.400000 0.000000 
-1.500000 2.700000 0.000000 
-2.700000 1.500000 0.000000 
-3.000000 1.200000 0.000000 
-1.200000 3.000000 0.000000 
-2.400000 2.100000 0.000000 
-2.100000 2.400000 0.000000 
-1.800000 2.700000 0.000000 
-2.700000 1.800000 0.000000 
-3.000000 1.500000 0.000000 
-1.500000 3.000000 0.000000 
-2.400000 2.400000 0.000000 
-2.100000 2.700000 0.000000 
-2.700000 2.100000 0.000000 
-1.800000 3.000000 0.000000 
-3.000000 1.800000 0.000000 
-2.400000 2.700000 0.000000 
-2.700000 2.400000 0.000000 
-3.000000 2.100000 0.000000 
-2.100000 3.000000 0.000000 
-2.700000 2.700000 0.000000 
-3.000000 2.400000 0.000000 
-2.400000 3.000000 0.000000 
-3.000000 2.700000 0.000000 
-2.700000 3.000000 0.000000 
-3.000000 3.000000 0.000000 
VECTORS MOMENTUM float 
0.000000 0.000000 0.000000 
0.000000 0.000000 0.000000 
0.000000 0.000000 0.000000 
0.000000 0.000000 0.000000 
0.000000 0.000000 0.000000 
1201.154226 -9045.624765 0.000000 
0.000000 0.000000 0.000000 
6797.012923 9171.406193 0.000000 
-115.586850 56.594200 0.000000 
-1330.018117 -11188.607198 0.000000 
0.000000 0.000000 0.000000 
0.000000 0.000000 0.000000 
-6645.490806 11047.977090 0.000000 
-2.904944 -31.783484 0.000000 
107.115279 113.988258 0.000000 
204030.738543 -34494.233016 0.000000 
0.000000 0.000000 0.000000 
-206429.175688 -65775.896461 0.000000 
0.000000 0.000000 0.000000 
33.108896 -161.380581 0.000000 
0.000000 0.000000 0.000000 
0.000000 0.000000 0.000000 
0.000000 0.000000 0.000000 
50784.845817 36906.050277 0.000000 
0.000000 0.000000 0.000000 
6.129238 26.940098 0.000000 
0.000000 0.000000 0.000000 
-48358.034055 63338.111658 0.000000 
0.000000 0.000000 0.000000 
-61.580488 92.360134 0.000000 
-47.050152 -47.824019 0.000000 
9.898086 37.880301 0.000000 
43.086770 -9.094934 0.000000 
0.000000 0.000000 0.000000 
0.000000 0.000000 0.000000 
0.000000 0.000000 0.000000 
0.000000 0.000000 0.000000 
0.000000 0.000000 0.000000 
19.128826 -63.059592 0.000000 
48.421870 -29.099207 0.000000 
-32.192279 53.569079 0.000000 
-871.995482 637.506390 0.000000 
23.379023 -30.807001 0.000000 
0.000000 0.000000 0.000000 
0.000000 0.000000 0.000000 
0.000000 0.000000 0.000000 
0.000000 0.000000 0.000000 
27.044160 -6.555566 0.000000 
-484.996966 177.014652 0.000000 
10.052627 -43.006784 0.000000 
0.000000 0.000000 0.000000 
0.000000 0.000000 0.000000 
35.064607 88.501852 0.000000 
0.000000 0.000000 0.000000 
13.827822 -13.859297 0.000000 
0.000000 0.000000 0.000000 
0.000000 0.000000 0.000000 
0.000000 0.000000 0.000000 
0.000000 0.000000 0.000000 
-57970.215225 18110.380200 0.000000 
0.000000 0.000000 0.000000 
0.000000 0.000000 0.000000 
0.000000 0.000000 0.000000 
0.000000 0.000000 0.000000 
0.000000 0.000000 0.000000 
0.000000 0.000000 0.000000 
0.000000 0.000000 0.000000 
-226.266483 3687.120070 0.000000 
-62813.987102 13379.436384 0.000000 
26877.010731 35163.769916 0.000000 
0.000000 0.000000 0.000000 
0.000000 0.000000 0.000000 
0.000000 0.000000 0.000000 
0.000000 0.000000 0.000000 
0.000000 0.000000 0.000000 
0.000000 0.000000 0.000000 
2016.976349 7225.897547 0.000000 
0.000000 0.000000 0.000000 
-67.247509 110.083872 0.000000 
-173376.476672 182664.390068 0.000000 
95251.830725 -67587.032007 0.000000 
-89972.637141 184132.764909 0.000000 
-127.959954 -72.859085 0.000000 
485445.606699 625992.102546 0.000000 
0.000000 0.000000 0.000000 
0.000000 0.000000 0.000000 
0.000000 0.000000 0.000000 
0.000000 0.000000 0.000000 
80675.786097 150035.969502 0.000000 
59795253201.291306 -17506127062.487698 0.000000 
0.000000 0.000000 0.000000 
0.000000 0.000000 0.000000 
-85165591.200175 327061613.505382 0.000000 
22.526133 194.515502 0.000000 
-20574.844442 -62494.117743 0.000000 
2083930907.434089 -847304501191.804077 0.000000 
476533807.944674 470148976.701149 0.000000 
172.032143 -254.491806 0.000000 
80708438402.926147 35956190185.244164 0.000000 
0.000000 0.000000 0.000000 
39916384.727135 44840218.928704 0.000000 
-11855328.870509 1351892494.397905 0.000000 
63462.869562 -251523.213489 0.000000 
2395004252511.864746 584232181428.663574 0.000000 
0.000000 0.000000 0.000000 
0.000000 0.000000 0.000000 
0.000000 0.000000 0.000000 
0.000000 0.000000 0.000000 
-427119058.824380 -737802585.457673 0.000000 
-11735.685988 13345.864988 0.000000 
-744324122642.794067 -949594070389.380127 0.000000 
0.000000 0.000000 0.000000 
-2446665905.851139 -2308168620.254932 0.000000 
16734128.371990 6102820.713560 0.000000 
0.000000 0.000000 0.000000 
1041825694981.942017 1364083770974.900635 0.000000 
0.000000 0.000000 0.000000 
59807.105543 -42940.496246 0.000000 
-726074725996.004150 -6852392360402.052734 0.000000 
100448125.420934 83296946.878944 0.000000 
-175232108.591375 22752852.111588 0.000000 
0.000000 0.000000 0.000000 
0.000000 0.000000 0.000000 
0.000000 0.000000 0.000000 
0.000000 0.000000 0.000000 
-920300769.782058 -1481039646.863766 0.000000 
-1505187841.170411 13370629803.596739 0.000000 
1510730.253060 1286963.808139 0.000000 
-797134474.523248 -209842272.976682 0.000000 
0.000000 0.000000 0.000000 
-46185406.644047 -50377847.247771 0.000000 
0.000000 0.000000 0.000000 
3997204268868.996582 7813923510043.881836 0.000000 
0.000000 0.000000 0.000000 
-62124829.001370 -109593497.707538 0.000000 
-245176.799916 -79981.429336 0.000000 
-2495307688189.376465 -4311386360720.538086 0.000000 
-15620757.225895 -34431922.085375 0.000000 
0.000000 0.000000 0.000000 
-11694516319.636793 -19696657253.266029 0.000000 
861832.964558 -2269968.748901 0.000000 
8995626722.184391 25088046737.030834 0.000000 
606545.883024 -1244049.103788 0.000000 
0.000000 0.000000 0.000000 
0.000000 0.000000 0.000000 
0.000000 0.000000 0.000000 
0.000000 0.000000 0.000000 
343763.543287 217544.897463 0.000000 
-3579166578211.119141 3199327040517.872559 0.000000 
0.000000 0.000000 0.000000 
0.000000 0.000000 0.000000 
0.000000 0.000000 0.000000 
0.000000 0.000000 0.000000 
0.000000 0.000000 0.000000 
-29965375840.888954 -19569463981.682373 0.000000 
-18027.592598 -79140.174024 0.000000 
-391751932.880796 -322416891.104480 0.000000 
14294239757.354115 -19834387997.544956 0.000000 
-9244043.160373 2940329.537933 0.000000 
-10623.710877 -30430.738092 0.000000 
0.000000 0.000000 0.000000 
-20721320.684006 6180103942.024086 0.000000 
-1098526151.162950 759155834.284803 0.000000 
1440.732458 -104143.284967 0.000000 
-738.349993 -21544.548304 0.000000 
0.000000 0.000000 0.000000 
0.000000 0.000000 0.000000 
0.000000 0.000000 0.000000 
0.000000 0.000000 0.000000 
0.000000 0.000000 0.000000 
0.000000 0.000000 0.000000 
0.000000 0.000000 0.000000 
54998515764.485039 -76213299362.433487 0.000000 
80245281.514326 -61799583.550861 0.000000 
9145578321.030685 -11351242736.289621 0.000000 
0.000000 0.000000 0.000000 
0.000000 0.000000 0.000000 
0.000000 0.000000 0.000000 
0.000000 0.000000 0.000000 
-87052825.516212 1208702161.134171 0.000000 
-22157031.998302 -16583435.143429 0.000000 
0.000000 0.000000 0.000000 
0.000000 0.000000 0.000000 
0.000000 0.000000 0.000000 
0.000000 0.000000 0.000000 
0.000000 0.000000 0.000000 
-7900.718304 88.716849 0.000000 
180659351318.595337 84375406125.679459 0.000000 
-94373264838.184631 -140977803303.970795 0.000000 
-138448843.981074 -69409745.115772 0.000000 
1308603413.847211 -1944668916.626888 0.000000 
0.000000 0.000000 0.000000 
0.000000 0.000000 0.000000 
0.000000 0.000000 0.000000 
0.000000 0.000000 0.000000 
0.000000 0.000000 0.000000 
0.000000 0.000000 0.000000 
0.000000 0.000000 0.000000 
17723.186750 23232.504180 0.000000 
0.000000 0.000000 0.000000 
0.000000 0.000000 0.000000 
0.000000 0.000000 0.000000 
-31248.980606 33622.005112 0.000000 
0.000000 0.000000 0.000000 
-886765.405366 283224.857781 0.000000 
-151417102427.118103 135378765326.156754 0.000000 
7572264271.782326 5791762501.224599 0.000000 
-4589415450.167379 -4590011441.165526 0.000000 
-42549.435374 32745.970040 0.000000 
0.000000 0.000000 0.000000 