# vtk DataFile Version 3.0 
vtk output 
ASCII 
DATASET UNSTRUCTURED_GRID 
POINTS 16 float 
3.000000 -3.000000 0.000000 
1.000000 -3.000000 0.000000 
3.000000 -1.000000 0.000000 
1.000000 -1.000000 0.000000 
-1.000000 -3.000000 0.000000 
3.000000 1.000000 0.000000 
1.000000 1.000000 0.000000 
-1.000000 -1.000000 0.000000 
-1.000000 1.000000 0.000000 
-3.000000 -3.000000 0.000000 
3.000000 3.000000 0.000000 
1.000000 3.000000 0.000000 
-3.000000 -1.000000 0.000000 
-1.000000 3.000000 0.000000 
-3.000000 1.000000 0.000000 
-3.000000 3.000000 0.000000 
CELLS 9 45 
4 11  6  5  10 
4 13  8  6  11 
4 15  14  8  13 
4 6  3  2  5 
4 8  7  3  6 
4 14  12  7  8 
4 3  1  0  2 
4 7  4  1  3 
4 12  9  4  7 
CELL_TYPES 9 
9 
9 
9 
9 
9 
9 
9 
9 
9 
POINT_DATA 16 
VECTORS X_GC float 
3.000000 -3.000000 0.000000 
1.000000 -3.000000 0.000000 
3.000000 -1.000000 0.000000 
1.000000 -1.000000 0.000000 
-1.000000 -3.000000 0.000000 
3.000000 1.000000 0.000000 
1.000000 1.000000 0.000000 
-1.000000 -1.000000 0.000000 
-1.000000 1.000000 0.000000 
-3.000000 -3.000000 0.000000 
3.000000 3.000000 0.000000 
1.000000 3.000000 0.000000 
-3.000000 -1.000000 0.000000 
-1.000000 3.000000 0.000000 
-3.000000 1.000000 0.000000 
-3.000000 3.000000 0.000000 
SCALARS Nod_Mass float 
LOOKUP_TABLE default 
0.000000 
0.700000 
0.000000 
5.600000 
0.700000 
0.000000 
2.100000 
5.600000 
2.100000 
0.000000 
0.000000 
0.000000 
0.000000 
0.000000 
0.000000 
0.000000 
CELL_DATA 9 
SCALARS Active_Elem int 1 
LOOKUP_TABLE table_Elem 
0
0
0
0
2
0
1
2
1
