# vtk DataFile Version 3.0 
vtk output 
ASCII 
DATASET UNSTRUCTURED_GRID 
POINTS 441 float 
3.000000 -3.000000 0.000000 
2.700000 -3.000000 0.000000 
3.000000 -2.700000 0.000000 
2.700000 -2.700000 0.000000 
3.000000 -2.400000 0.000000 
2.400000 -3.000000 0.000000 
2.700000 -2.400000 0.000000 
2.400000 -2.700000 0.000000 
2.400000 -2.400000 0.000000 
2.100000 -3.000000 0.000000 
3.000000 -2.100000 0.000000 
2.700000 -2.100000 0.000000 
2.100000 -2.700000 0.000000 
2.400000 -2.100000 0.000000 
2.100000 -2.400000 0.000000 
3.000000 -1.800000 0.000000 
1.800000 -3.000000 0.000000 
2.700000 -1.800000 0.000000 
1.800000 -2.700000 0.000000 
2.100000 -2.100000 0.000000 
2.400000 -1.800000 0.000000 
1.800000 -2.400000 0.000000 
2.100000 -1.800000 0.000000 
3.000000 -1.500000 0.000000 
1.500000 -3.000000 0.000000 
1.800000 -2.100000 0.000000 
1.500000 -2.700000 0.000000 
2.700000 -1.500000 0.000000 
1.500000 -2.400000 0.000000 
2.400000 -1.500000 0.000000 
1.800000 -1.800000 0.000000 
1.500000 -2.100000 0.000000 
2.100000 -1.500000 0.000000 
1.200000 -3.000000 0.000000 
3.000000 -1.200000 0.000000 
1.200000 -2.700000 0.000000 
2.700000 -1.200000 0.000000 
1.200000 -2.400000 0.000000 
2.400000 -1.200000 0.000000 
1.500000 -1.800000 0.000000 
1.800000 -1.500000 0.000000 
1.200000 -2.100000 0.000000 
2.100000 -1.200000 0.000000 
3.000000 -0.900000 0.000000 
0.900000 -3.000000 0.000000 
2.700000 -0.900000 0.000000 
0.900000 -2.700000 0.000000 
1.500000 -1.500000 0.000000 
1.200000 -1.800000 0.000000 
1.800000 -1.200000 0.000000 
2.400000 -0.900000 0.000000 
0.900000 -2.400000 0.000000 
0.900000 -2.100000 0.000000 
2.100000 -0.900000 0.000000 
1.500000 -1.200000 0.000000 
1.200000 -1.500000 0.000000 
3.000000 -0.600000 0.000000 
0.600000 -3.000000 0.000000 
1.800000 -0.900000 0.000000 
0.900000 -1.800000 0.000000 
0.600000 -2.700000 0.000000 
2.700000 -0.600000 0.000000 
0.600000 -2.400000 0.000000 
2.400000 -0.600000 0.000000 
1.200000 -1.200000 0.000000 
0.600000 -2.100000 0.000000 
2.100000 -0.600000 0.000000 
1.500000 -0.900000 0.000000 
0.900000 -1.500000 0.000000 
0.600000 -1.800000 0.000000 
1.800000 -0.600000 0.000000 
3.000000 -0.300000 0.000000 
0.300000 -3.000000 0.000000 
2.700000 -0.300000 0.000000 
0.300000 -2.700000 0.000000 
2.400000 -0.300000 0.000000 
1.200000 -0.900000 0.000000 
0.900000 -1.200000 0.000000 
0.300000 -2.400000 0.000000 
1.500000 -0.600000 0.000000 
0.600000 -1.500000 0.000000 
2.100000 -0.300000 0.000000 
0.300000 -2.100000 0.000000 
1.800000 -0.300000 0.000000 
0.300000 -1.800000 0.000000 
0.900000 -0.900000 0.000000 
3.000000 0.000000 0.000000 
0.000000 -3.000000 0.000000 
1.200000 -0.600000 0.000000 
0.600000 -1.200000 0.000000 
2.700000 0.000000 0.000000 
0.000000 -2.700000 0.000000 
2.400000 0.000000 0.000000 
0.000000 -2.400000 0.000000 
1.500000 -0.300000 0.000000 
0.300000 -1.500000 0.000000 
2.100000 0.000000 0.000000 
0.000000 -2.100000 0.000000 
0.600000 -0.900000 0.000000 
0.900000 -0.600000 0.000000 
1.800000 0.000000 0.000000 
0.000000 -1.800000 0.000000 
1.200000 -0.300000 0.000000 
0.300000 -1.200000 0.000000 
3.000000 0.300000 0.000000 
-0.300000 -3.000000 0.000000 
2.700000 0.300000 0.000000 
-0.300000 -2.700000 0.000000 
2.400000 0.300000 0.000000 
1.500000 0.000000 0.000000 
0.000000 -1.500000 0.000000 
-0.300000 -2.400000 0.000000 
0.600000 -0.600000 0.000000 
2.100000 0.300000 0.000000 
0.900000 -0.300000 0.000000 
0.300000 -0.900000 0.000000 
-0.300000 -2.100000 0.000000 
1.200000 0.000000 0.000000 
0.000000 -1.200000 0.000000 
1.800000 0.300000 0.000000 
-0.300000 -1.800000 0.000000 
3.000000 0.600000 0.000000 
-0.600000 -3.000000 0.000000 
2.700000 0.600000 0.000000 
-0.600000 -2.700000 0.000000 
0.600000 -0.300000 0.000000 
0.300000 -0.600000 0.000000 
1.500000 0.300000 0.000000 
-0.300000 -1.500000 0.000000 
-0.600000 -2.400000 0.000000 
2.400000 0.600000 0.000000 
0.900000 0.000000 0.000000 
0.000000 -0.900000 0.000000 
-0.600000 -2.100000 0.000000 
2.100000 0.600000 0.000000 
1.200000 0.300000 0.000000 
-0.300000 -1.200000 0.000000 
1.800000 0.600000 0.000000 
-0.600000 -1.800000 0.000000 
0.300000 -0.300000 0.000000 
0.600000 0.000000 0.000000 
0.000000 -0.600000 0.000000 
1.500000 0.600000 0.000000 
-0.600000 -1.500000 0.000000 
3.000000 0.900000 0.000000 
-0.900000 -3.000000 0.000000 
-0.900000 -2.700000 0.000000 
0.900000 0.300000 0.000000 
-0.300000 -0.900000 0.000000 
2.700000 0.900000 0.000000 
2.400000 0.900000 0.000000 
-0.900000 -2.400000 0.000000 
-0.900000 -2.100000 0.000000 
2.100000 0.900000 0.000000 
-0.600000 -1.200000 0.000000 
1.200000 0.600000 0.000000 
0.300000 0.000000 0.000000 
0.000000 -0.300000 0.000000 
0.600000 0.300000 0.000000 
1.800000 0.900000 0.000000 
-0.900000 -1.800000 0.000000 
-0.300000 -0.600000 0.000000 
-0.600000 -0.900000 0.000000 
0.900000 0.600000 0.000000 
1.500000 0.900000 0.000000 
-0.900000 -1.500000 0.000000 
-1.200000 -3.000000 0.000000 
3.000000 1.200000 0.000000 
-1.200000 -2.700000 0.000000 
2.700000 1.200000 0.000000 
-1.200000 -2.400000 0.000000 
2.400000 1.200000 0.000000 
0.000000 0.000000 0.000000 
0.300000 0.300000 0.000000 
-0.300000 -0.300000 0.000000 
-1.200000 -2.100000 0.000000 
2.100000 1.200000 0.000000 
1.200000 0.900000 0.000000 
-0.900000 -1.200000 0.000000 
-0.600000 -0.600000 0.000000 
0.600000 0.600000 0.000000 
1.800000 1.200000 0.000000 
-1.200000 -1.800000 0.000000 
-0.900000 -0.900000 0.000000 
0.900000 0.900000 0.000000 
-1.200000 -1.500000 0.000000 
1.500000 1.200000 0.000000 
0.000000 0.300000 0.000000 
-0.300000 0.000000 0.000000 
0.300000 0.600000 0.000000 
-0.600000 -0.300000 0.000000 
3.000000 1.500000 0.000000 
-1.500000 -3.000000 0.000000 
2.700000 1.500000 0.000000 
-1.500000 -2.700000 0.000000 
-1.500000 -2.400000 0.000000 
2.400000 1.500000 0.000000 
-1.200000 -1.200000 0.000000 
1.200000 1.200000 0.000000 
0.600000 0.900000 0.000000 
-0.900000 -0.600000 0.000000 
-1.500000 -2.100000 0.000000 
2.100000 1.500000 0.000000 
-1.500000 -1.800000 0.000000 
1.800000 1.500000 0.000000 
-0.300000 0.300000 0.000000 
0.000000 0.600000 0.000000 
-0.600000 0.000000 0.000000 
-1.200000 -0.900000 0.000000 
0.900000 1.200000 0.000000 
-1.500000 -1.500000 0.000000 
1.500000 1.500000 0.000000 
0.300000 0.900000 0.000000 
-0.900000 -0.300000 0.000000 
3.000000 1.800000 0.000000 
-1.800000 -3.000000 0.000000 
2.700000 1.800000 0.000000 
-1.800000 -2.700000 0.000000 
2.400000 1.800000 0.000000 
-1.200000 -0.600000 0.000000 
0.600000 1.200000 0.000000 
-1.800000 -2.400000 0.000000 
1.200000 1.500000 0.000000 
-1.500000 -1.200000 0.000000 
2.100000 1.800000 0.000000 
-0.300000 0.600000 0.000000 
-0.600000 0.300000 0.000000 
-1.800000 -2.100000 0.000000 
0.000000 0.900000 0.000000 
-0.900000 0.000000 0.000000 
1.800000 1.800000 0.000000 
-1.800000 -1.800000 0.000000 
0.900000 1.500000 0.000000 
-1.500000 -0.900000 0.000000 
-1.200000 -0.300000 0.000000 
0.300000 1.200000 0.000000 
1.500000 1.800000 0.000000 
-1.800000 -1.500000 0.000000 
-0.600000 0.600000 0.000000 
-1.500000 -0.600000 0.000000 
3.000000 2.100000 0.000000 
-2.100000 -3.000000 0.000000 
0.600000 1.500000 0.000000 
2.700000 2.100000 0.000000 
-0.300000 0.900000 0.000000 
-0.900000 0.300000 0.000000 
-2.100000 -2.700000 0.000000 
1.200000 1.800000 0.000000 
-1.800000 -1.200000 0.000000 
2.400000 2.100000 0.000000 
-2.100000 -2.400000 0.000000 
0.000000 1.200000 0.000000 
-1.200000 0.000000 0.000000 
2.100000 2.100000 0.000000 
-2.100000 -2.100000 0.000000 
-2.100000 -1.800000 0.000000 
1.800000 2.100000 0.000000 
0.900000 1.800000 0.000000 
-1.800000 -0.900000 0.000000 
-1.500000 -0.300000 0.000000 
0.300000 1.500000 0.000000 
-0.600000 0.900000 0.000000 
-0.900000 0.600000 0.000000 
1.500000 2.100000 0.000000 
-2.100000 -1.500000 0.000000 
-1.200000 0.300000 0.000000 
-0.300000 1.200000 0.000000 
0.600000 1.800000 0.000000 
-1.800000 -0.600000 0.000000 
3.000000 2.400000 0.000000 
-2.400000 -3.000000 0.000000 
-2.100000 -1.200000 0.000000 
-2.400000 -2.700000 0.000000 
-1.500000 0.000000 0.000000 
1.200000 2.100000 0.000000 
0.000000 1.500000 0.000000 
2.700000 2.400000 0.000000 
2.400000 2.400000 0.000000 
-2.400000 -2.400000 0.000000 
-2.400000 -2.100000 0.000000 
2.100000 2.400000 0.000000 
-1.800000 -0.300000 0.000000 
0.300000 1.800000 0.000000 
0.900000 2.100000 0.000000 
-2.100000 -0.900000 0.000000 
-0.900000 0.900000 0.000000 
-1.200000 0.600000 0.000000 
-0.600000 1.200000 0.000000 
1.800000 2.400000 0.000000 
-2.400000 -1.800000 0.000000 
-1.500000 0.300000 0.000000 
-0.300000 1.500000 0.000000 
1.500000 2.400000 0.000000 
-2.400000 -1.500000 0.000000 
0.600000 2.100000 0.000000 
-2.100000 -0.600000 0.000000 
-1.800000 0.000000 0.000000 
0.000000 1.800000 0.000000 
1.200000 2.400000 0.000000 
-2.400000 -1.200000 0.000000 
-2.700000 -3.000000 0.000000 
3.000000 2.700000 0.000000 
2.700000 2.700000 0.000000 
-2.700000 -2.700000 0.000000 
2.400000 2.700000 0.000000 
-0.900000 1.200000 0.000000 
-2.700000 -2.400000 0.000000 
-1.200000 0.900000 0.000000 
-0.600000 1.500000 0.000000 
-1.500000 0.600000 0.000000 
2.100000 2.700000 0.000000 
0.300000 2.100000 0.000000 
-2.100000 -0.300000 0.000000 
-2.700000 -2.100000 0.000000 
-2.400000 -0.900000 0.000000 
0.900000 2.400000 0.000000 
1.800000 2.700000 0.000000 
-2.700000 -1.800000 0.000000 
-0.300000 1.800000 0.000000 
-1.800000 0.300000 0.000000 
1.500000 2.700000 0.000000 
-2.700000 -1.500000 0.000000 
-2.400000 -0.600000 0.000000 
0.600000 2.400000 0.000000 
0.000000 2.100000 0.000000 
-2.100000 0.000000 0.000000 
-1.200000 1.200000 0.000000 
-1.500000 0.900000 0.000000 
-0.900000 1.500000 0.000000 
1.200000 2.700000 0.000000 
-2.700000 -1.200000 0.000000 
-3.000000 -3.000000 0.000000 
3.000000 3.000000 0.000000 
-0.600000 1.800000 0.000000 
-1.800000 0.600000 0.000000 
-3.000000 -2.700000 0.000000 
2.700000 3.000000 0.000000 
-3.000000 -2.400000 0.000000 
2.400000 3.000000 0.000000 
0.300000 2.400000 0.000000 
-2.400000 -0.300000 0.000000 
-3.000000 -2.100000 0.000000 
[...]
POINT_DATA 441 
VECTORS X_GC float 
3.000000 -3.000000 0.000000 
2.700000 -3.000000 0.000000 
3.000000 -2.700000 0.000000 
2.700000 -2.700000 0.000000 
3.000000 -2.400000 0.000000 
2.400000 -3.000000 0.000000 
2.700000 -2.400000 0.000000 
2.400000 -2.700000 0.000000 
2.400000 -2.400000 0.000000 
2.100000 -3.000000 0.000000 
3.000000 -2.100000 0.000000 
2.700000 -2.100000 0.000000 
2.100000 -2.700000 0.000000 
2.400000 -2.100000 0.000000 
2.100000 -2.400000 0.000000 
3.000000 -1.800000 0.000000 
1.800000 -3.000000 0.000000 
2.700000 -1.800000 0.000000 
1.800000 -2.700000 0.000000 
2.100000 -2.100000 0.000000 
2.400000 -1.800000 0.000000 
1.800000 -2.400000 0.000000 
2.100000 -1.800000 0.000000 
3.000000 -1.500000 0.000000 
1.500000 -3.000000 0.000000 
1.800000 -2.100000 0.000000 
1.500000 -2.700000 0.000000 
2.700000 -1.500000 0.000000 
1.500000 -2.400000 0.000000 
2.400000 -1.500000 0.000000 
1.800000 -1.800000 0.000000 
1.500000 -2.100000 0.000000 
2.100000 -1.500000 0.000000 
1.200000 -3.000000 0.000000 
3.000000 -1.200000 0.000000 
1.200000 -2.700000 0.000000 
2.700000 -1.200000 0.000000 
1.200000 -2.400000 0.000000 
2.400000 -1.200000 0.000000 
1.500000 -1.800000 0.000000 
1.800000 -1.500000 0.000000 
1.200000 -2.100000 0.000000 
2.100000 -1.200000 0.000000 
3.000000 -0.900000 0.000000 
0.900000 -3.000000 0.000000 
2.700000 -0.900000 0.000000 
0.900000 -2.700000 0.000000 
1.500000 -1.500000 0.000000 
1.200000 -1.800000 0.000000 
1.800000 -1.200000 0.000000 
2.400000 -0.900000 0.000000 
0.900000 -2.400000 0.000000 
0.900000 -2.100000 0.000000 
2.100000 -0.900000 0.000000 
1.500000 -1.200000 0.000000 
1.200000 -1.500000 0.000000 
3.000000 -0.600000 0.000000 
0.600000 -3.000000 0.000000 
1.800000 -0.900000 0.000000 
0.900000 -1.800000 0.000000 
0.600000 -2.700000 0.000000 
2.700000 -0.600000 0.000000 
0.600000 -2.400000 0.000000 
2.400000 -0.600000 0.000000 
1.200000 -1.200000 0.000000 
0.600000 -2.100000 0.000000 
2.100000 -0.600000 0.000000 
1.500000 -0.900000 0.000000 
0.900000 -1.500000 0.000000 
0.600000 -1.800000 0.000000 
1.800000 -0.600000 0.000000 
3.000000 -0.300000 0.000000 
0.300000 -3.000000 0.000000 
2.700000 -0.300000 0.000000 
0.300000 -2.700000 0.000000 
2.400000 -0.300000 0.000000 
1.200000 -0.900000 0.000000 
0.900000 -1.200000 0.000000 
0.300000 -2.400000 0.000000 
1.500000 -0.600000 0.000000 
0.600000 -1.500000 0.000000 
2.100000 -0.300000 0.000000 
0.300000 -2.100000 0.000000 
1.800000 -0.300000 0.000000 
0.300000 -1.800000 0.000000 
0.900000 -0.900000 0.000000 
3.000000 0.000000 0.000000 
0.000000 -3.000000 0.000000 
1.200000 -0.600000 0.000000 
0.600000 -1.200000 0.000000 
2.700000 0.000000 0.000000 
0.000000 -2.700000 0.000000 
2.400000 0.000000 0.000000 
0.000000 -2.400000 0.000000 
1.500000 -0.300000 0.000000 
0.300000 -1.500000 0.000000 
2.100000 0.000000 0.000000 
0.000000 -2.100000 0.000000 
0.600000 -0.900000 0.000000 
0.900000 -0.600000 0.000000 
1.800000 0.000000 0.000000 
0.000000 -1.800000 0.000000 
1.200000 -0.300000 0.000000 
0.300000 -1.200000 0.000000 
3.000000 0.300000 0.000000 
-0.300000 -3.000000 0.000000 
2.700000 0.300000 0.000000 
-0.300000 -2.700000 0.000000 
2.400000 0.300000 0.000000 
1.500000 0.000000 0.000000 
0.000000 -1.500000 0.000000 
-0.300000 -2.400000 0.000000 
0.600000 -0.600000 0.000000 
2.100000 0.300000 0.000000 
0.900000 -0.300000 0.000000 
0.300000 -0.900000 0.000000 
-0.300000 -2.100000 0.000000 
1.200000 0.000000 0.000000 
0.000000 -1.200000 0.000000 
1.800000 0.300000 0.000000 
-0.300000 -1.800000 0.000000 
3.000000 0.600000 0.000000 
-0.600000 -3.000000 0.000000 
2.700000 0.600000 0.000000 
-0.600000 -2.700000 0.000000 
0.600000 -0.300000 0.000000 
0.300000 -0.600000 0.000000 
1.500000 0.300000 0.000000 
-0.300000 -1.500000 0.000000 
-0.600000 -2.400000 0.000000 
2.400000 0.600000 0.000000 
0.900000 0.000000 0.000000 
0.000000 -0.900000 0.000000 
-0.600000 -2.100000 0.000000 
2.100000 0.600000 0.000000 
1.200000 0.300000 0.000000 
-0.300000 -1.200000 0.000000 
1.800000 0.600000 0.000000 
-0.600000 -1.800000 0.000000 
0.300000 -0.300000 0.000000 
0.600000 0.000000 0.000000 
0.000000 -0.600000 0.000000 
1.500000 0.600000 0.000000 
-0.600000 -1.500000 0.000000 
3.000000 0.900000 0.000000 
-0.900000 -3.000000 0.000000 
-0.900000 -2.700000 0.000000 
0.900000 0.300000 0.000000 
-0.300000 -0.900000 0.000000 
2.700000 0.900000 0.000000 
2.400000 0.900000 0.000000 
-0.900000 -2.400000 0.000000 
-0.900000 -2.100000 0.000000 
2.100000 0.900000 0.000000 
-0.600000 -1.200000 0.000000 
1.200000 0.600000 0.000000 
0.300000 0.000000 0.000000 
0.000000 -0.300000 0.000000 
0.600000 0.300000 0.000000 
1.800000 0.900000 0.000000 
-0.900000 -1.800000 0.000000 
-0.300000 -0.600000 0.000000 
-0.600000 -0.900000 0.000000 
0.900000 0.600000 0.000000 
1.500000 0.900000 0.000000 
-0.900000 -1.500000 0.000000 
-1.200000 -3.000000 0.000000 
3.000000 1.200000 0.000000 
-1.200000 -2.700000 0.000000 
2.700000 1.200000 0.000000 
-1.200000 -2.400000 0.000000 
2.400000 1.200000 0.000000 
0.000000 0.000000 0.000000 
0.300000 0.300000 0.000000 
-0.300000 -0.300000 0.000000 
-1.200000 -2.100000 0.000000 
2.100000 1.200000 0.000000 
1.200000 0.900000 0.000000 
-0.900000 -1.200000 0.000000 
-0.600000 -0.600000 0.000000 
0.600000 0.600000 0.000000 
1.800000 1.200000 0.000000 
-1.200000 -1.800000 0.000000 
-0.900000 -0.900000 0.000000 
0.900000 0.900000 0.000000 
-1.200000 -1.500000 0.000000 
1.500000 1.200000 0.000000 
0.000000 0.300000 0.000000 
-0.300000 0.000000 0.000000 
0.300000 0.600000 0.000000 
-0.600000 -0.300000 0.000000 
3.000000 1.500000 0.000000 
-1.500000 -3.000000 0.000000 
2.700000 1.500000 0.000000 
-1.500000 -2.700000 0.000000 
-1.500000 -2.400000 0.000000 
2.400000 1.500000 0.000000 
-1.200000 -1.200000 0.000000 
1.200000 1.200000 0.000000 
0.600000 0.900000 0.000000 
-0.900000 -0.600000 0.000000 
-1.500000 -2.100000 0.000000 
2.100000 1.500000 0.000000 
-1.500000 -1.800000 0.000000 
1.800000 1.500000 0.000000 
-0.300000 0.300000 0.000000 
0.000000 0.600000 0.000000 
-0.600000 0.000000 0.000000 
-1.200000 -0.900000 0.000000 
0.900000 1.200000 0.000000 
-1.500000 -1.500000 0.000000 
1.500000 1.500000 0.000000 
0.300000 0.900000 0.000000 
-0.900000 -0.300000 0.000000 
3.000000 1.800000 0.000000 
-1.800000 -3.000000 0.000000 
2.700000 1.800000 0.000000 
-1.800000 -2.700000 0.000000 
2.400000 1.800000 0.000000 
-1.200000 -0.600000 0.000000 
0.600000 1.200000 0.000000 
-1.800000 -2.400000 0.000000 
1.200000 1.500000 0.000000 
-1.500000 -1.200000 0.000000 
2.100000 1.800000 0.000000 
-0.300000 0.600000 0.000000 
-0.600000 0.300000 0.000000 
-1.800000 -2.100000 0.000000 
0.000000 0.900000 0.000000 
-0.900000 0.000000 0.000000 
1.800000 1.800000 0.000000 
-1.800000 -1.800000 0.000000 
0.900000 1.500000 0.000000 
-1.500000 -0.900000 0.000000 
-1.200000 -0.300000 0.000000 
0.300000 1.200000 0.000000 
1.500000 1.800000 0.000000 
-1.800000 -1.500000 0.000000 
-0.600000 0.600000 0.000000 
-1.500000 -0.600000 0.000000 
3.000000 2.100000 0.000000 
-2.100000 -3.000000 0.000000 
0.600000 1.500000 0.000000 
2.700000 2.100000 0.000000 
-0.300000 0.900000 0.000000 
-0.900000 0.300000 0.000000 
-2.100000 -2.700000 0.000000 
1.200000 1.800000 0.000000 
-1.800000 -1.200000 0.000000 
2.400000 2.100000 0.000000 
-2.100000 -2.400000 0.000000 
0.000000 1.200000 0.000000 
-1.200000 0.000000 0.000000 
2.100000 2.100000 0.000000 
-2.100000 -2.100000 0.000000 
-2.100000 -1.800000 0.000000 
1.800000 2.100000 0.000000 
0.900000 1.800000 0.000000 
-1.800000 -0.900000 0.000000 
-1.500000 -0.300000 0.000000 
0.300000 1.500000 0.000000 
-0.600000 0.900000 0.000000 
-0.900000 0.600000 0.000000 
1.500000 2.100000 0.000000 
-2.100000 -1.500000 0.000000 
-1.200000 0.300000 0.000000 
-0.300000 1.200000 0.000000 
0.600000 1.800000 0.000000 
-1.800000 -0.600000 0.000000 
3.000000 2.400000 0.000000 
-2.400000 -3.000000 0.000000 
-2.100000 -1.200000 0.000000 
-2.400000 -2.700000 0.000000 
-1.500000 0.000000 0.000000 
1.200000 2.100000 0.000000 
0.000000 1.500000 0.000000 
2.700000 2.400000 0.000000 
2.400000 2.400000 0.000000 
-2.400000 -2.400000 0.000000 
-2.400000 -2.100000 0.000000 
2.100000 2.400000 0.000000 
-1.800000 -0.300000 0.000000 
0.300000 1.800000 0.000000 
0.900000 2.100000 0.000000 
-2.100000 -0.900000 0.000000 
-0.900000 0.900000 0.000000 
-1.200000 0.600000 0.000000 
-0.600000 1.200000 0.000000 
1.800000 2.400000 0.000000 
-2.400000 -1.800000 0.000000 
-1.500000 0.300000 0.000000 
-0.300000 1.500000 0.000000 
1.500000 2.400000 0.000000 
-2.400000 -1.500000 0.000000 
0.600000 2.100000 0.000000 
-2.100000 -0.600000 0.000000 
-1.800000 0.000000 0.000000 
0.000000 1.800000 0.000000 
1.200000 2.400000 0.000000 
-2.400000 -1.200000 0.000000 
-2.700000 -3.000000 0.000000 
3.000000 2.700000 0.000000 
2.700000 2.700000 0.000000 
-2.700000 -2.700000 0.000000 
2.400000 2.700000 0.000000 
-0.900000 1.200000 0.000000 
-2.700000 -2.400000 0.000000 
-1.200000 0.900000 0.000000 
-0.600000 1.500000 0.000000 
-1.500000 0.600000 0.000000 
2.100000 2.700000 0.000000 
0.300000 2.100000 0.000000 
-2.100000 -0.300000 0.000000 
-2.700000 -2.100000 0.000000 
-2.400000 -0.900000 0.000000 
0.900000 2.400000 0.000000 
1.800000 2.700000 0.000000 
-2.700000 -1.800000 0.000000 
-0.300000 1.800000 0.000000 
-1.800000 0.300000 0.000000 
1.500000 2.700000 0.000000 
-2.700000 -1.500000 0.000000 
-2.400000 -0.600000 0.000000 
0.600000 2.400000 0.000000 
0.000000 2.100000 0.000000 
-2.100000 0.000000 0.000000 
-1.200000 1.200000 0.000000 
-1.500000 0.900000 0.000000 
-0.900000 1.500000 0.000000 
1.200000 2.700000 0.000000 
-2.700000 -1.200000 0.000000 
-3.000000 -3.000000 0.000000 
3.000000 3.000000 0.000000 
-0.600000 1.800000 0.000000 
-1.800000 0.600000 0.000000 
-3.000000 -2.700000 0.000000 
2.700000 3.000000 0.000000 
-3.000000 -2.400000 0.000000 
2.400000 3.000000 0.000000 
0.300000 2.400000 0.000000 
-2.400000 -0.300000 0.000000 
-3.000000 -2.100000 0.000000 
2.100000 3.000000 0.000000 
0.900000 2.700000 0.000000 
-2.700000 -0.900000 0.000000 
-0.300000 2.100000 0.000000 
-2.100000 0.300000 0.000000 
-3.000000 -1.800000 0.000000 
1.800000 3.000000 0.000000 
-1.500000 1.200000 0.000000 
-1.200000 1.500000 0.000000 
-2.400000 0.000000 0.000000 
0.000000 2.400000 0.000000 
-3.000000 -1.500000 0.000000 
1.500000 3.000000 0.000000 
0.600000 2.700000 0.000000 
-2.700000 -0.600000 0.000000 
-0.900000 1.800000 0.000000 
-1.800000 0.900000 0.000000 
-0.600000 2.100000 0.000000 
-2.100000 0.600000 0.000000 
-3.000000 -1.200000 0.000000 
1.200000 3.000000 0.000000 
0.300000 2.700000 0.000000 
-2.700000 -0.300000 0.000000 
-0.300000 2.400000 0.000000 
-2.400000 0.300000 0.000000 
-3.000000 -0.900000 0.000000 
0.900000 3.000000 0.000000 
-1.500000 1.500000 0.000000 
-1.800000 1.200000 0.000000 
-1.200000 1.800000 0.000000 
-0.900000 2.100000 0.000000 
-2.100000 0.900000 0.000000 
0.000000 2.700000 0.000000 
-2.700000 0.000000 0.000000 
-3.000000 -0.600000 0.000000 
0.600000 3.000000 0.000000 
-2.400000 0.600000 0.000000 
-0.600000 2.400000 0.000000 
-3.000000 -0.300000 0.000000 
0.300000 3.000000 0.000000 
-1.500000 1.800000 0.000000 
-1.800000 1.500000 0.000000 
-0.300000 2.700000 0.000000 
-2.700000 0.300000 0.000000 
-1.200000 2.100000 0.000000 
-2.100000 1.200000 0.000000 
-2.400000 0.900000 0.000000 
-0.900000 2.400000 0.000000 
-3.000000 0.000000 0.000000 
0.000000 3.000000 0.000000 
-0.600000 2.700000 0.000000 
-2.700000 0.600000 0.000000 
-1.800000 1.800000 0.000000 
-2.100000 1.500000 0.000000 
-1.500000 2.100000 0.000000 
-2.400000 1.200000 0.000000 
-1.200000 2.400000 0.000000 
-3.000000 0.300000 0.000000 
-0.300000 3.000000 0.000000 
-2.700000 0.900000 0.000000 
-0.900000 2.700000 0.000000 
-3.000000 0.600000 0.000000 
-0.600000 3.000000 0.000000 
-1.800000 2.100000 0.000000 
-2.100000 1.800000 0.000000 
-2.400000 1.500000 0.000000 
-1.500000 2.400000 0.000000 
-1.200000 2.700000 0.000000 
-2.700000 1.200000 0.000000 
-3.000000 0.900000 0.000000 
-0.900000 3.000000 0.000000 
-2.100000 2.100000 0.000000 
-2.400000 1.800000 0.000000 
-1.800000 2.400000 0.000000 
-1.500000 2.700000 0.000000 
-2.700000 1.500000 0.000000 
-3.000000 1.200000 0.000000 
-1.200000 3.000000 0.000000 
-2.400000 2.100000 0.000000 
-2.100000 2.400000 0.000000 
-1.800000 2.700000 0.000000 
-2.700000 1.800000 0.000000 
-3.000000 1.500000 0.000000 
-1.500000 3.000000 0.000000 
-2.400000 2.400000 0.000000 
-2.100000 2.700000 0.000000 
-2.700000 2.100000 0.000000 
-1.800000 3.000000 0.000000 
-3.000000 1.800000 0.000000 
-2.400000 2.700000 0.000000 
-2.700000 2.400000 0.000000 
-3.000000 2.100000 0.000000 
-2.100000 3.000000 0.000000 
-2.700000 2.700000 0.000000 
-3.000000 2.400000 0.000000 
-2.400000 3.000000 0.000000 
-3.000000 2.700000 0.000000 
-2.700000 3.000000 0.000000 
-3.000000 3.000000 0.000000 
VECTORS MOMENTUM float 
0.000000 0.000000 0.000000 
0.000000 0.000000 0.000000 
0.000000 0.000000 0.000000 
0.000000 0.000000 0.000000 
0.000000 0.000000 0.000000 
0.000000 0.000000 0.000000 
0.000000 0.000000 0.000000 
0.000000 0.000000 0.000000 
0.000000 0.000000 0.000000 
0.000000 0.000000 0.000000 
0.000000 0.000000 0.000000 
0.000000 0.000000 0.000000 
0.000000 0.000000 0.000000 
0.000000 0.000000 0.000000 
185250168432301277184.000000 -1179238774348532154368.000000 0.000000 
0.000000 0.000000 0.000000 
0.000000 0.000000 0.000000 
0.000000 0.000000 0.000000 
0.000000 0.000000 0.000000 
-265499668510734400094208.000000 1353026457611260246622208.000000 0.000000 
-181780458825749624782848.000000 69961718783613901733888.000000 0.000000 
-376803480515415769088.000000 -1517237786914653995008.000000 0.000000 
-1045967830541636019945472.000000 -1869710040970415304605696.000000 0.000000 
0.000000 0.000000 0.000000 
0.000000 0.000000 0.000000 
1116891540401814369206272.000000 1218838098583669234991104.000000 0.000000 
-40.831591 40.766474 0.000000 
0.000000 0.000000 0.000000 
-22.174051 -65.575573 0.000000 
-488863404376422470385664.000000 -406388369391543790862336.000000 0.000000 
712974621396319567085568.000000 -366312095529838032453632.000000 0.000000 
0.000000 0.000000 0.000000 
152436753768491935334400.000000 3280707474517369290752.000000 0.000000 
0.000000 0.000000 0.000000 
0.000000 0.000000 0.000000 
67.185218 131.188268 0.000000 
0.000000 0.000000 0.000000 
7.628001 -129.223693 0.000000 
1685889146555188873115830079979520.000000 3230298544631155962500462611005440.000000 0.000000 
0.000000 0.000000 0.000000 
9928607128497179515756431419986591232032245221949440.000000 11416973724570627829881338183245320949084212380565504.000000 0.000000 
0.000000 0.000000 0.000000 
8660832098063234985104078121467904.000000 11786126725157596543868801503985664.000000 0.000000 
0.000000 0.000000 0.000000 
0.000000 0.000000 0.000000 
889354260639081798764655059927040.000000 2980072948626565165907210995236864.000000 0.000000 
0.000000 0.000000 0.000000 
-528301968366171871850688842529779134461644307564714971169384135338754048.000000 -119614898586653818739161932790157555431786238609669322455601087623725056.000000 0.000000 
0.000000 0.000000 0.000000 
-40101852968968510786307228718428661154345154475196416.000000 -30070470027860547043328593813020162756485015071096832.000000 0.000000 
-1143751172274293557179489273371426816.000000 838863658791084117224230849091731456.000000 0.000000 
0.000000 0.000000 0.000000 
0.000000 0.000000 0.000000 
295320027407038303961892837142822912.000000 -268969457098784576098379866084212736.000000 0.000000 
10419439256540812741171350193840657179827927285198251603774741176909824.000000 605305250556581727264977479683030172875778187401125856562015503502016512.000000 0.000000 
42611616396243662955747285922690278781635037312658447790101771474436096.000000 -893847565313893268620992918723200297770197208333636511666570478770716672.000000 0.000000 
0.000000 0.000000 0.000000 
0.000000 0.000000 0.000000 
48636509032183952505705886132469760.000000 37232143332018444180633893279367168.000000 0.000000 
0.000000 0.000000 0.000000 
0.000000 0.000000 0.000000 
-20150189693735674934250226206113792.000000 -17940360131848117721993650737512448.000000 0.000000 
0.000000 0.000000 0.000000 
-233473696054556294821188183338778624.000000 108746224715284637632286957731053568.000000 0.000000 
-74017500611218204336270465334366932043367777971223324232994365623924558921728.000000 -35638709520844105882597353233896980286540082266089692967905974424153956024320.000000 0.000000 
0.000000 0.000000 0.000000 
-3927313373585736335554359178507763843072.000000 5312777778950472859727197157241091260416.000000 0.000000 
51108053930966159982171116788600144063048217273935813057263690792904425472.000000 76484386364639314817817106452830484274237058015615940527912909906328420352.000000 0.000000 
30166472657441159816901332270975803457308670716190998618559881811775228243664475885928448.000000 4704810428462842555693744242261850740575872012948173746323151143000619181592513184006144.000000 0.000000 
0.000000 0.000000 0.000000 
68021904142143352438662595135475286016.000000 3496689111244639702774131721551759802368.000000 0.000000 
0.000000 0.000000 0.000000 
0.000000 0.000000 0.000000 
-964296557851828246673917529292800.000000 853965025127385737992570981580800.000000 0.000000 
0.000000 0.000000 0.000000 
110656560961945360316949744117088256.000000 -177172760772044458752320889765756928.000000 0.000000 
-27151862081640131434772345736826296244812906677768976839996336206737378902016.000000 -23380879815597526330974835018581301841719083320733345243736367721270854287360.000000 0.000000 
86797369902361917251066878530022981381657910598775825133209423819052793145777579188289536.000000 14453790230365407926967444031705520662670593668532378130699837321323382337445453650460672.000000 0.000000 
0.000000 0.000000 0.000000 
-211476951639443253827574873384815314788615924004797186868982421962321035264.000000 -183004580783681366999600384897117342016913963999161959397782334615553310720.000000 0.000000 
12101896097038734827200303871125964512700756594086526369102898622792915999185400530252857344.000000 4374999467825321244461948644240789517834888091499569437823008181946756333962654886521733120.000000 0.000000 
-110852397683605268368058713182190574764032.000000 216358616538040716744425618677407724601344.000000 0.000000 
0.000000 0.000000 0.000000 
30747071876773996735170940704717646486349537905475584.000000 -4473633284480073652577646526532547652352318470356992.000000 0.000000 
0.000000 0.000000 0.000000 
4063374631016030791668503422921379666118807732202544418402007233817370028883474447255732224.000000 3463180252541673410912634765736210385724035462738964887063988266091792338709480691032129536.000000 0.000000 
0.000000 0.000000 0.000000 
0.000000 0.000000 0.000000 
329434571849540927602195326984462042445525460793149446173038257127682998272.000000 174662129919558120951026778679791125968070331946098790064965088443359035392.000000 0.000000 
36063477089735230499577792602902720178925945571073115953817908653757688416471394083269509120.000000 27428816637239931618947534451058964772566999091629031827114160760765688948999430759249870848.000000 0.000000 
-34001624460762319844779491328000.000000 197816927056647758949765923995648.000000 0.000000 
0.000000 0.000000 0.000000 
-930453207706391979098607857732419584.000000 -300552474655471249971685288262500352.000000 0.000000 
0.000000 0.000000 0.000000 
67571696375192014485957885294895140677134196619752831023116202278912.000000 149550386322400460571196123848870927057231644500278344014050485075968.000000 0.000000 
-44010456218176047277181926573495014132109171345725154212501520571111790981026240310011756544.000000 -60388740704156268115663523296436589110874459775735286674372500779367064188609394890690789376.000000 0.000000 
-715702744433774808235838436604483221848064.000000 -526581452390981982727861422385194394976256.000000 0.000000 
-267455028422857518011645952.000000 -2755473274654236162723414016.000000 0.000000 