# vtk DataFile Version 3.0 
vtk output 
ASCII 
DATASET UNSTRUCTURED_GRID 
POINTS 441 float 
3.000000 -3.000000 0.000000 
2.700000 -3.000000 0.000000 
3.000000 -2.700000 0.000000 
2.700000 -2.700000 0.000000 
3.000000 -2.400000 0.000000 
2.400000 -3.000000 0.000000 
2.700000 -2.400000 0.000000 
2.400000 -2.700000 0.000000 
2.400000 -2.400000 0.000000 
2.100000 -3.000000 0.000000 
3.000000 -2.100000 0.000000 
2.700000 -2.100000 0.000000 
2.100000 -2.700000 0.000000 
2.400000 -2.100000 0.000000 
2.100000 -2.400000 0.000000 
3.000000 -1.800000 0.000000 
1.800000 -3.000000 0.000000 
2.700000 -1.800000 0.000000 
1.800000 -2.700000 0.000000 
2.100000 -2.100000 0.000000 
2.400000 -1.800000 0.000000 
1.800000 -2.400000 0.000000 
2.100000 -1.800000 0.000000 
3.000000 -1.500000 0.000000 
1.500000 -3.000000 0.000000 
1.800000 -2.100000 0.000000 
1.500000 -2.700000 0.000000 
2.700000 -1.500000 0.000000 
1.500000 -2.400000 0.000000 
2.400000 -1.500000 0.000000 
1.800000 -1.800000 0.000000 
1.500000 -2.100000 0.000000 
2.100000 -1.500000 0.000000 
1.200000 -3.000000 0.000000 
3.000000 -1.200000 0.000000 
1.200000 -2.700000 0.000000 
2.700000 -1.200000 0.000000 
1.200000 -2.400000 0.000000 
2.400000 -1.200000 0.000000 
1.500000 -1.800000 0.000000 
1.800000 -1.500000 0.000000 
1.200000 -2.100000 0.000000 
2.100000 -1.200000 0.000000 
3.000000 -0.900000 0.000000 
0.900000 -3.000000 0.000000 
2.700000 -0.900000 0.000000 
0.900000 -2.700000 0.000000 
1.500000 -1.500000 0.000000 
1.200000 -1.800000 0.000000 
1.800000 -1.200000 0.000000 
2.400000 -0.900000 0.000000 
0.900000 -2.400000 0.000000 
0.900000 -2.100000 0.000000 
2.100000 -0.900000 0.000000 
1.500000 -1.200000 0.000000 
1.200000 -1.500000 0.000000 
3.000000 -0.600000 0.000000 
0.600000 -3.000000 0.000000 
1.800000 -0.900000 0.000000 
0.900000 -1.800000 0.000000 
0.600000 -2.700000 0.000000 
2.700000 -0.600000 0.000000 
0.600000 -2.400000 0.000000 
2.400000 -0.600000 0.000000 
1.200000 -1.200000 0.000000 
0.600000 -2.100000 0.000000 
2.100000 -0.600000 0.000000 
1.500000 -0.900000 0.000000 
0.900000 -1.500000 0.000000 
0.600000 -1.800000 0.000000 
1.800000 -0.600000 0.000000 
3.000000 -0.300000 0.000000 
0.300000 -3.000000 0.000000 
2.700000 -0.300000 0.000000 
0.300000 -2.700000 0.000000 
2.400000 -0.300000 0.000000 
1.200000 -0.900000 0.000000 
0.900000 -1.200000 0.000000 
0.300000 -2.400000 0.000000 
1.500000 -0.600000 0.000000 
0.600000 -1.500000 0.000000 
2.100000 -0.300000 0.000000 
0.300000 -2.100000 0.000000 
1.800000 -0.300000 0.000000 
0.300000 -1.800000 0.000000 
0.900000 -0.900000 0.000000 
3.000000 0.000000 0.000000 
0.000000 -3.000000 0.000000 
1.200000 -0.600000 0.000000 
0.600000 -1.200000 0.000000 
2.700000 0.000000 0.000000 
0.000000 -2.700000 0.000000 
2.400000 0.000000 0.000000 
0.000000 -2.400000 0.000000 
1.500000 -0.300000 0.000000 
0.300000 -1.500000 0.000000 
2.100000 0.000000 0.000000 
0.000000 -2.100000 0.000000 
0.600000 -0.900000 0.000000 
0.900000 -0.600000 0.000000 
1.800000 0.000000 0.000000 
0.000000 -1.800000 0.000000 
1.200000 -0.300000 0.000000 
0.300000 -1.200000 0.000000 
3.000000 0.300000 0.000000 
-0.300000 -3.000000 0.000000 
2.700000 0.300000 0.000000 
-0.300000 -2.700000 0.000000 
2.400000 0.300000 0.000000 
1.500000 0.000000 0.000000 
0.000000 -1.500000 0.000000 
-0.300000 -2.400000 0.000000 
0.600000 -0.600000 0.000000 
2.100000 0.300000 0.000000 
0.900000 -0.300000 0.000000 
0.300000 -0.900000 0.000000 
-0.300000 -2.100000 0.000000 
1.200000 0.000000 0.000000 
0.000000 -1.200000 0.000000 
1.800000 0.300000 0.000000 
-0.300000 -1.800000 0.000000 
3.000000 0.600000 0.000000 
-0.600000 -3.000000 0.000000 
2.700000 0.600000 0.000000 
-0.600000 -2.700000 0.000000 
0.600000 -0.300000 0.000000 
0.300000 -0.600000 0.000000 
1.500000 0.300000 0.000000 
-0.300000 -1.500000 0.000000 
-0.600000 -2.400000 0.000000 
2.400000 0.600000 0.000000 
0.900000 0.000000 0.000000 
0.000000 -0.900000 0.000000 
-0.600000 -2.100000 0.000000 
2.100000 0.600000 0.000000 
1.200000 0.300000 0.000000 
-0.300000 -1.200000 0.000000 
1.800000 0.600000 0.000000 
-0.600000 -1.800000 0.000000 
0.300000 -0.300000 0.000000 
0.600000 0.000000 0.000000 
0.000000 -0.600000 0.000000 
1.500000 0.600000 0.000000 
-0.600000 -1.500000 0.000000 
3.000000 0.900000 0.000000 
-0.900000 -3.000000 0.000000 
-0.900000 -2.700000 0.000000 
0.900000 0.300000 0.000000 
-0.300000 -0.900000 0.000000 
2.700000 0.900000 0.000000 
2.400000 0.900000 0.000000 
-0.900000 -2.400000 0.000000 
-0.900000 -2.100000 0.000000 
2.100000 0.900000 0.000000 
-0.600000 -1.200000 0.000000 
1.200000 0.600000 0.000000 
0.300000 0.000000 0.000000 
0.000000 -0.300000 0.000000 
0.600000 0.300000 0.000000 
1.800000 0.900000 0.000000 
-0.900000 -1.800000 0.000000 
-0.300000 -0.600000 0.000000 
-0.600000 -0.900000 0.000000 
0.900000 0.600000 0.000000 
1.500000 0.900000 0.000000 
-0.900000 -1.500000 0.000000 
-1.200000 -3.000000 0.000000 
3.000000 1.200000 0.000000 
-1.200000 -2.700000 0.000000 
2.700000 1.200000 0.000000 
-1.200000 -2.400000 0.000000 
2.400000 1.200000 0.000000 
0.000000 0.000000 0.000000 
0.300000 0.300000 0.000000 
-0.300000 -0.300000 0.000000 
-1.200000 -2.100000 0.000000 
2.100000 1.200000 0.000000 
1.200000 0.900000 0.000000 
-0.900000 -1.200000 0.000000 
-0.600000 -0.600000 0.000000 
0.600000 0.600000 0.000000 
1.800000 1.200000 0.000000 
-1.200000 -1.800000 0.000000 
-0.900000 -0.900000 0.000000 
0.900000 0.900000 0.000000 
-1.200000 -1.500000 0.000000 
1.500000 1.200000 0.000000 
0.000000 0.300000 0.000000 
-0.300000 0.000000 0.000000 
0.300000 0.600000 0.000000 
-0.600000 -0.300000 0.000000 
3.000000 1.500000 0.000000 
-1.500000 -3.000000 0.000000 
2.700000 1.500000 0.000000 
-1.500000 -2.700000 0.000000 
-1.500000 -2.400000 0.000000 
2.400000 1.500000 0.000000 
-1.200000 -1.200000 0.000000 
1.200000 1.200000 0.000000 
0.600000 0.900000 0.000000 
-0.900000 -0.600000 0.000000 
-1.500000 -2.100000 0.000000 
2.100000 1.500000 0.000000 
-1.500000 -1.800000 0.000000 
1.800000 1.500000 0.000000 
-0.300000 0.300000 0.000000 
0.000000 0.600000 0.000000 
-0.600000 0.000000 0.000000 
-1.200000 -0.900000 0.000000 
0.900000 1.200000 0.000000 
-1.500000 -1.500000 0.000000 
1.500000 1.500000 0.000000 
0.300000 0.900000 0.000000 
-0.900000 -0.300000 0.000000 
3.000000 1.800000 0.000000 
-1.800000 -3.000000 0.000000 
2.700000 1.800000 0.000000 
-1.800000 -2.700000 0.000000 
2.400000 1.800000 0.000000 
-1.200000 -0.600000 0.000000 
0.600000 1.200000 0.000000 
-1.800000 -2.400000 0.000000 
1.200000 1.500000 0.000000 
-1.500000 -1.200000 0.000000 
2.100000 1.800000 0.000000 
-0.300000 0.600000 0.000000 
-0.600000 0.300000 0.000000 
-1.800000 -2.100000 0.000000 
0.000000 0.900000 0.000000 
-0.900000 0.000000 0.000000 
1.800000 1.800000 0.000000 
-1.800000 -1.800000 0.000000 
0.900000 1.500000 0.000000 
-1.500000 -0.900000 0.000000 
-1.200000 -0.300000 0.000000 
0.300000 1.200000 0.000000 
1.500000 1.800000 0.000000 
-1.800000 -1.500000 0.000000 
-0.600000 0.600000 0.000000 
-1.500000 -0.600000 0.000000 
3.000000 2.100000 0.000000 
-2.100000 -3.000000 0.000000 
0.600000 1.500000 0.000000 
2.700000 2.100000 0.000000 
-0.300000 0.900000 0.000000 
-0.900000 0.300000 0.000000 
-2.100000 -2.700000 0.000000 
1.200000 1.800000 0.000000 
-1.800000 -1.200000 0.000000 
2.400000 2.100000 0.000000 
-2.100000 -2.400000 0.000000 
0.000000 1.200000 0.000000 
-1.200000 0.000000 0.000000 
2.100000 2.100000 0.000000 
-2.100000 -2.100000 0.000000 
-2.100000 -1.800000 0.000000 
1.800000 2.100000 0.000000 
0.900000 1.800000 0.000000 
-1.800000 -0.900000 0.000000 
-1.500000 -0.300000 0.000000 
0.300000 1.500000 0.000000 
-0.600000 0.900000 0.000000 
-0.900000 0.600000 0.000000 
1.500000 2.100000 0.000000 
-2.100000 -1.500000 0.000000 
-1.200000 0.300000 0.000000 
-0.300000 1.200000 0.000000 
0.600000 1.800000 0.000000 
-1.800000 -0.600000 0.000000 
3.000000 2.400000 0.000000 
-2.400000 -3.000000 0.000000 
-2.100000 -1.200000 0.000000 
-2.400000 -2.700000 0.000000 
-1.500000 0.000000 0.000000 
1.200000 2.100000 0.000000 
0.000000 1.500000 0.000000 
2.700000 2.400000 0.000000 
2.400000 2.400000 0.000000 
-2.400000 -2.400000 0.000000 
-2.400000 -2.100000 0.000000 
2.100000 2.400000 0.000000 
-1.800000 -0.300000 0.000000 
0.300000 1.800000 0.000000 
0.900000 2.100000 0.000000 
-2.100000 -0.900000 0.000000 
-0.900000 0.900000 0.000000 
-1.200000 0.600000 0.000000 
-0.600000 1.200000 0.000000 
1.800000 2.400000 0.000000 
-2.400000 -1.800000 0.000000 
-1.500000 0.300000 0.000000 
-0.300000 1.500000 0.000000 
1.500000 2.400000 0.000000 
-2.400000 -1.500000 0.000000 
0.600000 2.100000 0.000000 
-2.100000 -0.600000 0.000000 
-1.800000 0.000000 0.000000 
0.000000 1.800000 0.000000 
1.200000 2.400000 0.000000 
-2.400000 -1.200000 0.000000 
-2.700000 -3.000000 0.000000 
3.000000 2.700000 0.000000 
2.700000 2.700000 0.000000 
-2.700000 -2.700000 0.000000 
2.400000 2.700000 0.000000 
-0.900000 1.200000 0.000000 
-2.700000 -2.400000 0.000000 
-1.200000 0.900000 0.000000 
-0.600000 1.500000 0.000000 
-1.500000 0.600000 0.000000 
2.100000 2.700000 0.000000 
0.300000 2.100000 0.000000 
-2.100000 -0.300000 0.000000 
-2.700000 -2.100000 0.000000 
-2.400000 -0.900000 0.000000 
0.900000 2.400000 0.000000 
1.800000 2.700000 0.000000 
-2.700000 -1.800000 0.000000 
-0.300000 1.800000 0.000000 
-1.800000 0.300000 0.000000 
1.500000 2.700000 0.000000 
-2.700000 -1.500000 0.000000 
-2.400000 -0.600000 0.000000 
0.600000 2.400000 0.000000 
0.000000 2.100000 0.000000 
-2.100000 0.000000 0.000000 
-1.200000 1.200000 0.000000 
-1.500000 0.900000 0.000000 
-0.900000 1.500000 0.000000 
1.200000 2.700000 0.000000 
-2.700000 -1.200000 0.000000 
-3.000000 -3.000000 0.000000 
3.000000 3.000000 0.000000 
-0.600000 1.800000 0.000000 
-1.800000 0.600000 0.000000 
-3.000000 -2.700000 0.000000 
2.700000 3.000000 0.000000 
-3.000000 -2.400000 0.000000 
2.400000 3.000000 0.000000 
0.300000 2.400000 0.000000 
-2.400000 -0.300000 0.000000 
-3.000000 -2.100000 0.000000 
[...]
POINT_DATA 441 
VECTORS X_GC float 
3.000000 -3.000000 0.000000 
2.700000 -3.000000 0.000000 
3.000000 -2.700000 0.000000 
2.700000 -2.700000 0.000000 
3.000000 -2.400000 0.000000 
2.400000 -3.000000 0.000000 
2.700000 -2.400000 0.000000 
2.400000 -2.700000 0.000000 
2.400000 -2.400000 0.000000 
2.100000 -3.000000 0.000000 
3.000000 -2.100000 0.000000 
2.700000 -2.100000 0.000000 
2.100000 -2.700000 0.000000 
2.400000 -2.100000 0.000000 
2.100000 -2.400000 0.000000 
3.000000 -1.800000 0.000000 
1.800000 -3.000000 0.000000 
2.700000 -1.800000 0.000000 
1.800000 -2.700000 0.000000 
2.100000 -2.100000 0.000000 
2.400000 -1.800000 0.000000 
1.800000 -2.400000 0.000000 
2.100000 -1.800000 0.000000 
3.000000 -1.500000 0.000000 
1.500000 -3.000000 0.000000 
1.800000 -2.100000 0.000000 
1.500000 -2.700000 0.000000 
2.700000 -1.500000 0.000000 
1.500000 -2.400000 0.000000 
2.400000 -1.500000 0.000000 
1.800000 -1.800000 0.000000 
1.500000 -2.100000 0.000000 
2.100000 -1.500000 0.000000 
1.200000 -3.000000 0.000000 
3.000000 -1.200000 0.000000 
1.200000 -2.700000 0.000000 
2.700000 -1.200000 0.000000 
1.200000 -2.400000 0.000000 
2.400000 -1.200000 0.000000 
1.500000 -1.800000 0.000000 
1.800000 -1.500000 0.000000 
1.200000 -2.100000 0.000000 
2.100000 -1.200000 0.000000 
3.000000 -0.900000 0.000000 
0.900000 -3.000000 0.000000 
2.700000 -0.900000 0.000000 
0.900000 -2.700000 0.000000 
1.500000 -1.500000 0.000000 
1.200000 -1.800000 0.000000 
1.800000 -1.200000 0.000000 
2.400000 -0.900000 0.000000 
0.900000 -2.400000 0.000000 
0.900000 -2.100000 0.000000 
2.100000 -0.900000 0.000000 
1.500000 -1.200000 0.000000 
1.200000 -1.500000 0.000000 
3.000000 -0.600000 0.000000 
0.600000 -3.000000 0.000000 
1.800000 -0.900000 0.000000 
0.900000 -1.800000 0.000000 
0.600000 -2.700000 0.000000 
2.700000 -0.600000 0.000000 
0.600000 -2.400000 0.000000 
2.400000 -0.600000 0.000000 
1.200000 -1.200000 0.000000 
0.600000 -2.100000 0.000000 
2.100000 -0.600000 0.000000 
1.500000 -0.900000 0.000000 
0.900000 -1.500000 0.000000 
0.600000 -1.800000 0.000000 
1.800000 -0.600000 0.000000 
3.000000 -0.300000 0.000000 
0.300000 -3.000000 0.000000 
2.700000 -0.300000 0.000000 
0.300000 -2.700000 0.000000 
2.400000 -0.300000 0.000000 
1.200000 -0.900000 0.000000 
0.900000 -1.200000 0.000000 
0.300000 -2.400000 0.000000 
1.500000 -0.600000 0.000000 
0.600000 -1.500000 0.000000 
2.100000 -0.300000 0.000000 
0.300000 -2.100000 0.000000 
1.800000 -0.300000 0.000000 
0.300000 -1.800000 0.000000 
0.900000 -0.900000 0.000000 
3.000000 0.000000 0.000000 
0.000000 -3.000000 0.000000 
1.200000 -0.600000 0.000000 
0.600000 -1.200000 0.000000 
2.700000 0.000000 0.000000 
0.000000 -2.700000 0.000000 
2.400000 0.000000 0.000000 
0.000000 -2.400000 0.000000 
1.500000 -0.300000 0.000000 
0.300000 -1.500000 0.000000 
2.100000 0.000000 0.000000 
0.000000 -2.100000 0.000000 
0.600000 -0.900000 0.000000 
0.900000 -0.600000 0.000000 
1.800000 0.000000 0.000000 
0.000000 -1.800000 0.000000 
1.200000 -0.300000 0.000000 
0.300000 -1.200000 0.000000 
3.000000 0.300000 0.000000 
-0.300000 -3.000000 0.000000 
2.700000 0.300000 0.000000 
-0.300000 -2.700000 0.000000 
2.400000 0.300000 0.000000 
1.500000 0.000000 0.000000 
0.000000 -1.500000 0.000000 
-0.300000 -2.400000 0.000000 
0.600000 -0.600000 0.000000 
2.100000 0.300000 0.000000 
0.900000 -0.300000 0.000000 
0.300000 -0.900000 0.000000 
-0.300000 -2.100000 0.000000 
1.200000 0.000000 0.000000 
0.000000 -1.200000 0.000000 
1.800000 0.300000 0.000000 
-0.300000 -1.800000 0.000000 
3.000000 0.600000 0.000000 
-0.600000 -3.000000 0.000000 
2.700000 0.600000 0.000000 
-0.600000 -2.700000 0.000000 
0.600000 -0.300000 0.000000 
0.300000 -0.600000 0.000000 
1.500000 0.300000 0.000000 
-0.300000 -1.500000 0.000000 
-0.600000 -2.400000 0.000000 
2.400000 0.600000 0.000000 
0.900000 0.000000 0.000000 
0.000000 -0.900000 0.000000 
-0.600000 -2.100000 0.000000 
2.100000 0.600000 0.000000 
1.200000 0.300000 0.000000 
-0.300000 -1.200000 0.000000 
1.800000 0.600000 0.000000 
-0.600000 -1.800000 0.000000 
0.300000 -0.300000 0.000000 
0.600000 0.000000 0.000000 
0.000000 -0.600000 0.000000 
1.500000 0.600000 0.000000 
-0.600000 -1.500000 0.000000 
3.000000 0.900000 0.000000 
-0.900000 -3.000000 0.000000 
-0.900000 -2.700000 0.000000 
0.900000 0.300000 0.000000 
-0.300000 -0.900000 0.000000 
2.700000 0.900000 0.000000 
2.400000 0.900000 0.000000 
-0.900000 -2.400000 0.000000 
-0.900000 -2.100000 0.000000 
2.100000 0.900000 0.000000 
-0.600000 -1.200000 0.000000 
1.200000 0.600000 0.000000 
0.300000 0.000000 0.000000 
0.000000 -0.300000 0.000000 
0.600000 0.300000 0.000000 
1.800000 0.900000 0.000000 
-0.900000 -1.800000 0.000000 
-0.300000 -0.600000 0.000000 
-0.600000 -0.900000 0.000000 
0.900000 0.600000 0.000000 
1.500000 0.900000 0.000000 
-0.900000 -1.500000 0.000000 
-1.200000 -3.000000 0.000000 
3.000000 1.200000 0.000000 
-1.200000 -2.700000 0.000000 
2.700000 1.200000 0.000000 
-1.200000 -2.400000 0.000000 
2.400000 1.200000 0.000000 
0.000000 0.000000 0.000000 
0.300000 0.300000 0.000000 
-0.300000 -0.300000 0.000000 
-1.200000 -2.100000 0.000000 
2.100000 1.200000 0.000000 
1.200000 0.900000 0.000000 
-0.900000 -1.200000 0.000000 
-0.600000 -0.600000 0.000000 
0.600000 0.600000 0.000000 
1.800000 1.200000 0.000000 
-1.200000 -1.800000 0.000000 
-0.900000 -0.900000 0.000000 
0.900000 0.900000 0.000000 
-1.200000 -1.500000 0.000000 
1.500000 1.200000 0.000000 
0.000000 0.300000 0.000000 
-0.300000 0.000000 0.000000 
0.300000 0.600000 0.000000 
-0.600000 -0.300000 0.000000 
3.000000 1.500000 0.000000 
-1.500000 -3.000000 0.000000 
2.700000 1.500000 0.000000 
-1.500000 -2.700000 0.000000 
-1.500000 -2.400000 0.000000 
2.400000 1.500000 0.000000 
-1.200000 -1.200000 0.000000 
1.200000 1.200000 0.000000 
0.600000 0.900000 0.000000 
-0.900000 -0.600000 0.000000 
-1.500000 -2.100000 0.000000 
2.100000 1.500000 0.000000 
-1.500000 -1.800000 0.000000 
1.800000 1.500000 0.000000 
-0.300000 0.300000 0.000000 
0.000000 0.600000 0.000000 
-0.600000 0.000000 0.000000 
-1.200000 -0.900000 0.000000 
0.900000 1.200000 0.000000 
-1.500000 -1.500000 0.000000 
1.500000 1.500000 0.000000 
0.300000 0.900000 0.000000 
-0.900000 -0.300000 0.000000 
3.000000 1.800000 0.000000 
-1.800000 -3.000000 0.000000 
2.700000 1.800000 0.000000 
-1.800000 -2.700000 0.000000 
2.400000 1.800000 0.000000 
-1.200000 -0.600000 0.000000 
0.600000 1.200000 0.000000 
-1.800000 -2.400000 0.000000 
1.200000 1.500000 0.000000 
-1.500000 -1.200000 0.000000 
2.100000 1.800000 0.000000 
-0.300000 0.600000 0.000000 
-0.600000 0.300000 0.000000 
-1.800000 -2.100000 0.000000 
0.000000 0.900000 0.000000 
-0.900000 0.000000 0.000000 
1.800000 1.800000 0.000000 
-1.800000 -1.800000 0.000000 
0.900000 1.500000 0.000000 
-1.500000 -0.900000 0.000000 
-1.200000 -0.300000 0.000000 
0.300000 1.200000 0.000000 
1.500000 1.800000 0.000000 
-1.800000 -1.500000 0.000000 
-0.600000 0.600000 0.000000 
-1.500000 -0.600000 0.000000 
3.000000 2.100000 0.000000 
-2.100000 -3.000000 0.000000 
0.600000 1.500000 0.000000 
2.700000 2.100000 0.000000 
-0.300000 0.900000 0.000000 
-0.900000 0.300000 0.000000 
-2.100000 -2.700000 0.000000 
1.200000 1.800000 0.000000 
-1.800000 -1.200000 0.000000 
2.400000 2.100000 0.000000 
-2.100000 -2.400000 0.000000 
0.000000 1.200000 0.000000 
-1.200000 0.000000 0.000000 
2.100000 2.100000 0.000000 
-2.100000 -2.100000 0.000000 
-2.100000 -1.800000 0.000000 
1.800000 2.100000 0.000000 
0.900000 1.800000 0.000000 
-1.800000 -0.900000 0.000000 
-1.500000 -0.300000 0.000000 
0.300000 1.500000 0.000000 
-0.600000 0.900000 0.000000 
-0.900000 0.600000 0.000000 
1.500000 2.100000 0.000000 
-2.100000 -1.500000 0.000000 
-1.200000 0.300000 0.000000 
-0.300000 1.200000 0.000000 
0.600000 1.800000 0.000000 
-1.800000 -0.600000 0.000000 
3.000000 2.400000 0.000000 
-2.400000 -3.000000 0.000000 
-2.100000 -1.200000 0.000000 
-2.400000 -2.700000 0.000000 
-1.500000 0.000000 0.000000 
1.200000 2.100000 0.000000 
0.000000 1.500000 0.000000 
2.700000 2.400000 0.000000 
2.400000 2.400000 0.000000 
-2.400000 -2.400000 0.000000 
-2.400000 -2.100000 0.000000 
2.100000 2.400000 0.000000 
-1.800000 -0.300000 0.000000 
0.300000 1.800000 0.000000 
0.900000 2.100000 0.000000 
-2.100000 -0.900000 0.000000 
-0.900000 0.900000 0.000000 
-1.200000 0.600000 0.000000 
-0.600000 1.200000 0.000000 
1.800000 2.400000 0.000000 
-2.400000 -1.800000 0.000000 
-1.500000 0.300000 0.000000 
-0.300000 1.500000 0.000000 
1.500000 2.400000 0.000000 
-2.400000 -1.500000 0.000000 
0.600000 2.100000 0.000000 
-2.100000 -0.600000 0.000000 
-1.800000 0.000000 0.000000 
0.000000 1.800000 0.000000 
1.200000 2.400000 0.000000 
-2.400000 -1.200000 0.000000 
-2.700000 -3.000000 0.000000 
3.000000 2.700000 0.000000 
2.700000 2.700000 0.000000 
-2.700000 -2.700000 0.000000 
2.400000 2.700000 0.000000 
-0.900000 1.200000 0.000000 
-2.700000 -2.400000 0.000000 
-1.200000 0.900000 0.000000 
-0.600000 1.500000 0.000000 
-1.500000 0.600000 0.000000 
2.100000 2.700000 0.000000 
0.300000 2.100000 0.000000 
-2.100000 -0.300000 0.000000 
-2.700000 -2.100000 0.000000 
-2.400000 -0.900000 0.000000 
0.900000 2.400000 0.000000 
1.800000 2.700000 0.000000 
-2.700000 -1.800000 0.000000 
-0.300000 1.800000 0.000000 
-1.800000 0.300000 0.000000 
1.500000 2.700000 0.000000 
-2.700000 -1.500000 0.000000 
-2.400000 -0.600000 0.000000 
0.600000 2.400000 0.000000 
0.000000 2.100000 0.000000 
-2.100000 0.000000 0.000000 
-1.200000 1.200000 0.000000 
-1.500000 0.900000 0.000000 
-0.900000 1.500000 0.000000 
1.200000 2.700000 0.000000 
-2.700000 -1.200000 0.000000 
-3.000000 -3.000000 0.000000 
3.000000 3.000000 0.000000 
-0.600000 1.800000 0.000000 
-1.800000 0.600000 0.000000 
-3.000000 -2.700000 0.000000 
2.700000 3.000000 0.000000 
-3.000000 -2.400000 0.000000 
2.400000 3.000000 0.000000 
0.300000 2.400000 0.000000 
-2.400000 -0.300000 0.000000 
-3.000000 -2.100000 0.000000 
2.100000 3.000000 0.000000 
0.900000 2.700000 0.000000 
-2.700000 -0.900000 0.000000 
-0.300000 2.100000 0.000000 
-2.100000 0.300000 0.000000 
-3.000000 -1.800000 0.000000 
1.800000 3.000000 0.000000 
-1.500000 1.200000 0.000000 
-1.200000 1.500000 0.000000 
-2.400000 0.000000 0.000000 
0.000000 2.400000 0.000000 
-3.000000 -1.500000 0.000000 
1.500000 3.000000 0.000000 
0.600000 2.700000 0.000000 
-2.700000 -0.600000 0.000000 
-0.900000 1.800000 0.000000 
-1.800000 0.900000 0.000000 
-0.600000 2.100000 0.000000 
-2.100000 0.600000 0.000000 
-3.000000 -1.200000 0.000000 
1.200000 3.000000 0.000000 
0.300000 2.700000 0.000000 
-2.700000 -0.300000 0.000000 
-0.300000 2.400000 0.000000 
-2.400000 0.300000 0.000000 
-3.000000 -0.900000 0.000000 
0.900000 3.000000 0.000000 
-1.500000 1.500000 0.000000 
-1.800000 1.200000 0.000000 
-1.200000 1.800000 0.000000 
-0.900000 2.100000 0.000000 
-2.100000 0.900000 0.000000 
0.000000 2.700000 0.000000 
-2.700000 0.000000 0.000000 
-3.000000 -0.600000 0.000000 
0.600000 3.000000 0.000000 
-2.400000 0.600000 0.000000 
-0.600000 2.400000 0.000000 
-3.000000 -0.300000 0.000000 
0.300000 3.000000 0.000000 
-1.500000 1.800000 0.000000 
-1.800000 1.500000 0.000000 
-0.300000 2.700000 0.000000 
-2.700000 0.300000 0.000000 
-1.200000 2.100000 0.000000 
-2.100000 1.200000 0.000000 
-2.400000 0.900000 0.000000 
-0.900000 2.400000 0.000000 
-3.000000 0.000000 0.000000 
0.000000 3.000000 0.000000 
-0.600000 2.700000 0.000000 
-2.700000 0.600000 0.000000 
-1.800000 1.800000 0.000000 
-2.100000 1.500000 0.000000 
-1.500000 2.100000 0.000000 
-2.400000 1.200000 0.000000 
-1.200000 2.400000 0.000000 
-3.000000 0.300000 0.000000 
-0.300000 3.000000 0.000000 
-2.700000 0.900000 0.000000 
-0.900000 2.700000 0.000000 
-3.000000 0.600000 0.000000 
-0.600000 3.000000 0.000000 
-1.800000 2.100000 0.000000 
-2.100000 1.800000 0.000000 
-2.400000 1.500000 0.000000 
-1.500000 2.400000 0.000000 
-1.200000 2.700000 0.000000 
-2.700000 1.200000 0.000000 
-3.000000 0.900000 0.000000 
-0.900000 3.000000 0.000000 
-2.100000 2.100000 0.000000 
-2.400000 1.800000 0.000000 
-1.800000 2.400000 0.000000 
-1.500000 2.700000 0.000000 
-2.700000 1.500000 0.000000 
-3.000000 1.200000 0.000000 
-1.200000 3.000000 0.000000 
-2.400000 2.100000 0.000000 
-2.100000 2.400000 0.000000 
-1.800000 2.700000 0.000000 
-2.700000 1.800000 0.000000 
-3.000000 1.500000 0.000000 
-1.500000 3.000000 0.000000 
-2.400000 2.400000 0.000000 
-2.100000 2.700000 0.000000 
-2.700000 2.100000 0.000000 
-1.800000 3.000000 0.000000 
-3.000000 1.800000 0.000000 
-2.400000 2.700000 0.000000 
-2.700000 2.400000 0.000000 
-3.000000 2.100000 0.000000 
-2.100000 3.000000 0.000000 
-2.700000 2.700000 0.000000 
-3.000000 2.400000 0.000000 
-2.400000 3.000000 0.000000 
-3.000000 2.700000 0.000000 
-2.700000 3.000000 0.000000 
-3.000000 3.000000 0.000000 
VECTORS MOMENTUM float 
0.000000 0.000000 0.000000 
0.000000 0.000000 0.000000 
0.000000 0.000000 0.000000 
0.000000 0.000000 0.000000 
0.000000 0.000000 0.000000 
0.000000 0.000000 0.000000 
0.000000 0.000000 0.000000 
0.000000 0.000000 0.000000 
0.000000 0.000000 0.000000 
0.000000 0.000000 0.000000 
0.000000 0.000000 0.000000 
0.000000 0.000000 0.000000 
0.000000 0.000000 0.000000 
0.000000 0.000000 0.000000 
406046204649808805078590139729907851023983554239599297098840774193897321134507802432794346981340204969502824104316091524119951346512748697021537995666076205056.000000 11103088753279215071865358775026209488149005682355177632869256523973095239742228493188192354197424942864209029356972439919349538561521744070312513892728759648256.000000 0.000000 
0.000000 0.000000 0.000000 
0.000000 0.000000 0.000000 
0.000000 0.000000 0.000000 
0.000000 0.000000 0.000000 
2294624282760168739453863260976773903100021330485793271991938951149113572966538193321812776889490384854459570685745091095639735122516726000250016591151821913849856.000000 -33433379443374074599592538771348235922341693536835407424498848672885314820376425112470500445434442828422736752154555726071728782291009366983849582426547113481469952.000000 0.000000 
37452101767173435198802096649180687828132030667062042614472793286516622066095726775695815399611875754660318124579922023379423255938263439209123818851242671603712.000000 -12260018128673891266294487686627449242868531155529361634861905100436301784301915210925410580034699262965157049529650815504618339974210651814640537966126148091904.000000 0.000000 
11263176844502705959243742563290705464595099400579149031591769105145058651342254824869984887640502113749116466362443513900759411563976495534174141957732743249920.000000 20784445336332455694183535459054070718138423880522530311867895741653587210028752410073672755164283372023901883007369509973566814638375831622311671307854153777152.000000 0.000000 
31232639003033182559372794427056605247637328581872575703114486440915427969296845044426081414793943469488397725395503075845888745765122308917877666177950689290878976.000000 52801447133779030194840732588583695576806188368733509495496905147455477838665445428232319984811652635820268970612521039700766174917544466729180522171095572887371776.000000 0.000000 
0.000000 0.000000 0.000000 
0.000000 0.000000 0.000000 
-21743745187355338293605587328494707278386327132112444774707116024219630405256702176657930047960332777250888019329037692269386819141926677820561062345172579531096064.000000 -29015221286334210898445864622397871926934613843274752925571275266862750654370424859978369312092279057448125153749459610662581775318202252121337623631071130912030720.000000 0.000000 
-121.422152 125.931295 0.000000 
0.000000 0.000000 0.000000 
-65.015405 -183.439461 0.000000 
74491171456946332511933224421213814825709184736232959268244355483259033740947610524864817309203545610699173991534398666150648415898916669728854169336507959083008.000000 58077734720366258366476402574183710576987419691464969068496728100815108585771716235024543395217412316072036854163459634210975487281563117718268555644056505417728.000000 0.000000 
-11878457139846022783033881240973804762161695423490420564649819409857403392015906261277548930218016696007388860951806229709316013696683402645421344967241324912705536.000000 9568654382500970538896074346983126972270352058424450389009683197119827898756166625250858488301164928316059265844066666827143569728806889605693113615503254066561024.000000 0.000000 
0.000000 0.000000 0.000000 
-28673454865253982581368336271614826090375060062712033451899317140221556664841087440310248002731743219275861036106431226492412436327990128789092387744146786353152.000000 793962746983648392008744826377331834367721257049330873025154319751452244911346386277821789980332973051146158914485035809069098952042868022553881975950856421376.000000 0.000000 
0.000000 0.000000 0.000000 
0.000000 0.000000 0.000000 
180.469673 395.339101 0.000000 
0.000000 0.000000 0.000000 
17.775460 -360.692007 0.000000 
-nan -nan 0.000000 
0.000000 0.000000 0.000000 
-nan -nan 0.000000 
0.000000 0.000000 0.000000 
-nan -nan 0.000000 
0.000000 0.000000 0.000000 
0.000000 0.000000 0.000000 
-nan -nan 0.000000 
0.000000 0.000000 0.000000 
-nan -nan 0.000000 
0.000000 0.000000 0.000000 
-nan -nan 0.000000 
-nan -nan 0.000000 
0.000000 0.000000 0.000000 
0.000000 0.000000 0.000000 
-nan -nan 0.000000 
-nan -nan 0.000000 
-nan -nan 0.000000 
0.000000 0.000000 0.000000 
0.000000 0.000000 0.000000 
-nan -nan 0.000000 
0.000000 0.000000 0.000000 
0.000000 0.000000 0.000000 
-nan -nan 0.000000 
0.000000 0.000000 0.000000 
-nan -nan 0.000000 
-nan -nan 0.000000 
0.000000 0.000000 0.000000 
-nan -nan 0.000000 
-nan -nan 0.000000 
-nan -nan 0.000000 
0.000000 0.000000 0.000000 
-nan -nan 0.000000 
0.000000 0.000000 0.000000 
0.000000 0.000000 0.000000 
-nan -nan 0.000000 
0.000000 0.000000 0.000000 
-nan -nan 0.000000 
-nan -nan 0.000000 
-nan -nan 0.000000 
0.000000 0.000000 0.000000 
-nan -nan 0.000000 
-nan -nan 0.000000 
-nan -nan 0.000000 
0.000000 0.000000 0.000000 
-nan -nan 0.000000 
0.000000 0.000000 0.000000 
-nan -nan 0.000000 
0.000000 0.000000 0.000000 
0.000000 0.000000 0.000000 
-nan -nan 0.000000 
-nan -nan 0.000000 
-nan -nan 0.000000 
0.000000 0.000000 0.000000 
-nan -nan 0.000000 
0.000000 0.000000 0.000000 
-nan -nan 0.000000 
-nan -nan 0.000000 
-nan -nan 0.000000 
-23578292370554022146759898009734920981866960513754729433931573897696566117448200632302669648874146850317011432732381998051951919362886856461135223503122924280730782204607425615845811814400.000000 65647886143761540028834720918360646402608127055682383047086399220469192051242061078124869030635532702664870666385351149132387860066868441678942632261811167673374670610823045409305540952064.000000 0.000000 
-nan -nan 0.000000 
-nan -nan 0.000000 
-nan -nan 0.000000 
-233820243618303671614425187384914315093260263437867784496359714865358416704851218614266534193705735394560141338181909052048395415565162195298098503966256673224530297572889903482964627423232.000000 -179263593121965712374464668843671612928909694736621173396371779721261839942361672816895278429897174526821975611843565920748586451187253063055823619571878358934987545696494004457033609248768.000000 0.000000 
-nan -nan 0.000000 
-nan -nan 0.000000 
0.000000 0.000000 0.000000 
0.000000 0.000000 0.000000 
0.000000 0.000000 0.000000 
-149.180099 331.229607 0.000000 
-nan -nan 0.000000 
-nan -nan 0.000000 
0.000000 0.000000 0.000000 
-1085.368233 -547.989260 0.000000 
-nan -nan 0.000000 
-nan -nan 0.000000 
-nan -nan 0.000000 
-nan -nan 0.000000 
111623502863978394628045816276616214894153451764144051652047016008836806211720718006526891928650320388704441865305047742431544753569022273403794993731100854082219135515925700538708655079424.000000 48195975484983328703709461253091564724980488826290948255359379166552944316416372016867702126672560361790810963572266259436564055603285250285110183748138972543448865942342807584609488863232.000000 0.000000 
-nan -nan 0.000000 
-nan -nan 0.000000 
-nan -nan 0.000000 