# vtk DataFile Version 3.0 
vtk output 
ASCII 
DATASET UNSTRUCTURED_GRID 
POINTS 16 float 
3.000000 -3.000000 0.000000 
1.000000 -3.000000 0.000000 
3.000000 -1.000000 0.000000 
1.000000 -1.000000 0.000000 
-1.000000 -3.000000 0.000000 
3.000000 1.000000 0.000000 
1.000000 1.000000 0.000000 
-1.000000 -1.000000 0.000000 
-1.000000 1.000000 0.000000 
-3.000000 -3.000000 0.000000 
3.000000 3.000000 0.000000 
1.000000 3.000000 0.000000 
-3.000000 -1.000000 0.000000 
-1.000000 3.000000 0.000000 
-3.000000 1.000000 0.000000 
-3.000000 3.000000 0.000000 
CELLS 9 45 
4 12  7  6  11 
4 14  9  7  12 
4 16  15  9  14 
4 7  4  3  6 
4 9  8  4  7 
4 15  13  8  9 
4 4  2  1  3 
4 8  5  2  4 
4 13  10  5  8 
CELL_TYPES 9 
8 
8 
8 
8 
8 
8 
8 
8 
8 
POINT_DATA 16 
VECTORS X_GC float 
3.000000 -3.000000 0.000000 
1.000000 -3.000000 0.000000 
3.000000 -1.000000 0.000000 
1.000000 -1.000000 0.000000 
-1.000000 -3.000000 0.000000 
3.000000 1.000000 0.000000 
1.000000 1.000000 0.000000 
-1.000000 -1.000000 0.000000 
-1.000000 1.000000 0.000000 
-3.000000 -3.000000 0.000000 
3.000000 3.000000 0.000000 
1.000000 3.000000 0.000000 
-3.000000 -1.000000 0.000000 
-1.000000 3.000000 0.000000 
-3.000000 1.000000 0.000000 
-3.000000 3.000000 0.000000 
CELL_DATA 9 
