# vtk DataFile Version 3.0 
vtk output 
ASCII 
DATASET UNSTRUCTURED_GRID 
POINTS 441 float 
3.000000 -3.000000 0.000000 
2.700000 -3.000000 0.000000 
3.000000 -2.700000 0.000000 
2.700000 -2.700000 0.000000 
3.000000 -2.400000 0.000000 
2.400000 -3.000000 0.000000 
2.700000 -2.400000 0.000000 
2.400000 -2.700000 0.000000 
2.400000 -2.400000 0.000000 
2.100000 -3.000000 0.000000 
3.000000 -2.100000 0.000000 
2.700000 -2.100000 0.000000 
2.100000 -2.700000 0.000000 
2.400000 -2.100000 0.000000 
2.100000 -2.400000 0.000000 
3.000000 -1.800000 0.000000 
1.800000 -3.000000 0.000000 
2.700000 -1.800000 0.000000 
1.800000 -2.700000 0.000000 
2.100000 -2.100000 0.000000 
2.400000 -1.800000 0.000000 
1.800000 -2.400000 0.000000 
2.100000 -1.800000 0.000000 
3.000000 -1.500000 0.000000 
1.500000 -3.000000 0.000000 
1.800000 -2.100000 0.000000 
1.500000 -2.700000 0.000000 
2.700000 -1.500000 0.000000 
1.500000 -2.400000 0.000000 
2.400000 -1.500000 0.000000 
1.800000 -1.800000 0.000000 
1.500000 -2.100000 0.000000 
2.100000 -1.500000 0.000000 
1.200000 -3.000000 0.000000 
3.000000 -1.200000 0.000000 
1.200000 -2.700000 0.000000 
2.700000 -1.200000 0.000000 
1.200000 -2.400000 0.000000 
2.400000 -1.200000 0.000000 
1.500000 -1.800000 0.000000 
1.800000 -1.500000 0.000000 
1.200000 -2.100000 0.000000 
2.100000 -1.200000 0.000000 
3.000000 -0.900000 0.000000 
0.900000 -3.000000 0.000000 
2.700000 -0.900000 0.000000 
0.900000 -2.700000 0.000000 
1.500000 -1.500000 0.000000 
1.200000 -1.800000 0.000000 
1.800000 -1.200000 0.000000 
2.400000 -0.900000 0.000000 
0.900000 -2.400000 0.000000 
0.900000 -2.100000 0.000000 
2.100000 -0.900000 0.000000 
1.500000 -1.200000 0.000000 
1.200000 -1.500000 0.000000 
3.000000 -0.600000 0.000000 
0.600000 -3.000000 0.000000 
1.800000 -0.900000 0.000000 
0.900000 -1.800000 0.000000 
0.600000 -2.700000 0.000000 
2.700000 -0.600000 0.000000 
0.600000 -2.400000 0.000000 
2.400000 -0.600000 0.000000 
1.200000 -1.200000 0.000000 
0.600000 -2.100000 0.000000 
2.100000 -0.600000 0.000000 
1.500000 -0.900000 0.000000 
0.900000 -1.500000 0.000000 
0.600000 -1.800000 0.000000 
1.800000 -0.600000 0.000000 
3.000000 -0.300000 0.000000 
0.300000 -3.000000 0.000000 
2.700000 -0.300000 0.000000 
0.300000 -2.700000 0.000000 
2.400000 -0.300000 0.000000 
1.200000 -0.900000 0.000000 
0.900000 -1.200000 0.000000 
0.300000 -2.400000 0.000000 
1.500000 -0.600000 0.000000 
0.600000 -1.500000 0.000000 
2.100000 -0.300000 0.000000 
0.300000 -2.100000 0.000000 
1.800000 -0.300000 0.000000 
0.300000 -1.800000 0.000000 
0.900000 -0.900000 0.000000 
3.000000 0.000000 0.000000 
0.000000 -3.000000 0.000000 
1.200000 -0.600000 0.000000 
0.600000 -1.200000 0.000000 
2.700000 0.000000 0.000000 
0.000000 -2.700000 0.000000 
2.400000 0.000000 0.000000 
0.000000 -2.400000 0.000000 
1.500000 -0.300000 0.000000 
0.300000 -1.500000 0.000000 
2.100000 0.000000 0.000000 
0.000000 -2.100000 0.000000 
0.600000 -0.900000 0.000000 
0.900000 -0.600000 0.000000 
1.800000 0.000000 0.000000 
0.000000 -1.800000 0.000000 
1.200000 -0.300000 0.000000 
0.300000 -1.200000 0.000000 
3.000000 0.300000 0.000000 
-0.300000 -3.000000 0.000000 
2.700000 0.300000 0.000000 
-0.300000 -2.700000 0.000000 
2.400000 0.300000 0.000000 
1.500000 0.000000 0.000000 
0.000000 -1.500000 0.000000 
-0.300000 -2.400000 0.000000 
0.600000 -0.600000 0.000000 
2.100000 0.300000 0.000000 
0.900000 -0.300000 0.000000 
0.300000 -0.900000 0.000000 
-0.300000 -2.100000 0.000000 
1.200000 0.000000 0.000000 
0.000000 -1.200000 0.000000 
1.800000 0.300000 0.000000 
-0.300000 -1.800000 0.000000 
3.000000 0.600000 0.000000 
-0.600000 -3.000000 0.000000 
2.700000 0.600000 0.000000 
-0.600000 -2.700000 0.000000 
0.600000 -0.300000 0.000000 
0.300000 -0.600000 0.000000 
1.500000 0.300000 0.000000 
-0.300000 -1.500000 0.000000 
-0.600000 -2.400000 0.000000 
2.400000 0.600000 0.000000 
0.900000 0.000000 0.000000 
0.000000 -0.900000 0.000000 
-0.600000 -2.100000 0.000000 
2.100000 0.600000 0.000000 
1.200000 0.300000 0.000000 
-0.300000 -1.200000 0.000000 
1.800000 0.600000 0.000000 
-0.600000 -1.800000 0.000000 
0.300000 -0.300000 0.000000 
0.600000 0.000000 0.000000 
0.000000 -0.600000 0.000000 
1.500000 0.600000 0.000000 
-0.600000 -1.500000 0.000000 
3.000000 0.900000 0.000000 
-0.900000 -3.000000 0.000000 
-0.900000 -2.700000 0.000000 
0.900000 0.300000 0.000000 
-0.300000 -0.900000 0.000000 
2.700000 0.900000 0.000000 
2.400000 0.900000 0.000000 
-0.900000 -2.400000 0.000000 
-0.900000 -2.100000 0.000000 
2.100000 0.900000 0.000000 
-0.600000 -1.200000 0.000000 
1.200000 0.600000 0.000000 
0.300000 0.000000 0.000000 
0.000000 -0.300000 0.000000 
0.600000 0.300000 0.000000 
1.800000 0.900000 0.000000 
-0.900000 -1.800000 0.000000 
-0.300000 -0.600000 0.000000 
-0.600000 -0.900000 0.000000 
0.900000 0.600000 0.000000 
1.500000 0.900000 0.000000 
-0.900000 -1.500000 0.000000 
-1.200000 -3.000000 0.000000 
3.000000 1.200000 0.000000 
-1.200000 -2.700000 0.000000 
2.700000 1.200000 0.000000 
-1.200000 -2.400000 0.000000 
2.400000 1.200000 0.000000 
0.000000 0.000000 0.000000 
0.300000 0.300000 0.000000 
-0.300000 -0.300000 0.000000 
-1.200000 -2.100000 0.000000 
2.100000 1.200000 0.000000 
1.200000 0.900000 0.000000 
-0.900000 -1.200000 0.000000 
-0.600000 -0.600000 0.000000 
0.600000 0.600000 0.000000 
1.800000 1.200000 0.000000 
-1.200000 -1.800000 0.000000 
-0.900000 -0.900000 0.000000 
0.900000 0.900000 0.000000 
-1.200000 -1.500000 0.000000 
1.500000 1.200000 0.000000 
0.000000 0.300000 0.000000 
-0.300000 0.000000 0.000000 
0.300000 0.600000 0.000000 
-0.600000 -0.300000 0.000000 
3.000000 1.500000 0.000000 
-1.500000 -3.000000 0.000000 
2.700000 1.500000 0.000000 
-1.500000 -2.700000 0.000000 
-1.500000 -2.400000 0.000000 
2.400000 1.500000 0.000000 
-1.200000 -1.200000 0.000000 
1.200000 1.200000 0.000000 
0.600000 0.900000 0.000000 
-0.900000 -0.600000 0.000000 
-1.500000 -2.100000 0.000000 
2.100000 1.500000 0.000000 
-1.500000 -1.800000 0.000000 
1.800000 1.500000 0.000000 
-0.300000 0.300000 0.000000 
0.000000 0.600000 0.000000 
-0.600000 0.000000 0.000000 
-1.200000 -0.900000 0.000000 
0.900000 1.200000 0.000000 
-1.500000 -1.500000 0.000000 
1.500000 1.500000 0.000000 
0.300000 0.900000 0.000000 
-0.900000 -0.300000 0.000000 
3.000000 1.800000 0.000000 
-1.800000 -3.000000 0.000000 
2.700000 1.800000 0.000000 
-1.800000 -2.700000 0.000000 
2.400000 1.800000 0.000000 
-1.200000 -0.600000 0.000000 
0.600000 1.200000 0.000000 
-1.800000 -2.400000 0.000000 
1.200000 1.500000 0.000000 
-1.500000 -1.200000 0.000000 
2.100000 1.800000 0.000000 
-0.300000 0.600000 0.000000 
-0.600000 0.300000 0.000000 
-1.800000 -2.100000 0.000000 
0.000000 0.900000 0.000000 
-0.900000 0.000000 0.000000 
1.800000 1.800000 0.000000 
-1.800000 -1.800000 0.000000 
0.900000 1.500000 0.000000 
-1.500000 -0.900000 0.000000 
-1.200000 -0.300000 0.000000 
0.300000 1.200000 0.000000 
1.500000 1.800000 0.000000 
-1.800000 -1.500000 0.000000 
-0.600000 0.600000 0.000000 
-1.500000 -0.600000 0.000000 
3.000000 2.100000 0.000000 
-2.100000 -3.000000 0.000000 
0.600000 1.500000 0.000000 
2.700000 2.100000 0.000000 
-0.300000 0.900000 0.000000 
-0.900000 0.300000 0.000000 
-2.100000 -2.700000 0.000000 
1.200000 1.800000 0.000000 
-1.800000 -1.200000 0.000000 
2.400000 2.100000 0.000000 
-2.100000 -2.400000 0.000000 
0.000000 1.200000 0.000000 
-1.200000 0.000000 0.000000 
2.100000 2.100000 0.000000 
-2.100000 -2.100000 0.000000 
-2.100000 -1.800000 0.000000 
1.800000 2.100000 0.000000 
0.900000 1.800000 0.000000 
-1.800000 -0.900000 0.000000 
-1.500000 -0.300000 0.000000 
0.300000 1.500000 0.000000 
-0.600000 0.900000 0.000000 
-0.900000 0.600000 0.000000 
1.500000 2.100000 0.000000 
-2.100000 -1.500000 0.000000 
-1.200000 0.300000 0.000000 
-0.300000 1.200000 0.000000 
0.600000 1.800000 0.000000 
-1.800000 -0.600000 0.000000 
3.000000 2.400000 0.000000 
-2.400000 -3.000000 0.000000 
-2.100000 -1.200000 0.000000 
-2.400000 -2.700000 0.000000 
-1.500000 0.000000 0.000000 
1.200000 2.100000 0.000000 
0.000000 1.500000 0.000000 
2.700000 2.400000 0.000000 
2.400000 2.400000 0.000000 
-2.400000 -2.400000 0.000000 
-2.400000 -2.100000 0.000000 
2.100000 2.400000 0.000000 
-1.800000 -0.300000 0.000000 
0.300000 1.800000 0.000000 
0.900000 2.100000 0.000000 
-2.100000 -0.900000 0.000000 
-0.900000 0.900000 0.000000 
-1.200000 0.600000 0.000000 
-0.600000 1.200000 0.000000 
1.800000 2.400000 0.000000 
-2.400000 -1.800000 0.000000 
-1.500000 0.300000 0.000000 
-0.300000 1.500000 0.000000 
1.500000 2.400000 0.000000 
-2.400000 -1.500000 0.000000 
0.600000 2.100000 0.000000 
-2.100000 -0.600000 0.000000 
-1.800000 0.000000 0.000000 
0.000000 1.800000 0.000000 
1.200000 2.400000 0.000000 
-2.400000 -1.200000 0.000000 
-2.700000 -3.000000 0.000000 
3.000000 2.700000 0.000000 
2.700000 2.700000 0.000000 
-2.700000 -2.700000 0.000000 
2.400000 2.700000 0.000000 
-0.900000 1.200000 0.000000 
-2.700000 -2.400000 0.000000 
-1.200000 0.900000 0.000000 
-0.600000 1.500000 0.000000 
-1.500000 0.600000 0.000000 
2.100000 2.700000 0.000000 
0.300000 2.100000 0.000000 
-2.100000 -0.300000 0.000000 
-2.700000 -2.100000 0.000000 
-2.400000 -0.900000 0.000000 
0.900000 2.400000 0.000000 
1.800000 2.700000 0.000000 
-2.700000 -1.800000 0.000000 
-0.300000 1.800000 0.000000 
-1.800000 0.300000 0.000000 
1.500000 2.700000 0.000000 
-2.700000 -1.500000 0.000000 
-2.400000 -0.600000 0.000000 
0.600000 2.400000 0.000000 
0.000000 2.100000 0.000000 
-2.100000 0.000000 0.000000 
-1.200000 1.200000 0.000000 
-1.500000 0.900000 0.000000 
-0.900000 1.500000 0.000000 
1.200000 2.700000 0.000000 
-2.700000 -1.200000 0.000000 
-3.000000 -3.000000 0.000000 
3.000000 3.000000 0.000000 
-0.600000 1.800000 0.000000 
-1.800000 0.600000 0.000000 
-3.000000 -2.700000 0.000000 
2.700000 3.000000 0.000000 
-3.000000 -2.400000 0.000000 
2.400000 3.000000 0.000000 
0.300000 2.400000 0.000000 
-2.400000 -0.300000 0.000000 
-3.000000 -2.100000 0.000000 
[...]
POINT_DATA 441 
VECTORS X_GC float 
3.000000 -3.000000 0.000000 
2.700000 -3.000000 0.000000 
3.000000 -2.700000 0.000000 
2.700000 -2.700000 0.000000 
3.000000 -2.400000 0.000000 
2.400000 -3.000000 0.000000 
2.700000 -2.400000 0.000000 
2.400000 -2.700000 0.000000 
2.400000 -2.400000 0.000000 
2.100000 -3.000000 0.000000 
3.000000 -2.100000 0.000000 
2.700000 -2.100000 0.000000 
2.100000 -2.700000 0.000000 
2.400000 -2.100000 0.000000 
2.100000 -2.400000 0.000000 
3.000000 -1.800000 0.000000 
1.800000 -3.000000 0.000000 
2.700000 -1.800000 0.000000 
1.800000 -2.700000 0.000000 
2.100000 -2.100000 0.000000 
2.400000 -1.800000 0.000000 
1.800000 -2.400000 0.000000 
2.100000 -1.800000 0.000000 
3.000000 -1.500000 0.000000 
1.500000 -3.000000 0.000000 
1.800000 -2.100000 0.000000 
1.500000 -2.700000 0.000000 
2.700000 -1.500000 0.000000 
1.500000 -2.400000 0.000000 
2.400000 -1.500000 0.000000 
1.800000 -1.800000 0.000000 
1.500000 -2.100000 0.000000 
2.100000 -1.500000 0.000000 
1.200000 -3.000000 0.000000 
3.000000 -1.200000 0.000000 
1.200000 -2.700000 0.000000 
2.700000 -1.200000 0.000000 
1.200000 -2.400000 0.000000 
2.400000 -1.200000 0.000000 
1.500000 -1.800000 0.000000 
1.800000 -1.500000 0.000000 
1.200000 -2.100000 0.000000 
2.100000 -1.200000 0.000000 
3.000000 -0.900000 0.000000 
0.900000 -3.000000 0.000000 
2.700000 -0.900000 0.000000 
0.900000 -2.700000 0.000000 
1.500000 -1.500000 0.000000 
1.200000 -1.800000 0.000000 
1.800000 -1.200000 0.000000 
2.400000 -0.900000 0.000000 
0.900000 -2.400000 0.000000 
0.900000 -2.100000 0.000000 
2.100000 -0.900000 0.000000 
1.500000 -1.200000 0.000000 
1.200000 -1.500000 0.000000 
3.000000 -0.600000 0.000000 
0.600000 -3.000000 0.000000 
1.800000 -0.900000 0.000000 
0.900000 -1.800000 0.000000 
0.600000 -2.700000 0.000000 
2.700000 -0.600000 0.000000 
0.600000 -2.400000 0.000000 
2.400000 -0.600000 0.000000 
1.200000 -1.200000 0.000000 
0.600000 -2.100000 0.000000 
2.100000 -0.600000 0.000000 
1.500000 -0.900000 0.000000 
0.900000 -1.500000 0.000000 
0.600000 -1.800000 0.000000 
1.800000 -0.600000 0.000000 
3.000000 -0.300000 0.000000 
0.300000 -3.000000 0.000000 
2.700000 -0.300000 0.000000 
0.300000 -2.700000 0.000000 
2.400000 -0.300000 0.000000 
1.200000 -0.900000 0.000000 
0.900000 -1.200000 0.000000 
0.300000 -2.400000 0.000000 
1.500000 -0.600000 0.000000 
0.600000 -1.500000 0.000000 
2.100000 -0.300000 0.000000 
0.300000 -2.100000 0.000000 
1.800000 -0.300000 0.000000 
0.300000 -1.800000 0.000000 
0.900000 -0.900000 0.000000 
3.000000 0.000000 0.000000 
0.000000 -3.000000 0.000000 
1.200000 -0.600000 0.000000 
0.600000 -1.200000 0.000000 
2.700000 0.000000 0.000000 
0.000000 -2.700000 0.000000 
2.400000 0.000000 0.000000 
0.000000 -2.400000 0.000000 
1.500000 -0.300000 0.000000 
0.300000 -1.500000 0.000000 
2.100000 0.000000 0.000000 
0.000000 -2.100000 0.000000 
0.600000 -0.900000 0.000000 
0.900000 -0.600000 0.000000 
1.800000 0.000000 0.000000 
0.000000 -1.800000 0.000000 
1.200000 -0.300000 0.000000 
0.300000 -1.200000 0.000000 
3.000000 0.300000 0.000000 
-0.300000 -3.000000 0.000000 
2.700000 0.300000 0.000000 
-0.300000 -2.700000 0.000000 
2.400000 0.300000 0.000000 
1.500000 0.000000 0.000000 
0.000000 -1.500000 0.000000 
-0.300000 -2.400000 0.000000 
0.600000 -0.600000 0.000000 
2.100000 0.300000 0.000000 
0.900000 -0.300000 0.000000 
0.300000 -0.900000 0.000000 
-0.300000 -2.100000 0.000000 
1.200000 0.000000 0.000000 
0.000000 -1.200000 0.000000 
1.800000 0.300000 0.000000 
-0.300000 -1.800000 0.000000 
3.000000 0.600000 0.000000 
-0.600000 -3.000000 0.000000 
2.700000 0.600000 0.000000 
-0.600000 -2.700000 0.000000 
0.600000 -0.300000 0.000000 
0.300000 -0.600000 0.000000 
1.500000 0.300000 0.000000 
-0.300000 -1.500000 0.000000 
-0.600000 -2.400000 0.000000 
2.400000 0.600000 0.000000 
0.900000 0.000000 0.000000 
0.000000 -0.900000 0.000000 
-0.600000 -2.100000 0.000000 
2.100000 0.600000 0.000000 
1.200000 0.300000 0.000000 
-0.300000 -1.200000 0.000000 
1.800000 0.600000 0.000000 
-0.600000 -1.800000 0.000000 
0.300000 -0.300000 0.000000 
0.600000 0.000000 0.000000 
0.000000 -0.600000 0.000000 
1.500000 0.600000 0.000000 
-0.600000 -1.500000 0.000000 
3.000000 0.900000 0.000000 
-0.900000 -3.000000 0.000000 
-0.900000 -2.700000 0.000000 
0.900000 0.300000 0.000000 
-0.300000 -0.900000 0.000000 
2.700000 0.900000 0.000000 
2.400000 0.900000 0.000000 
-0.900000 -2.400000 0.000000 
-0.900000 -2.100000 0.000000 
2.100000 0.900000 0.000000 
-0.600000 -1.200000 0.000000 
1.200000 0.600000 0.000000 
0.300000 0.000000 0.000000 
0.000000 -0.300000 0.000000 
0.600000 0.300000 0.000000 
1.800000 0.900000 0.000000 
-0.900000 -1.800000 0.000000 
-0.300000 -0.600000 0.000000 
-0.600000 -0.900000 0.000000 
0.900000 0.600000 0.000000 
1.500000 0.900000 0.000000 
-0.900000 -1.500000 0.000000 
-1.200000 -3.000000 0.000000 
3.000000 1.200000 0.000000 
-1.200000 -2.700000 0.000000 
2.700000 1.200000 0.000000 
-1.200000 -2.400000 0.000000 
2.400000 1.200000 0.000000 
0.000000 0.000000 0.000000 
0.300000 0.300000 0.000000 
-0.300000 -0.300000 0.000000 
-1.200000 -2.100000 0.000000 
2.100000 1.200000 0.000000 
1.200000 0.900000 0.000000 
-0.900000 -1.200000 0.000000 
-0.600000 -0.600000 0.000000 
0.600000 0.600000 0.000000 
1.800000 1.200000 0.000000 
-1.200000 -1.800000 0.000000 
-0.900000 -0.900000 0.000000 
0.900000 0.900000 0.000000 
-1.200000 -1.500000 0.000000 
1.500000 1.200000 0.000000 
0.000000 0.300000 0.000000 
-0.300000 0.000000 0.000000 
0.300000 0.600000 0.000000 
-0.600000 -0.300000 0.000000 
3.000000 1.500000 0.000000 
-1.500000 -3.000000 0.000000 
2.700000 1.500000 0.000000 
-1.500000 -2.700000 0.000000 
-1.500000 -2.400000 0.000000 
2.400000 1.500000 0.000000 
-1.200000 -1.200000 0.000000 
1.200000 1.200000 0.000000 
0.600000 0.900000 0.000000 
-0.900000 -0.600000 0.000000 
-1.500000 -2.100000 0.000000 
2.100000 1.500000 0.000000 
-1.500000 -1.800000 0.000000 
1.800000 1.500000 0.000000 
-0.300000 0.300000 0.000000 
0.000000 0.600000 0.000000 
-0.600000 0.000000 0.000000 
-1.200000 -0.900000 0.000000 
0.900000 1.200000 0.000000 
-1.500000 -1.500000 0.000000 
1.500000 1.500000 0.000000 
0.300000 0.900000 0.000000 
-0.900000 -0.300000 0.000000 
3.000000 1.800000 0.000000 
-1.800000 -3.000000 0.000000 
2.700000 1.800000 0.000000 
-1.800000 -2.700000 0.000000 
2.400000 1.800000 0.000000 
-1.200000 -0.600000 0.000000 
0.600000 1.200000 0.000000 
-1.800000 -2.400000 0.000000 
1.200000 1.500000 0.000000 
-1.500000 -1.200000 0.000000 
2.100000 1.800000 0.000000 
-0.300000 0.600000 0.000000 
-0.600000 0.300000 0.000000 
-1.800000 -2.100000 0.000000 
0.000000 0.900000 0.000000 
-0.900000 0.000000 0.000000 
1.800000 1.800000 0.000000 
-1.800000 -1.800000 0.000000 
0.900000 1.500000 0.000000 
-1.500000 -0.900000 0.000000 
-1.200000 -0.300000 0.000000 
0.300000 1.200000 0.000000 
1.500000 1.800000 0.000000 
-1.800000 -1.500000 0.000000 
-0.600000 0.600000 0.000000 
-1.500000 -0.600000 0.000000 
3.000000 2.100000 0.000000 
-2.100000 -3.000000 0.000000 
0.600000 1.500000 0.000000 
2.700000 2.100000 0.000000 
-0.300000 0.900000 0.000000 
-0.900000 0.300000 0.000000 
-2.100000 -2.700000 0.000000 
1.200000 1.800000 0.000000 
-1.800000 -1.200000 0.000000 
2.400000 2.100000 0.000000 
-2.100000 -2.400000 0.000000 
0.000000 1.200000 0.000000 
-1.200000 0.000000 0.000000 
2.100000 2.100000 0.000000 
-2.100000 -2.100000 0.000000 
-2.100000 -1.800000 0.000000 
1.800000 2.100000 0.000000 
0.900000 1.800000 0.000000 
-1.800000 -0.900000 0.000000 
-1.500000 -0.300000 0.000000 
0.300000 1.500000 0.000000 
-0.600000 0.900000 0.000000 
-0.900000 0.600000 0.000000 
1.500000 2.100000 0.000000 
-2.100000 -1.500000 0.000000 
-1.200000 0.300000 0.000000 
-0.300000 1.200000 0.000000 
0.600000 1.800000 0.000000 
-1.800000 -0.600000 0.000000 
3.000000 2.400000 0.000000 
-2.400000 -3.000000 0.000000 
-2.100000 -1.200000 0.000000 
-2.400000 -2.700000 0.000000 
-1.500000 0.000000 0.000000 
1.200000 2.100000 0.000000 
0.000000 1.500000 0.000000 
2.700000 2.400000 0.000000 
2.400000 2.400000 0.000000 
-2.400000 -2.400000 0.000000 
-2.400000 -2.100000 0.000000 
2.100000 2.400000 0.000000 
-1.800000 -0.300000 0.000000 
0.300000 1.800000 0.000000 
0.900000 2.100000 0.000000 
-2.100000 -0.900000 0.000000 
-0.900000 0.900000 0.000000 
-1.200000 0.600000 0.000000 
-0.600000 1.200000 0.000000 
1.800000 2.400000 0.000000 
-2.400000 -1.800000 0.000000 
-1.500000 0.300000 0.000000 
-0.300000 1.500000 0.000000 
1.500000 2.400000 0.000000 
-2.400000 -1.500000 0.000000 
0.600000 2.100000 0.000000 
-2.100000 -0.600000 0.000000 
-1.800000 0.000000 0.000000 
0.000000 1.800000 0.000000 
1.200000 2.400000 0.000000 
-2.400000 -1.200000 0.000000 
-2.700000 -3.000000 0.000000 
3.000000 2.700000 0.000000 
2.700000 2.700000 0.000000 
-2.700000 -2.700000 0.000000 
2.400000 2.700000 0.000000 
-0.900000 1.200000 0.000000 
-2.700000 -2.400000 0.000000 
-1.200000 0.900000 0.000000 
-0.600000 1.500000 0.000000 
-1.500000 0.600000 0.000000 
2.100000 2.700000 0.000000 
0.300000 2.100000 0.000000 
-2.100000 -0.300000 0.000000 
-2.700000 -2.100000 0.000000 
-2.400000 -0.900000 0.000000 
0.900000 2.400000 0.000000 
1.800000 2.700000 0.000000 
-2.700000 -1.800000 0.000000 
-0.300000 1.800000 0.000000 
-1.800000 0.300000 0.000000 
1.500000 2.700000 0.000000 
-2.700000 -1.500000 0.000000 
-2.400000 -0.600000 0.000000 
0.600000 2.400000 0.000000 
0.000000 2.100000 0.000000 
-2.100000 0.000000 0.000000 
-1.200000 1.200000 0.000000 
-1.500000 0.900000 0.000000 
-0.900000 1.500000 0.000000 
1.200000 2.700000 0.000000 
-2.700000 -1.200000 0.000000 
-3.000000 -3.000000 0.000000 
3.000000 3.000000 0.000000 
-0.600000 1.800000 0.000000 
-1.800000 0.600000 0.000000 
-3.000000 -2.700000 0.000000 
2.700000 3.000000 0.000000 
-3.000000 -2.400000 0.000000 
2.400000 3.000000 0.000000 
0.300000 2.400000 0.000000 
-2.400000 -0.300000 0.000000 
-3.000000 -2.100000 0.000000 
2.100000 3.000000 0.000000 
0.900000 2.700000 0.000000 
-2.700000 -0.900000 0.000000 
-0.300000 2.100000 0.000000 
-2.100000 0.300000 0.000000 
-3.000000 -1.800000 0.000000 
1.800000 3.000000 0.000000 
-1.500000 1.200000 0.000000 
-1.200000 1.500000 0.000000 
-2.400000 0.000000 0.000000 
0.000000 2.400000 0.000000 
-3.000000 -1.500000 0.000000 
1.500000 3.000000 0.000000 
0.600000 2.700000 0.000000 
-2.700000 -0.600000 0.000000 
-0.900000 1.800000 0.000000 
-1.800000 0.900000 0.000000 
-0.600000 2.100000 0.000000 
-2.100000 0.600000 0.000000 
-3.000000 -1.200000 0.000000 
1.200000 3.000000 0.000000 
0.300000 2.700000 0.000000 
-2.700000 -0.300000 0.000000 
-0.300000 2.400000 0.000000 
-2.400000 0.300000 0.000000 
-3.000000 -0.900000 0.000000 
0.900000 3.000000 0.000000 
-1.500000 1.500000 0.000000 
-1.800000 1.200000 0.000000 
-1.200000 1.800000 0.000000 
-0.900000 2.100000 0.000000 
-2.100000 0.900000 0.000000 
0.000000 2.700000 0.000000 
-2.700000 0.000000 0.000000 
-3.000000 -0.600000 0.000000 
0.600000 3.000000 0.000000 
-2.400000 0.600000 0.000000 
-0.600000 2.400000 0.000000 
-3.000000 -0.300000 0.000000 
0.300000 3.000000 0.000000 
-1.500000 1.800000 0.000000 
-1.800000 1.500000 0.000000 
-0.300000 2.700000 0.000000 
-2.700000 0.300000 0.000000 
-1.200000 2.100000 0.000000 
-2.100000 1.200000 0.000000 
-2.400000 0.900000 0.000000 
-0.900000 2.400000 0.000000 
-3.000000 0.000000 0.000000 
0.000000 3.000000 0.000000 
-0.600000 2.700000 0.000000 
-2.700000 0.600000 0.000000 
-1.800000 1.800000 0.000000 
-2.100000 1.500000 0.000000 
-1.500000 2.100000 0.000000 
-2.400000 1.200000 0.000000 
-1.200000 2.400000 0.000000 
-3.000000 0.300000 0.000000 
-0.300000 3.000000 0.000000 
-2.700000 0.900000 0.000000 
-0.900000 2.700000 0.000000 
-3.000000 0.600000 0.000000 
-0.600000 3.000000 0.000000 
-1.800000 2.100000 0.000000 
-2.100000 1.800000 0.000000 
-2.400000 1.500000 0.000000 
-1.500000 2.400000 0.000000 
-1.200000 2.700000 0.000000 
-2.700000 1.200000 0.000000 
-3.000000 0.900000 0.000000 
-0.900000 3.000000 0.000000 
-2.100000 2.100000 0.000000 
-2.400000 1.800000 0.000000 
-1.800000 2.400000 0.000000 
-1.500000 2.700000 0.000000 
-2.700000 1.500000 0.000000 
-3.000000 1.200000 0.000000 
-1.200000 3.000000 0.000000 
-2.400000 2.100000 0.000000 
-2.100000 2.400000 0.000000 
-1.800000 2.700000 0.000000 
-2.700000 1.800000 0.000000 
-3.000000 1.500000 0.000000 
-1.500000 3.000000 0.000000 
-2.400000 2.400000 0.000000 
-2.100000 2.700000 0.000000 
-2.700000 2.100000 0.000000 
-1.800000 3.000000 0.000000 
-3.000000 1.800000 0.000000 
-2.400000 2.700000 0.000000 
-2.700000 2.400000 0.000000 
-3.000000 2.100000 0.000000 
-2.100000 3.000000 0.000000 
-2.700000 2.700000 0.000000 
-3.000000 2.400000 0.000000 
-2.400000 3.000000 0.000000 
-3.000000 2.700000 0.000000 
-2.700000 3.000000 0.000000 
-3.000000 3.000000 0.000000 
VECTORS MOMENTUM float 
0.000000 0.000000 0.000000 
0.000000 0.000000 0.000000 
0.000000 0.000000 0.000000 
0.000000 0.000000 0.000000 
0.000000 0.000000 0.000000 
0.000000 0.000000 0.000000 
0.000000 0.000000 0.000000 
0.000000 0.000000 0.000000 
0.000000 0.000000 0.000000 
0.000000 0.000000 0.000000 
0.000000 0.000000 0.000000 
0.000000 0.000000 0.000000 
0.000000 0.000000 0.000000 
0.000000 0.000000 0.000000 
-2405008.901391 6022467.431181 0.000000 
0.000000 0.000000 0.000000 
0.000000 0.000000 0.000000 
0.000000 0.000000 0.000000 
0.000000 0.000000 0.000000 
851769185.580423 -2390179631.293542 0.000000 
1091668416.562904 -400163659.080223 0.000000 
-3331814.973039 3324775.653643 0.000000 
-42906984.266609 1854658788.255243 0.000000 
0.000000 0.000000 0.000000 
0.000000 0.000000 0.000000 
-2115681121.202715 -2001890022.314088 0.000000 
-23.076467 22.004648 0.000000 
0.000000 0.000000 0.000000 
-12.735557 -39.608280 0.000000 
2703156333.639979 2212112739.640735 0.000000 
-1591062712.361752 723177389.359363 0.000000 
0.000000 0.000000 0.000000 
-891206198.194371 -7062952.869347 0.000000 
0.000000 0.000000 0.000000 
0.000000 0.000000 0.000000 
42.227215 72.994826 0.000000 
0.000000 0.000000 0.000000 
5.392387 -78.227445 0.000000 
-1130570379295.617432 -2901269975743.366699 0.000000 
0.000000 0.000000 0.000000 
4542970644410.395508 4638690913265.264648 0.000000 
0.000000 0.000000 0.000000 
-6289857612254.679688 -9976366183998.789062 0.000000 
0.000000 0.000000 0.000000 
0.000000 0.000000 0.000000 
-364895141021.796509 -2213657488371.565430 0.000000 
0.000000 0.000000 0.000000 
86871463785787424768.000000 13028474772247539712.000000 0.000000 
0.000000 0.000000 0.000000 
-22529877945453.058594 -13454727900264.886719 0.000000 
-6420077254548.258789 -8582488551743.903320 0.000000 
0.000000 0.000000 0.000000 
0.000000 0.000000 0.000000 
-15374643459507.945312 -11963644547381.464844 0.000000 
-1561946111169075456.000000 -92666261412644306944.000000 0.000000 
-7233664056288429056.000000 137421539330191572992.000000 0.000000 
0.000000 0.000000 0.000000 
0.000000 0.000000 0.000000 
-331334520001.296082 -329400759334.988586 0.000000 
0.000000 0.000000 0.000000 
0.000000 0.000000 0.000000 
13665305278746.476562 11492057681928.425781 0.000000 
0.000000 0.000000 0.000000 
18848785393568.648438 30448690641394.910156 0.000000 
-231322601597200704208896.000000 -98268688905898756669440.000000 0.000000 
0.000000 0.000000 0.000000 
-4894201633202.684570 -5392972732629.006836 0.000000 
2434540949441855094784.000000 3711575258039951818752.000000 0.000000 
-870395661457406915777986035712.000000 -212140108839019849862711607296.000000 0.000000 
0.000000 0.000000 0.000000 
-2437281134783.908203 769936325215.294189 0.000000 
0.000000 0.000000 0.000000 
0.000000 0.000000 0.000000 
113713592057.760559 -133189264805.682144 0.000000 
0.000000 0.000000 0.000000 
689362247782.126953 -2915803972100.761719 0.000000 
-74493633246342645022720.000000 -52653277456960648642560.000000 0.000000 
-2532432796759807783379474055168.000000 -376458484391360198822334562304.000000 0.000000 
0.000000 0.000000 0.000000 
-10263997355748310908928.000000 -8848874965741714014208.000000 0.000000 
-111144227117181186730067868254208.000000 -3239068693678190776077483245568.000000 0.000000 
286315834203458.500000 -668674233933823.250000 0.000000 
0.000000 0.000000 0.000000 
3301260648738410.000000 -1101112031658856.500000 0.000000 
0.000000 0.000000 0.000000 
-83897665501553357882289631002624.000000 -71443790184802668345055823003648.000000 0.000000 
0.000000 0.000000 0.000000 
0.000000 0.000000 0.000000 
8287253793846650208256.000000 4598053001982368546816.000000 0.000000 
-294672360932581385810751933906944.000000 -183335558602372505335024307929088.000000 0.000000 
14555655347.578579 82156857803.204971 0.000000 
0.000000 0.000000 0.000000 
-2251548248322.876465 1292422394563.634277 0.000000 
0.000000 0.000000 0.000000 
54554930731154592.000000 261736494833370976.000000 0.000000 
282870587927286222325523519897600.000000 496558054200119384946896202104832.000000 0.000000 
455801696701407.312500 411098044074972.937500 0.000000 
20109623192.055428 22544463730.073502 0.000000 
188207820108761832253384466366464.000000 220943993949562207165244199927808.000000 0.000000 
-47017366433721046538541940604928.000000 -41719977820588994557844748500992.000000 0.000000 
590212026041337.375000 2505790617603235.500000 0.000000 
-140276160280.632294 -110032612239.146805 0.000000 
-23743566786539789746176.000000 -4842677736643030417408.000000 0.000000 
-15940528557132647383305256636350726144.000000 -11300346632577079696223519212335792128.000000 0.000000 
0.000000 0.000000 0.000000 
0.000000 0.000000 0.000000 
0.000000 0.000000 0.000000 
-19.197609 42.031230 0.000000 
-346748058.114644 -37087511.275087 0.000000 
-886492684889963904.000000 -755185750800947840.000000 0.000000 
0.000000 0.000000 0.000000 
-139.562421 -72.650479 0.000000 
-46288648091810181102888934178816.000000 1009600018676265176574749310976.000000 0.000000 
22239579263245.894531 -13418277871701.000000 0.000000 
-223168123772525896269824.000000 997481900692582772506624.000000 0.000000 
-6914090938922794144727309138891112448.000000 -6831208673228107994896716400512991232.000000 0.000000 
24051967489.271732 20605293463.679291 0.000000 
-105974143377112708415488.000000 -108885568572256549863424.000000 0.000000 
33356173275217392253445012310703734784.000000 44004954050553281800806207361690632192.000000 0.000000 
15891966889421.535156 -28814203316037.285156 0.000000 
38042313505.289497 16034911802.115086 0.000000 
0.000000 0.000000 0.000000 
0.000000 0.000000 0.000000 
0.000000 0.000000 0.000000 
45.851024 298.294295 0.000000 
-220731691646461026094197256486912.000000 -250060174155133758627082613555200.000000 0.000000 
-481953178658954759871198071357440.000000 1285661534279273929986729203204096.000000 0.000000 
-97088216124667.375000 -266154913562041.281250 0.000000 
0.000000 0.000000 0.000000 
108.040447 -291.834466 0.000000 
-439855803.302062 -183259747.826111 0.000000 
-2034168206261564504801280.000000 1398706653963529240969216.000000 0.000000 
-11730742601519232496761951329017921536.000000 -25863540647955264063320591139136864256.000000 0.000000 
94174471413.170761 103727656216.654831 0.000000 
13403173695541.578125 -4591085547453.217773 0.000000 
-7368419586796448.000000 -16448866057044096.000000 0.000000 
715821126965964636438500263034093568.000000 1277678212986602098746105460825260032.000000 0.000000 
-23334924783197.921875 7222616684206.700195 0.000000 
-36102215056.081581 -52879712708.073318 0.000000 
-1647220715600036552765043598426112.000000 -2690335883839618197542686607540224.000000 0.000000 
26238753671482223624192.000000 -9257089790310094123040768.000000 0.000000 
-5287741350275605589320510862262272.000000 -7306254305704104777051316938604544.000000 0.000000 
-47678783607064.187500 45686041182192.773438 0.000000 
0.000000 0.000000 0.000000 
0.000000 0.000000 0.000000 
0.000000 0.000000 0.000000 
0.000000 0.000000 0.000000 
-1109012329481058098610176.000000 -714738343246837567193088.000000 0.000000 