# vtk DataFile Version 3.0 
vtk output 
ASCII 
DATASET UNSTRUCTURED_GRID 
POINTS 175 float 
-0.026499 -2.483844 0.000000 
-0.112141 -2.417974 0.000000 
-0.058852 -2.429551 0.000000 
-0.029280 -2.390074 0.000000 
-0.189626 -2.357301 0.000000 
-0.140740 -2.364497 0.000000 
-0.122828 -2.314972 0.000000 
-0.064378 -2.335339 0.000000 
-0.032619 -2.298101 0.000000 
-0.283768 -2.276098 0.000000 
-0.229054 -2.290168 0.000000 
-0.209462 -2.234175 0.000000 
-0.155053 -2.250419 0.000000 
-0.127075 -2.204697 0.000000 
-0.065959 -2.235036 0.000000 
-0.032039 -2.198702 0.000000 
-0.362740 -2.205226 0.000000 
-0.315448 -2.208249 0.000000 
-0.294199 -2.156938 0.000000 
-0.241235 -2.168305 0.000000 
-0.212181 -2.129886 0.000000 
-0.153725 -2.147717 0.000000 
-0.119430 -2.121135 0.000000 
-0.060800 -2.146921 0.000000 
-0.028171 -2.100178 0.000000 
-0.064416 -2.526047 0.000000 
-0.164861 -2.540682 0.000000 
-0.130482 -2.500399 0.000000 
-0.147580 -2.453281 0.000000 
-0.257418 -2.546587 0.000000 
-0.233512 -2.507749 0.000000 
-0.264440 -2.457641 0.000000 
-0.214036 -2.436875 0.000000 
-0.227213 -2.394533 0.000000 
-0.369641 -2.552684 0.000000 
-0.332428 -2.520757 0.000000 
-0.364132 -2.468808 0.000000 
-0.327728 -2.439928 0.000000 
-0.349812 -2.398427 0.000000 
-0.299831 -2.368627 0.000000 
-0.319007 -2.321495 0.000000 
-0.474375 -2.534749 0.000000 
-0.432167 -2.523338 0.000000 
-0.472346 -2.457387 0.000000 
-0.434377 -2.440504 0.000000 
-0.463408 -2.386990 0.000000 
-0.419801 -2.362425 0.000000 
-0.428794 -2.310294 0.000000 
-0.391462 -2.293417 0.000000 
-0.401216 -2.252105 0.000000 
-0.049570 -2.590084 0.000000 
-0.101725 -2.698131 0.000000 
-0.106763 -2.637754 0.000000 
-0.149038 -2.613289 0.000000 
-0.120215 -2.735994 0.000000 
-0.138738 -2.713173 0.000000 
-0.198496 -2.692714 0.000000 
-0.196318 -2.649732 0.000000 
-0.241989 -2.611492 0.000000 
-0.225931 -2.792308 0.000000 
-0.179292 -2.743594 0.000000 
-0.248912 -2.730579 0.000000 
-0.257078 -2.706837 0.000000 
-0.322818 -2.698226 0.000000 
-0.310612 -2.650189 0.000000 
-0.363184 -2.620124 0.000000 
-0.179430 -3.164184 0.000000 
-0.136612 -3.019482 0.000000 
-0.066957 -3.119314 0.000000 
-0.360157 -2.791343 0.000000 
-0.368938 -2.753536 0.000000 
-0.368081 -2.724878 0.000000 
-0.416190 -2.735084 0.000000 
-0.422860 -2.661084 0.000000 
-0.445232 -2.627737 0.000000 
0.000000 -2.617340 0.000000 
0.046651 -2.712257 0.000000 
-0.000000 -2.695915 0.000000 
-0.046651 -2.712257 0.000000 
0.077583 -2.747297 0.000000 
0.041536 -2.737256 0.000000 
-0.000000 -2.755513 0.000000 
-0.041536 -2.737256 0.000000 
-0.077583 -2.747297 0.000000 
0.146354 -2.884687 0.000000 
0.102547 -2.802265 0.000000 
0.049194 -3.006984 0.000000 
0.000000 -2.851128 0.000000 
-0.049194 -3.006984 0.000000 
-0.102547 -2.802265 0.000000 
-0.146354 -2.884687 0.000000 
0.155137 -3.180078 0.000000 
0.100981 -3.070896 0.000000 
0.149014 -3.214579 0.000000 
0.082624 -3.103462 0.000000 
-0.000000 -3.262115 0.000000 
-0.082624 -3.103462 0.000000 
-0.149015 -3.214579 0.000000 
-0.100982 -3.070896 0.000000 
-0.155134 -3.180081 0.000000 
0.049570 -2.590084 0.000000 
0.149038 -2.613289 0.000000 
0.106763 -2.637754 0.000000 
0.101725 -2.698131 0.000000 
0.241989 -2.611492 0.000000 
0.196317 -2.649732 0.000000 
0.198496 -2.692714 0.000000 
0.138738 -2.713173 0.000000 
0.120215 -2.735994 0.000000 
0.363185 -2.620123 0.000000 
0.310612 -2.650189 0.000000 
0.322818 -2.698225 0.000000 
0.257078 -2.706837 0.000000 
0.248912 -2.730579 0.000000 
0.179292 -2.743594 0.000000 
0.225931 -2.792308 0.000000 
0.445233 -2.627736 0.000000 
0.422860 -2.661082 0.000000 
0.416188 -2.735113 0.000000 
0.368081 -2.724881 0.000000 
0.368938 -2.753544 0.000000 
0.360158 -2.791355 0.000000 
0.066899 -3.119285 0.000000 
0.136639 -3.019467 0.000000 
0.179457 -3.164170 0.000000 
0.064416 -2.526047 0.000000 
0.147580 -2.453281 0.000000 
0.130481 -2.500399 0.000000 
0.164861 -2.540682 0.000000 
0.227213 -2.394533 0.000000 
0.214036 -2.436875 0.000000 
0.264440 -2.457641 0.000000 
0.233511 -2.507749 0.000000 
0.257418 -2.546587 0.000000 
0.319007 -2.321495 0.000000 
0.299831 -2.368627 0.000000 
0.349812 -2.398427 0.000000 
0.327728 -2.439928 0.000000 
0.364132 -2.468807 0.000000 
0.332428 -2.520757 0.000000 
0.369641 -2.552684 0.000000 
0.401216 -2.252105 0.000000 
0.391462 -2.293417 0.000000 
0.428794 -2.310294 0.000000 
0.419801 -2.362425 0.000000 
0.463408 -2.386990 0.000000 
0.434377 -2.440504 0.000000 
0.472347 -2.457387 0.000000 
0.432167 -2.523337 0.000000 
0.474375 -2.534748 0.000000 
0.026499 -2.483844 0.000000 
0.029280 -2.390074 0.000000 
0.058852 -2.429551 0.000000 
0.112141 -2.417974 0.000000 
0.032619 -2.298101 0.000000 
0.064378 -2.335339 0.000000 
0.122828 -2.314972 0.000000 
0.140740 -2.364497 0.000000 
0.189626 -2.357301 0.000000 
0.032039 -2.198702 0.000000 
0.065959 -2.235036 0.000000 
0.127075 -2.204697 0.000000 
0.155053 -2.250419 0.000000 
0.209462 -2.234175 0.000000 
0.229054 -2.290168 0.000000 
0.283768 -2.276098 0.000000 
0.028171 -2.100178 0.000000 
0.060800 -2.146921 0.000000 
0.119430 -2.121135 0.000000 
0.153725 -2.147717 0.000000 
0.212181 -2.129886 0.000000 
0.241235 -2.168305 0.000000 
0.294199 -2.156938 0.000000 
0.315448 -2.208249 0.000000 
0.362740 -2.205226 0.000000 
CELLS 175 350 
1 0 
1 1 
1 2 
1 3 
1 4 
1 5 
1 6 
1 7 
1 8 
1 9 
1 10 
1 11 
1 12 
1 13 
1 14 
1 15 
1 16 
1 17 
1 18 
1 19 
1 20 
1 21 
1 22 
1 23 
1 24 
1 25 
1 26 
1 27 
1 28 
1 29 
1 30 
1 31 
1 32 
1 33 
1 34 
1 35 
1 36 
1 37 
1 38 
1 39 
1 40 
1 41 
1 42 
1 43 
1 44 
1 45 
1 46 
1 47 
1 48 
1 49 
1 50 
1 51 
1 52 
1 53 
1 54 
1 55 
1 56 
1 57 
1 58 
1 59 
1 60 
1 61 
1 62 
1 63 
1 64 
1 65 
1 66 
1 67 
1 68 
1 69 
1 70 
1 71 
1 72 
1 73 
1 74 
1 75 
1 76 
1 77 
1 78 
1 79 
1 80 
1 81 
1 82 
1 83 
1 84 
1 85 
1 86 
1 87 
1 88 
1 89 
1 90 
1 91 
1 92 
1 93 
1 94 
1 95 
1 96 
1 97 
1 98 
1 99 
1 100 
1 101 
1 102 
1 103 
1 104 
1 105 
1 106 
1 107 
1 108 
1 109 
1 110 
1 111 
1 112 
1 113 
1 114 
1 115 
1 116 
1 117 
1 118 
1 119 
1 120 
1 121 
1 122 
1 123 
1 124 
1 125 
1 126 
1 127 
1 128 
1 129 
1 130 
1 131 
1 132 
1 133 
1 134 
1 135 
1 136 
1 137 
1 138 
1 139 
1 140 
1 141 
1 142 
1 143 
1 144 
1 145 
1 146 
1 147 
1 148 
1 149 
1 150 
1 151 
1 152 
1 153 
1 154 
1 155 
1 156 
1 157 
1 158 
1 159 
1 160 
1 161 
1 162 
1 163 
1 164 
1 165 
1 166 
1 167 
1 168 
1 169 
1 170 
1 171 
1 172 
1 173 
1 174 
CELL_TYPES 175 
1 
1 
1 
1 
1 
1 
1 
1 
1 
1 
1 
1 
1 
1 
1 
1 
1 
1 
1 
1 
1 
1 
1 
1 
1 
1 
1 
1 
1 
1 
1 
1 
1 
1 
1 
1 
1 
1 
1 
1 
1 
1 
1 
1 
1 
1 
1 
1 
1 
1 
1 
1 
1 
1 
1 
1 
1 
1 
1 
1 
1 
1 
1 
1 
1 
1 
1 
1 
1 
1 
1 
1 
1 
1 
1 
1 
1 
1 
1 
1 
1 
1 
1 
1 
1 
1 
1 
1 
1 
1 
1 
1 
1 
1 
1 
1 
1 
1 
1 
1 
1 
1 
1 
1 
1 
1 
1 
1 
1 
1 
1 
1 
1 
1 
1 
1 
1 
1 
1 
1 
1 
1 
1 
1 
1 
1 
1 
1 
1 
1 
1 
1 
1 
1 
1 
1 
1 
1 
1 
1 
1 
1 
1 
1 
1 
1 
1 
1 
1 
1 
1 
1 
1 
1 
1 
1 
1 
1 
1 
1 
1 
1 
1 
1 
1 
1 
1 
1 
1 
1 
1 
1 
1 
1 
1 
POINT_DATA 175 
VECTORS X_GC float 
-0.026499 -2.483844 0.000000 
-0.112141 -2.417974 0.000000 
-0.058852 -2.429551 0.000000 
-0.029280 -2.390074 0.000000 
-0.189626 -2.357301 0.000000 
-0.140740 -2.364497 0.000000 
-0.122828 -2.314972 0.000000 
-0.064378 -2.335339 0.000000 
-0.032619 -2.298101 0.000000 
-0.283768 -2.276098 0.000000 
-0.229054 -2.290168 0.000000 
-0.209462 -2.234175 0.000000 
-0.155053 -2.250419 0.000000 
-0.127075 -2.204697 0.000000 
-0.065959 -2.235036 0.000000 
-0.032039 -2.198702 0.000000 
-0.362740 -2.205226 0.000000 
-0.315448 -2.208249 0.000000 
-0.294199 -2.156938 0.000000 
-0.241235 -2.168305 0.000000 
-0.212181 -2.129886 0.000000 
-0.153725 -2.147717 0.000000 
-0.119430 -2.121135 0.000000 
-0.060800 -2.146921 0.000000 
-0.028171 -2.100178 0.000000 
-0.064416 -2.526047 0.000000 
-0.164861 -2.540682 0.000000 
-0.130482 -2.500399 0.000000 
-0.147580 -2.453281 0.000000 
-0.257418 -2.546587 0.000000 
-0.233512 -2.507749 0.000000 
-0.264440 -2.457641 0.000000 
-0.214036 -2.436875 0.000000 
-0.227213 -2.394533 0.000000 
-0.369641 -2.552684 0.000000 
-0.332428 -2.520757 0.000000 
-0.364132 -2.468808 0.000000 
-0.327728 -2.439928 0.000000 
-0.349812 -2.398427 0.000000 
-0.299831 -2.368627 0.000000 
-0.319007 -2.321495 0.000000 
-0.474375 -2.534749 0.000000 
-0.432167 -2.523338 0.000000 
-0.472346 -2.457387 0.000000 
-0.434377 -2.440504 0.000000 
-0.463408 -2.386990 0.000000 
-0.419801 -2.362425 0.000000 
-0.428794 -2.310294 0.000000 
-0.391462 -2.293417 0.000000 
-0.401216 -2.252105 0.000000 
-0.049570 -2.590084 0.000000 
-0.101725 -2.698131 0.000000 
-0.106763 -2.637754 0.000000 
-0.149038 -2.613289 0.000000 
-0.120215 -2.735994 0.000000 
-0.138738 -2.713173 0.000000 
-0.198496 -2.692714 0.000000 
-0.196318 -2.649732 0.000000 
-0.241989 -2.611492 0.000000 
-0.225931 -2.792308 0.000000 
-0.179292 -2.743594 0.000000 
-0.248912 -2.730579 0.000000 
-0.257078 -2.706837 0.000000 
-0.322818 -2.698226 0.000000 
-0.310612 -2.650189 0.000000 
-0.363184 -2.620124 0.000000 
-0.179430 -3.164184 0.000000 
-0.136612 -3.019482 0.000000 
-0.066957 -3.119314 0.000000 
-0.360157 -2.791343 0.000000 
-0.368938 -2.753536 0.000000 
-0.368081 -2.724878 0.000000 
-0.416190 -2.735084 0.000000 
-0.422860 -2.661084 0.000000 
-0.445232 -2.627737 0.000000 
0.000000 -2.617340 0.000000 
0.046651 -2.712257 0.000000 
-0.000000 -2.695915 0.000000 
-0.046651 -2.712257 0.000000 
0.077583 -2.747297 0.000000 
0.041536 -2.737256 0.000000 
-0.000000 -2.755513 0.000000 
-0.041536 -2.737256 0.000000 
-0.077583 -2.747297 0.000000 
0.146354 -2.884687 0.000000 
0.102547 -2.802265 0.000000 
0.049194 -3.006984 0.000000 
0.000000 -2.851128 0.000000 
-0.049194 -3.006984 0.000000 
-0.102547 -2.802265 0.000000 
-0.146354 -2.884687 0.000000 
0.155137 -3.180078 0.000000 
0.100981 -3.070896 0.000000 
0.149014 -3.214579 0.000000 
0.082624 -3.103462 0.000000 
-0.000000 -3.262115 0.000000 
-0.082624 -3.103462 0.000000 
-0.149015 -3.214579 0.000000 
-0.100982 -3.070896 0.000000 
-0.155134 -3.180081 0.000000 
0.049570 -2.590084 0.000000 
0.149038 -2.613289 0.000000 
0.106763 -2.637754 0.000000 
0.101725 -2.698131 0.000000 
0.241989 -2.611492 0.000000 
0.196317 -2.649732 0.000000 
0.198496 -2.692714 0.000000 
0.138738 -2.713173 0.000000 
0.120215 -2.735994 0.000000 
0.363185 -2.620123 0.000000 
0.310612 -2.650189 0.000000 
0.322818 -2.698225 0.000000 
0.257078 -2.706837 0.000000 
0.248912 -2.730579 0.000000 
0.179292 -2.743594 0.000000 
0.225931 -2.792308 0.000000 
0.445233 -2.627736 0.000000 
0.422860 -2.661082 0.000000 
0.416188 -2.735113 0.000000 
0.368081 -2.724881 0.000000 
0.368938 -2.753544 0.000000 
0.360158 -2.791355 0.000000 
0.066899 -3.119285 0.000000 
0.136639 -3.019467 0.000000 
0.179457 -3.164170 0.000000 
0.064416 -2.526047 0.000000 
0.147580 -2.453281 0.000000 
0.130481 -2.500399 0.000000 
0.164861 -2.540682 0.000000 
0.227213 -2.394533 0.000000 
0.214036 -2.436875 0.000000 
0.264440 -2.457641 0.000000 
0.233511 -2.507749 0.000000 
0.257418 -2.546587 0.000000 
0.319007 -2.321495 0.000000 
0.299831 -2.368627 0.000000 
0.349812 -2.398427 0.000000 
0.327728 -2.439928 0.000000 
0.364132 -2.468807 0.000000 
0.332428 -2.520757 0.000000 
0.369641 -2.552684 0.000000 
0.401216 -2.252105 0.000000 
0.391462 -2.293417 0.000000 
0.428794 -2.310294 0.000000 
0.419801 -2.362425 0.000000 
0.463408 -2.386990 0.000000 
0.434377 -2.440504 0.000000 
0.472347 -2.457387 0.000000 
0.432167 -2.523337 0.000000 
0.474375 -2.534748 0.000000 
0.026499 -2.483844 0.000000 
0.029280 -2.390074 0.000000 
0.058852 -2.429551 0.000000 
0.112141 -2.417974 0.000000 
0.032619 -2.298101 0.000000 
0.064378 -2.335339 0.000000 
0.122828 -2.314972 0.000000 
0.140740 -2.364497 0.000000 
0.189626 -2.357301 0.000000 
0.032039 -2.198702 0.000000 
0.065959 -2.235036 0.000000 
0.127075 -2.204697 0.000000 
0.155053 -2.250419 0.000000 
0.209462 -2.234175 0.000000 
0.229054 -2.290168 0.000000 
0.283768 -2.276098 0.000000 
0.028171 -2.100178 0.000000 
0.060800 -2.146921 0.000000 
0.119430 -2.121135 0.000000 
0.153725 -2.147717 0.000000 
0.212181 -2.129886 0.000000 
0.241235 -2.168305 0.000000 
0.294199 -2.156938 0.000000 
0.315448 -2.208249 0.000000 
0.362740 -2.205226 0.000000 
VECTORS X_EC float 
0.344488 0.031896 0.000000 
-0.542165 -0.857356 0.000000 
0.765081 -0.701066 0.000000 
0.380643 0.765999 0.000000 
0.465138 0.323569 0.000000 
-0.170381 0.420704 0.000000 
-0.403234 -0.247878 0.000000 
0.836918 0.027078 0.000000 
0.424048 -0.475633 0.000000 
-0.311014 -0.772677 0.000000 
0.977708 -0.582735 0.000000 
0.723002 0.661356 0.000000 
0.015692 0.880651 0.000000 
-0.348025 0.263416 0.000000 
0.857461 0.672982 0.000000 
0.416502 0.182480 0.000000 
0.715616 0.270555 0.000000 
0.100829 0.311368 0.000000 
-0.175413 -0.381335 0.000000 
-0.863942 -0.227882 0.000000 
0.758352 -0.746542 0.000000 
-0.001577 -0.505816 0.000000 
-0.447416 -0.864673 0.000000 
0.790403 -0.516562 0.000000 
0.366220 0.852402 0.000000 
0.837414 0.601639 0.000000 
0.143192 0.799209 0.000000 
-0.303740 0.255386 0.000000 
-0.081461 -0.380701 0.000000 
-0.653561 0.878923 0.000000 
-0.964350 0.354610 0.000000 
-0.562282 -0.321842 0.000000 
0.782463 -0.602188 0.000000 
0.953767 0.826199 0.000000 
0.805333 0.961237 0.000000 
0.321561 0.530225 0.000000 
0.733713 -0.171096 0.000000 
0.260463 -0.560977 0.000000 
0.547553 0.878770 0.000000 
-0.102192 0.476466 0.000000 
0.147091 -0.159823 0.000000 
0.166877 0.719106 0.000000 
-0.381831 0.565059 0.000000 
0.140504 -0.325270 0.000000 
-0.353098 -0.553192 0.000000 
0.024310 0.724363 0.000000 
-0.542592 0.392736 0.000000 
-0.425674 -0.311025 0.000000 
-0.910990 -0.538867 0.000000 
-0.784190 0.903421 0.000000 
0.644405 -0.533860 0.000000 
-0.677580 0.924773 0.000000 
-0.612078 0.109678 0.000000 
-0.062505 -0.220592 0.000000 
-0.437211 -0.564084 0.000000 
-0.196407 -0.872159 0.000000 
0.580454 0.851643 0.000000 
0.552129 0.271385 0.000000 
-0.854139 -0.244856 0.000000 
0.937105 0.196160 0.000000 
0.330800 -0.461483 0.000000 
-0.764140 -0.637188 0.000000 
-0.657980 -0.957699 0.000000 
0.196635 0.926050 0.000000 
0.037950 0.277558 0.000000 
0.721398 -0.128324 0.000000 
0.808930 0.945648 0.000000 
0.822002 0.973845 0.000000 
0.315175 0.903630 0.000000 
0.682044 0.183127 0.000000 
0.796188 -0.327261 0.000000 
0.785050 -0.714141 0.000000 
-0.589527 -0.576361 0.000000 
-0.502818 0.424628 0.000000 
-0.211979 -0.025552 0.000000 
-0.000000 -0.165904 0.000000 
-0.606466 -0.884529 0.000000 
0.000000 0.894858 0.000000 
0.606466 -0.884529 0.000000 
0.991419 -0.411487 0.000000 
-0.539966 -0.547045 0.000000 
0.000000 -0.300569 0.000000 
0.539966 -0.547045 0.000000 
-0.991418 -0.411487 0.000000 
0.097398 -0.556721 0.000000 
0.666885 0.330583 0.000000 
0.748521 0.978687 0.000000 
-0.000000 0.990224 0.000000 
-0.748521 0.978687 0.000000 
-0.666885 0.330583 0.000000 
-0.097397 -0.556720 0.000000 
0.704269 0.937207 0.000000 
-0.724313 0.961051 0.000000 
0.412755 0.887080 0.000000 
0.791852 0.988079 0.000000 
0.000000 0.760633 0.000000 
-0.791852 0.988079 0.000000 
-0.412755 0.887080 0.000000 
0.724313 0.961051 0.000000 
-0.704269 0.937207 0.000000 
-0.644405 -0.533860 0.000000 
0.062507 -0.220593 0.000000 
0.612079 0.109677 0.000000 
0.677581 0.924773 0.000000 
0.854144 -0.244859 0.000000 
-0.552126 0.271384 0.000000 
-0.580452 0.851644 0.000000 
0.196408 -0.872159 0.000000 
0.437211 -0.564084 0.000000 
-0.721401 -0.128335 0.000000 
-0.037950 0.277550 0.000000 
-0.196637 0.926040 0.000000 
0.657981 -0.957699 0.000000 
0.764140 -0.637183 0.000000 
-0.330799 -0.461483 0.000000 
-0.937104 0.196159 0.000000 
0.211975 -0.025568 0.000000 
0.502814 0.424611 0.000000 
0.589554 -0.575972 0.000000 
-0.785058 -0.714102 0.000000 
-0.796199 -0.327162 0.000000 
-0.682059 0.183293 0.000000 
-0.315175 0.903630 0.000000 
-0.822002 0.973845 0.000000 
-0.808930 0.945648 0.000000 
-0.837414 0.601639 0.000000 
0.081462 -0.380701 0.000000 
0.303742 0.255384 0.000000 
-0.143188 0.799207 0.000000 
-0.953767 0.826199 0.000000 
-0.782462 -0.602189 0.000000 
0.562283 -0.321844 0.000000 
0.964354 0.354607 0.000000 
0.653565 0.878918 0.000000 
-0.147090 -0.159823 0.000000 
0.102192 0.476466 0.000000 
-0.547553 0.878770 0.000000 
-0.260463 -0.560979 0.000000 
-0.733715 -0.171100 0.000000 
-0.321562 0.530219 0.000000 
-0.805337 0.961228 0.000000 
0.784190 0.903421 0.000000 
0.910990 -0.538867 0.000000 
0.425674 -0.311025 0.000000 
0.542592 0.392737 0.000000 
-0.024310 0.724363 0.000000 
0.353097 -0.553193 0.000000 
-0.140505 -0.325271 0.000000 
0.381827 0.565053 0.000000 
-0.166879 0.719101 0.000000 
-0.344489 0.031896 0.000000 
-0.380643 0.765999 0.000000 
-0.765082 -0.701066 0.000000 
0.542165 -0.857356 0.000000 
-0.424048 -0.475633 0.000000 
-0.836918 0.027079 0.000000 
0.403234 -0.247878 0.000000 
0.170381 0.420704 0.000000 
-0.465138 0.323569 0.000000 
-0.416502 0.182480 0.000000 
-0.857461 0.672982 0.000000 
0.348025 0.263416 0.000000 
-0.015692 0.880651 0.000000 
-0.723002 0.661356 0.000000 
-0.977708 -0.582735 0.000000 
0.311014 -0.772677 0.000000 
-0.366220 0.852402 0.000000 
-0.790403 -0.516562 0.000000 
0.447416 -0.864673 0.000000 
0.001577 -0.505816 0.000000 
-0.758352 -0.746542 0.000000 
0.863942 -0.227882 0.000000 
0.175413 -0.381335 0.000000 
-0.100829 0.311368 0.000000 
-0.715616 0.270555 0.000000 
CELL_DATA 175 
SCALARS MASS float 
LOOKUP_TABLE default 
0.781831 
0.864274 
0.946717 
0.864274 
0.881307 
0.921110 
0.858535 
0.921110 
0.881307 
0.887046 
0.910001 
0.869829 
0.915556 
0.869829 
0.910001 
0.887046 
0.892784 
0.915740 
0.892784 
0.927218 
0.892784 
0.927218 
0.892784 
0.915740 
0.892784 
0.781831 
0.864274 
0.946717 
0.864274 
0.881307 
0.921110 
0.858535 
0.921110 
0.881307 
0.887046 
0.910001 
0.869829 
0.915556 
0.869829 
0.910001 
0.887046 
0.892784 
0.915740 
0.892784 
0.927218 
0.892784 
0.927218 
0.892784 
0.915740 
0.892784 
0.781831 
0.864274 
0.946717 
0.864274 
0.881307 
0.921110 
0.858535 
0.921110 
0.881307 
0.887046 
0.910001 
0.869829 
0.915556 
0.869829 
0.910001 
0.887046 
0.892784 
0.915740 
0.892784 
0.927218 
0.892784 
0.927218 
0.892784 
0.915740 
0.892784 
0.781831 
0.864274 
0.946717 
0.864274 
0.881307 
0.921110 
0.858535 
0.921110 
0.881307 
0.887046 
0.910001 
0.869829 
0.915556 
0.869829 
0.910001 
0.887046 
0.892784 
0.915740 
0.892784 
0.927218 
0.892784 
0.927218 
0.892784 
0.915740 
0.892784 
0.781831 
0.864274 
0.946717 
0.864274 
0.881307 
0.921110 
0.858535 
0.921110 
0.881307 
0.887046 
0.910001 
0.869829 
0.915556 
0.869829 
0.910001 
0.887046 
0.892784 
0.915740 
0.892784 
0.927218 
0.892784 
0.927218 
0.892784 
0.915740 
0.892784 
0.781831 
0.864274 
0.946717 
0.864274 
0.881307 
0.921110 
0.858535 
0.921110 
0.881307 
0.887046 
0.910001 
0.869829 
0.915556 
0.869829 
0.910001 
0.887046 
0.892784 
0.915740 
0.892784 
0.927218 
0.892784 
0.927218 
0.892784 
0.915740 
0.892784 
0.781831 
0.864274 
0.946717 
0.864274 
0.881307 
0.921110 
0.858535 
0.921110 
0.881307 
0.887046 
0.910001 
0.869829 
0.915556 
0.869829 
0.910001 
0.887046 
0.892784 
0.915740 
0.892784 
0.927218 
0.892784 
0.927218 
0.892784 
0.915740 
0.892784 
SCALARS MASS float 
LOOKUP_TABLE default 
0.781831 
0.864274 
0.946717 
0.864274 
0.881307 
0.921110 
0.858535 
0.921110 
0.881307 
0.887046 
0.910001 
0.869829 
0.915556 
0.869829 
0.910001 
0.887046 
0.892784 
0.915740 
0.892784 
0.927218 
0.892784 
0.927218 
0.892784 
0.915740 
0.892784 
0.781831 
0.864274 
0.946717 
0.864274 
0.881307 
0.921110 
0.858535 
0.921110 
0.881307 
0.887046 
0.910001 
0.869829 
0.915556 
0.869829 
0.910001 
0.887046 
0.892784 
0.915740 
0.892784 
0.927218 
0.892784 
0.927218 
0.892784 
0.915740 
0.892784 
0.781831 
0.864274 
0.946717 
0.864274 
0.881307 
0.921110 
0.858535 
0.921110 
0.881307 
0.887046 
0.910001 
0.869829 
0.915556 
0.869829 
0.910001 
0.887046 
0.892784 
0.915740 
0.892784 
0.927218 
0.892784 
0.927218 
0.892784 
0.915740 
0.892784 
0.781831 
0.864274 
0.946717 
0.864274 
0.881307 
0.921110 
0.858535 
0.921110 
0.881307 
0.887046 
0.910001 
0.869829 
0.915556 
0.869829 
0.910001 
0.887046 
0.892784 
0.915740 
0.892784 
0.927218 
0.892784 
0.927218 
0.892784 
0.915740 
0.892784 
0.781831 
0.864274 
0.946717 
0.864274 
0.881307 
0.921110 
0.858535 
0.921110 
0.881307 
0.887046 
0.910001 
0.869829 
0.915556 
0.869829 
0.910001 
0.887046 
0.892784 
0.915740 
0.892784 
0.927218 
0.892784 
0.927218 
0.892784 
0.915740 
0.892784 
0.781831 
0.864274 
0.946717 
0.864274 
0.881307 
0.921110 
0.858535 
0.921110 
0.881307 
0.887046 
0.910001 
0.869829 
0.915556 
0.869829 
0.910001 
0.887046 
0.892784 
0.915740 
0.892784 
0.927218 
0.892784 
0.927218 
0.892784 
0.915740 
0.892784 
0.781831 
0.864274 
0.946717 
0.864274 
0.881307 
0.921110 
0.858535 
0.921110 
0.881307 
0.887046 
0.910001 
0.869829 
0.915556 
0.869829 
0.910001 
0.887046 
0.892784 
0.915740 
0.892784 
0.927218 
0.892784 
0.927218 
0.892784 
0.915740 
0.892784 
SCALARS DENSITY float 
LOOKUP_TABLE default 
275.297497 
406.745750 
609.624754 
66.825888 
124.185182 
132.682405 
530.124477 
377.037183 
800.103212 
452.942584 
16054.149322 
216.266902 
219.559798 
164.580413 
268.188101 
122.949857 
467.573154 
93.104118 
210.292411 
245.096594 
262.348935 
217.884782 
299.648854 
347.129224 
277.005546 
57330.544180 
840.221476 
421.109308 
139.373370 
185.481633 
2483.719518 
64.179738 
1557.493203 
70.496803 
142.010177 
316.224478 
666.665136 
378.882824 
2555.959056 
81.915305 
322.645199 
5262.196674 
114.203806 
6925.049447 
70.786162 
1716.856892 
633.315838 
177.627454 
1455.217841 
165.155891 
15573.321102 
399.964604 
177.700605 
1288.830600 
61735446469961.156250 
107.900587 
39.223867 
683.720546 
98.591517 
27493391398488172.000000 
632887505652628717568.000000 
2319.553348 
281.937890 
1207.662700 
100.461363 
642.917791 
7791548155036369420288.000000 
43972813954.329170 
-2733.673489 
67797.637532 
3346.288583 
97.554646 
1420.317410 
1392.406662 
529.567439 
370.462313 
101.671030 
422.471571 
101.671025 
-5594841260759992215928872287433186607104.000000 
468811.457369 
77881791480071471104.000000 
468811.217864 
-5594773263895189736912403584826474496000.000000 
1132946063842604509201375046926336.000000 
36747103170642758936297472.000000 
1058386663893044288164986880.000000 
1940341100237.830566 
1058381519150988063162761216.000000 
36747113357786430308352000.000000 
1132947568990342554171920764370944.000000 
216031697163315040.000000 
1109365331813695308764674509956337752570445174050008434596642816.000000 
129481424919445830335493883582650739851264.000000 
-8007466317542574913626199496712495389128774160948624742636008798572557369344.000000 
366132700.861538 
-8007314564651559261495354384820658829083062855640649668384511588514391916544.000000 
129483570301468258037617571519765032206336.000000 
1109288965473546996927892349509919448118151180734289307221622784.000000 
216034084976406432.000000 
15573.319772 
1288.830764 
177.700616 
399.964700 
98.591728 
683.720907 
39.223893 
107.900604 
61735392840486.656250 
642.924282 
100.462029 
1207.674297 
281.938121 
2319.554359 
632885204663476682752.000000 
27493349062319740.000000 
529.574878 
1392.426164 
1420.282545 
97.554707 
3346.292409 
67797.573347 
-2723.953462 
43972095811.654083 
7791375447059095093248.000000 
57330.547274 
139.373360 
421.109244 
840.221058 
70.496789 
1557.492838 
64.179743 
2483.720131 
185.481791 
322.645163 
81.915300 
2555.958620 
378.882835 
666.665174 
316.224499 
142.011604 
165.155902 
1455.217820 
177.627426 
633.315759 
1716.856141 
70.786143 
6925.046659 
114.203796 
5262.153386 
275.297486 
66.825889 
609.624744 
406.745747 
800.103234 
377.037195 
530.124451 
132.682393 
124.185167 
122.949860 
268.188121 
164.580406 
219.559792 
216.266907 
16054.148936 
452.942544 
277.005556 
347.129233 
299.648867 
217.884784 
262.348925 
245.096596 
210.292421 
93.104116 
467.573171 
SCALARS ELEM_i float 
LOOKUP_TABLE default 
165 
192 
165 
166 
193 
193 
193 
166 
166 
220 
193 
194 
194 
194 
167 
167 
221 
221 
221 
221 
194 
194 
194 
167 
168 
165 
192 
192 
192 
219 
219 
219 
192 
193 
219 
219 
219 
219 
220 
220 
220 
246 
246 
246 
246 
247 
247 
247 
247 
248 
164 
191 
191 
191 
190 
190 
191 
191 
218 
190 
190 
217 
217 
218 
218 
218 
216 
216 
243 
217 
217 
217 
244 
245 
245 
164 
163 
164 
163 
136 
163 
163 
163 
190 
135 
136 
135 
163 
189 
190 
189 
108 
135 
135 
135 
162 
189 
189 
189 
216 
164 
137 
137 
137 
110 
137 
137 
136 
136 
110 
110 
110 
109 
109 
136 
136 
83 
83 
82 
109 
109 
109 
81 
108 
108 
165 
138 
138 
138 
139 
138 
111 
111 
111 
112 
112 
112 
111 
111 
111 
111 
86 
85 
85 
85 
85 
84 
84 
84 
84 
165 
166 
165 
138 
166 
166 
139 
139 
139 
167 
167 
140 
140 
140 
139 
112 
168 
167 
140 
140 
140 
113 
113 
113 
113 
VECTORS VELOCITY float 
0.412905 5.602881 0.000000 
-1.402880 0.165109 0.000000 
-1.329073 1.378072 0.000000 
0.681112 -1.488707 0.000000 
2.203528 -4.474589 0.000000 
0.290077 -4.362717 0.000000 
-0.547552 -4.111978 0.000000 
-1.269040 -3.493732 0.000000 
-0.193837 -3.698387 0.000000 
-0.992478 0.868679 0.000000 
0.934793 -2.220694 0.000000 
0.035021 0.491023 0.000000 
-1.133317 -0.640702 0.000000 
0.164101 2.020291 0.000000 
-0.689638 -0.794509 0.000000 
0.415378 0.340533 0.000000 
0.020933 3.372407 0.000000 
0.460297 4.340195 0.000000 
0.469375 -0.253758 0.000000 
0.437967 2.712613 0.000000 
-0.159224 -2.625946 0.000000 
0.702514 0.312955 0.000000 
1.886136 -4.772046 0.000000 
1.286070 -2.343413 0.000000 
1.298242 2.590397 0.000000 
-0.295267 5.790882 0.000000 
-2.277378 2.711451 0.000000 
-2.119203 6.481418 0.000000 
-0.897981 3.510952 0.000000 
-1.295505 2.002693 0.000000 
-1.991293 3.430673 0.000000 
-0.334161 1.764013 0.000000 
0.965200 -0.955746 0.000000 
2.258649 -4.037431 0.000000 
-2.619546 5.528022 0.000000 
0.725798 6.241140 0.000000 
3.366088 1.681611 0.000000 
3.011757 0.769238 0.000000 
3.222726 -3.367979 0.000000 
1.338090 -3.023847 0.000000 
-0.263813 -1.738698 0.000000 
-1.670360 10.588061 0.000000 
2.442103 3.837242 0.000000 
5.130250 4.764337 0.000000 
1.987879 0.400421 0.000000 
-2.055138 3.459993 0.000000 
-1.470632 1.321166 0.000000 
6.863765 5.879985 0.000000 
0.385109 2.148151 0.000000 
1.912080 2.236439 0.000000 
-0.024113 -4.811410 0.000000 
-3.679565 -17.639237 0.000000 
-3.815936 -13.081012 0.000000 
-1.417902 -7.949485 0.000000 
-0.255976 13.326029 0.000000 
0.343629 -1.649078 0.000000 
1.866654 -7.375643 0.000000 
1.522146 -12.890612 0.000000 
0.895147 -6.801795 0.000000 
-5.233004 10.826330 0.000000 
-0.273229 16.703859 0.000000 
-4.644720 13.962329 0.000000 
-3.357576 -0.287017 0.000000 
-5.480056 -0.056775 0.000000 
-0.982456 -4.181611 0.000000 
-4.591649 0.713004 0.000000 
-3.332365 -130.042951 0.000000 
0.348055 -51.124370 0.000000 
17.092979 -59.216416 0.000000 
-5.876112 4.966416 0.000000 
4.187937 13.591805 0.000000 
0.618610 3.425461 0.000000 
2.082863 -2.440106 0.000000 
-5.162901 -1.580961 0.000000 
1.795232 3.936811 0.000000 
-0.000006 -9.752663 0.000000 
1.593199 -10.219667 0.000000 
-0.000012 -18.212415 0.000000 
-1.593223 -10.219665 0.000000 
2.051773 19.716319 0.000000 
1.052820 15.773458 0.000000 
-0.000008 20.807400 0.000000 
-1.052840 15.773461 0.000000 
-2.051790 19.716323 0.000000 
2.813173 -5.053577 0.000000 
2.690306 17.458103 0.000000 
-1.852611 -36.352515 0.000000 
0.000001 7.088954 0.000000 
1.852611 -36.352516 0.000000 
-2.690315 17.458115 0.000000 
-2.813168 -5.053567 0.000000 
-2.369139 -140.052146 0.000000 
-0.863893 -73.674118 0.000000 
3.205755 -158.724045 0.000000 
-1.142033 -87.140557 0.000000 
-0.000000 -187.883220 0.000000 
1.142033 -87.140558 0.000000 
-3.205754 -158.724043 0.000000 
0.863893 -73.674117 0.000000 
2.371582 -140.053242 0.000000 
0.024105 -4.811402 0.000000 
1.417797 -7.949447 0.000000 
3.815889 -13.081003 0.000000 
3.679527 -17.639255 0.000000 
-0.895341 -6.801716 0.000000 
-1.522279 -12.890613 0.000000 
-1.866749 -7.375713 0.000000 
-0.343680 -1.649122 0.000000 
0.255941 13.326001 0.000000 
4.591803 0.713008 0.000000 
0.982478 -4.181690 0.000000 
5.480119 -0.057039 0.000000 
3.357522 -0.287216 0.000000 
4.644679 13.961967 0.000000 
0.273178 16.703802 0.000000 
5.232976 10.826281 0.000000 
-1.795094 3.936734 0.000000 
5.163050 -1.581180 0.000000 
-2.084055 -2.455823 0.000000 
-0.618327 3.423074 0.000000 
-4.187510 13.587170 0.000000 
5.876684 4.959309 0.000000 
-17.125820 -59.202011 0.000000 
-0.332738 -51.117259 0.000000 
3.347368 -130.036175 0.000000 
0.295266 5.790893 0.000000 
0.897941 3.510986 0.000000 
2.119141 6.481469 0.000000 
2.277233 2.711557 0.000000 
-2.258660 -4.037420 0.000000 
-0.965257 -0.955703 0.000000 
0.334101 1.764099 0.000000 
1.991103 3.430811 0.000000 
1.295318 2.002905 0.000000 
0.263813 -1.738700 0.000000 
-1.338092 -3.023845 0.000000 
-3.222722 -3.367979 0.000000 
-3.011743 0.769307 0.000000 
-3.366004 1.681759 0.000000 
-0.725744 6.241385 0.000000 
2.619735 5.528349 0.000000 
-1.912080 2.236435 0.000000 
-0.385108 2.148147 0.000000 
-6.863767 5.879980 0.000000 
1.470631 1.321161 0.000000 
2.055131 3.459985 0.000000 
-1.987833 0.400484 0.000000 
-5.130204 4.764411 0.000000 
-2.441939 3.837482 0.000000 
1.670489 10.588258 0.000000 
-0.412901 5.602883 0.000000 
-0.681103 -1.488708 0.000000 
1.329081 1.378073 0.000000 
1.402881 0.165114 0.000000 
0.193841 -3.698388 0.000000 
1.269047 -3.493733 0.000000 
0.547554 -4.111980 0.000000 
-0.290076 -4.362715 0.000000 
-2.203532 -4.474585 0.000000 
-0.415377 0.340532 0.000000 
0.689640 -0.794511 0.000000 
-0.164100 2.020288 0.000000 
1.133319 -0.640708 0.000000 
-0.035021 0.491016 0.000000 
-0.934796 -2.220699 0.000000 
0.992477 0.868673 0.000000 
-1.298242 2.590397 0.000000 
-1.286070 -2.343413 0.000000 
-1.886136 -4.772046 0.000000 
-0.702514 0.312954 0.000000 
0.159224 -2.625947 0.000000 
-0.437967 2.712610 0.000000 
-0.469375 -0.253759 0.000000 
-0.460298 4.340192 0.000000 
-0.020934 3.372405 0.000000 
TENSORS STRESS float 
109.991386 6.859396 0.000000 
0.000000 109.716232 0.000000 
0.000000 0.000000 0.000000 

51.916682 -5.634109 0.000000 