# vtk DataFile Version 3.0 
vtk output 
ASCII 
DATASET UNSTRUCTURED_GRID 
POINTS 175 float 
-0.022466 -2.500987 0.000000 
-0.099146 -2.431132 0.000000 
-0.049955 -2.436524 0.000000 
-0.025272 -2.393444 0.000000 
-0.180365 -2.379741 0.000000 
-0.130523 -2.377551 0.000000 
-0.115260 -2.323577 0.000000 
-0.057507 -2.336492 0.000000 
-0.029882 -2.297746 0.000000 
-0.273345 -2.316931 0.000000 
-0.222983 -2.322582 0.000000 
-0.207381 -2.261842 0.000000 
-0.151535 -2.266156 0.000000 
-0.128087 -2.214193 0.000000 
-0.064549 -2.231956 0.000000 
-0.033021 -2.193509 0.000000 
-0.359027 -2.263459 0.000000 
-0.313317 -2.256385 0.000000 
-0.303909 -2.193757 0.000000 
-0.246336 -2.203038 0.000000 
-0.219462 -2.164376 0.000000 
-0.160069 -2.165499 0.000000 
-0.129079 -2.129349 0.000000 
-0.067574 -2.138717 0.000000 
-0.032600 -2.111713 0.000000 
-0.054599 -2.551095 0.000000 
-0.142988 -2.585944 0.000000 
-0.113548 -2.533568 0.000000 
-0.132080 -2.480592 0.000000 
-0.226587 -2.603207 0.000000 
-0.203091 -2.564835 0.000000 
-0.239928 -2.501221 0.000000 
-0.196353 -2.471519 0.000000 
-0.215074 -2.425697 0.000000 
-0.327765 -2.622996 0.000000 
-0.298414 -2.581394 0.000000 
-0.334110 -2.520278 0.000000 
-0.303468 -2.484081 0.000000 
-0.328562 -2.438725 0.000000 
-0.284260 -2.406906 0.000000 
-0.303322 -2.364706 0.000000 
-0.411966 -2.635985 0.000000 
-0.394371 -2.602527 0.000000 
-0.441787 -2.536990 0.000000 
-0.404776 -2.506669 0.000000 
-0.440871 -2.468300 0.000000 
-0.396119 -2.428420 0.000000 
-0.429857 -2.383661 0.000000 
-0.372369 -2.350810 0.000000 
-0.394305 -2.313394 0.000000 
-0.041059 -2.615432 0.000000 
-0.074868 -2.722016 0.000000 
-0.084922 -2.665131 0.000000 
-0.123551 -2.648941 0.000000 
-0.093491 -2.806894 0.000000 
-0.105979 -2.760636 0.000000 
-0.154660 -2.740300 0.000000 
-0.159969 -2.689821 0.000000 
-0.205521 -2.663294 0.000000 
-0.158999 -2.913575 0.000000 
-0.134560 -2.840088 0.000000 
-0.182923 -2.830933 0.000000 
-0.195193 -2.784684 0.000000 
-0.258258 -2.769965 0.000000 
-0.261228 -2.709926 0.000000 
-0.313063 -2.690224 0.000000 
-0.294979 -3.168572 0.000000 
-0.255309 -3.023281 0.000000 
-0.329667 -3.056660 0.000000 
-0.281298 -2.887150 0.000000 
-0.296964 -2.835924 0.000000 
-0.300727 -2.798729 0.000000 
-0.352874 -2.780006 0.000000 
-0.361379 -2.733457 0.000000 
-0.379653 -2.714255 0.000000 
-0.000000 -2.641755 0.000000 
0.034286 -2.742709 0.000000 
0.000000 -2.717486 0.000000 
-0.034286 -2.742709 0.000000 
0.061918 -2.826164 0.000000 
0.032367 -2.802248 0.000000 
0.000000 -2.845732 0.000000 
-0.032367 -2.802248 0.000000 
-0.061918 -2.826164 0.000000 
0.130007 -2.956599 0.000000 
0.082454 -2.916549 0.000000 
0.063768 -3.007755 0.000000 
-0.000000 -2.943012 0.000000 
-0.063768 -3.007755 0.000000 
-0.082454 -2.916549 0.000000 
-0.130007 -2.956599 0.000000 
0.212854 -3.184118 0.000000 
0.144098 -3.072955 0.000000 
0.167290 -3.222220 0.000000 
0.096517 -3.103538 0.000000 
-0.000000 -3.278977 0.000000 
-0.096517 -3.103538 0.000000 
-0.167290 -3.222220 0.000000 
-0.144098 -3.072955 0.000000 
-0.212854 -3.184118 0.000000 
0.041059 -2.615432 0.000000 
0.123551 -2.648941 0.000000 
0.084922 -2.665131 0.000000 
0.074868 -2.722016 0.000000 
0.205521 -2.663294 0.000000 
0.159969 -2.689821 0.000000 
0.154660 -2.740300 0.000000 
0.105979 -2.760636 0.000000 
0.093491 -2.806894 0.000000 
0.313063 -2.690224 0.000000 
0.261228 -2.709926 0.000000 
0.258258 -2.769965 0.000000 
0.195193 -2.784684 0.000000 
0.182923 -2.830933 0.000000 
0.134560 -2.840088 0.000000 
0.158999 -2.913575 0.000000 
0.379653 -2.714255 0.000000 
0.361379 -2.733457 0.000000 
0.352874 -2.780006 0.000000 
0.300727 -2.798729 0.000000 
0.296964 -2.835924 0.000000 
0.281298 -2.887150 0.000000 
0.329667 -3.056660 0.000000 
0.255309 -3.023281 0.000000 
0.294979 -3.168572 0.000000 
0.054599 -2.551095 0.000000 
0.132080 -2.480592 0.000000 
0.113548 -2.533568 0.000000 
0.142988 -2.585944 0.000000 
0.215074 -2.425697 0.000000 
0.196353 -2.471519 0.000000 
0.239928 -2.501221 0.000000 
0.203091 -2.564835 0.000000 
0.226587 -2.603207 0.000000 
0.303322 -2.364706 0.000000 
0.284260 -2.406906 0.000000 
0.328562 -2.438725 0.000000 
0.303468 -2.484081 0.000000 
0.334110 -2.520278 0.000000 
0.298414 -2.581394 0.000000 
0.327765 -2.622996 0.000000 
0.394305 -2.313394 0.000000 
0.372369 -2.350810 0.000000 
0.429857 -2.383661 0.000000 
0.396119 -2.428420 0.000000 
0.440871 -2.468300 0.000000 
0.404776 -2.506669 0.000000 
0.441787 -2.536990 0.000000 
0.394371 -2.602527 0.000000 
0.411966 -2.635985 0.000000 
0.022466 -2.500987 0.000000 
0.025272 -2.393444 0.000000 
0.049955 -2.436524 0.000000 
0.099146 -2.431132 0.000000 
0.029882 -2.297746 0.000000 
0.057507 -2.336492 0.000000 
0.115260 -2.323577 0.000000 
0.130523 -2.377551 0.000000 
0.180365 -2.379741 0.000000 
0.033021 -2.193509 0.000000 
0.064549 -2.231956 0.000000 
0.128087 -2.214193 0.000000 
0.151535 -2.266156 0.000000 
0.207381 -2.261842 0.000000 
0.222983 -2.322582 0.000000 
0.273345 -2.316931 0.000000 
0.032600 -2.111713 0.000000 
0.067574 -2.138717 0.000000 
0.129079 -2.129349 0.000000 
0.160069 -2.165499 0.000000 
0.219462 -2.164376 0.000000 
0.246336 -2.203038 0.000000 
0.303909 -2.193757 0.000000 
0.313317 -2.256385 0.000000 
0.359027 -2.263459 0.000000 
CELLS 175 350 
1 0 
1 1 
1 2 
1 3 
1 4 
1 5 
1 6 
1 7 
1 8 
1 9 
1 10 
1 11 
1 12 
1 13 
1 14 
1 15 
1 16 
1 17 
1 18 
1 19 
1 20 
1 21 
1 22 
1 23 
1 24 
1 25 
1 26 
1 27 
1 28 
1 29 
1 30 
1 31 
1 32 
1 33 
1 34 
1 35 
1 36 
1 37 
1 38 
1 39 
1 40 
1 41 
1 42 
1 43 
1 44 
1 45 
1 46 
1 47 
1 48 
1 49 
1 50 
1 51 
1 52 
1 53 
1 54 
1 55 
1 56 
1 57 
1 58 
1 59 
1 60 
1 61 
1 62 
1 63 
1 64 
1 65 
1 66 
1 67 
1 68 
1 69 
1 70 
1 71 
1 72 
1 73 
1 74 
1 75 
1 76 
1 77 
1 78 
1 79 
1 80 
1 81 
1 82 
1 83 
1 84 
1 85 
1 86 
1 87 
1 88 
1 89 
1 90 
1 91 
1 92 
1 93 
1 94 
1 95 
1 96 
1 97 
1 98 
1 99 
1 100 
1 101 
1 102 
1 103 
1 104 
1 105 
1 106 
1 107 
1 108 
1 109 
1 110 
1 111 
1 112 
1 113 
1 114 
1 115 
1 116 
1 117 
1 118 
1 119 
1 120 
1 121 
1 122 
1 123 
1 124 
1 125 
1 126 
1 127 
1 128 
1 129 
1 130 
1 131 
1 132 
1 133 
1 134 
1 135 
1 136 
1 137 
1 138 
1 139 
1 140 
1 141 
1 142 
1 143 
1 144 
1 145 
1 146 
1 147 
1 148 
1 149 
1 150 
1 151 
1 152 
1 153 
1 154 
1 155 
1 156 
1 157 
1 158 
1 159 
1 160 
1 161 
1 162 
1 163 
1 164 
1 165 
1 166 
1 167 
1 168 
1 169 
1 170 
1 171 
1 172 
1 173 
1 174 
CELL_TYPES 175 
1 
1 
1 
1 
1 
1 
1 
1 
1 
1 
1 
1 
1 
1 
1 
1 
1 
1 
1 
1 
1 
1 
1 
1 
1 
1 
1 
1 
1 
1 
1 
1 
1 
1 
1 
1 
1 
1 
1 
1 
1 
1 
1 
1 
1 
1 
1 
1 
1 
1 
1 
1 
1 
1 
1 
1 
1 
1 
1 
1 
1 
1 
1 
1 
1 
1 
1 
1 
1 
1 
1 
1 
1 
1 
1 
1 
1 
1 
1 
1 
1 
1 
1 
1 
1 
1 
1 
1 
1 
1 
1 
1 
1 
1 
1 
1 
1 
1 
1 
1 
1 
1 
1 
1 
1 
1 
1 
1 
1 
1 
1 
1 
1 
1 
1 
1 
1 
1 
1 
1 
1 
1 
1 
1 
1 
1 
1 
1 
1 
1 
1 
1 
1 
1 
1 
1 
1 
1 
1 
1 
1 
1 
1 
1 
1 
1 
1 
1 
1 
1 
1 
1 
1 
1 
1 
1 
1 
1 
1 
1 
1 
1 
1 
1 
1 
1 
1 
1 
1 
1 
1 
1 
1 
1 
1 
POINT_DATA 175 
VECTORS X_GC float 
-0.022466 -2.500987 0.000000 
-0.099146 -2.431132 0.000000 
-0.049955 -2.436524 0.000000 
-0.025272 -2.393444 0.000000 
-0.180365 -2.379741 0.000000 
-0.130523 -2.377551 0.000000 
-0.115260 -2.323577 0.000000 
-0.057507 -2.336492 0.000000 
-0.029882 -2.297746 0.000000 
-0.273345 -2.316931 0.000000 
-0.222983 -2.322582 0.000000 
-0.207381 -2.261842 0.000000 
-0.151535 -2.266156 0.000000 
-0.128087 -2.214193 0.000000 
-0.064549 -2.231956 0.000000 
-0.033021 -2.193509 0.000000 
-0.359027 -2.263459 0.000000 
-0.313317 -2.256385 0.000000 
-0.303909 -2.193757 0.000000 
-0.246336 -2.203038 0.000000 
-0.219462 -2.164376 0.000000 
-0.160069 -2.165499 0.000000 
-0.129079 -2.129349 0.000000 
-0.067574 -2.138717 0.000000 
-0.032600 -2.111713 0.000000 
-0.054599 -2.551095 0.000000 
-0.142988 -2.585944 0.000000 
-0.113548 -2.533568 0.000000 
-0.132080 -2.480592 0.000000 
-0.226587 -2.603207 0.000000 
-0.203091 -2.564835 0.000000 
-0.239928 -2.501221 0.000000 
-0.196353 -2.471519 0.000000 
-0.215074 -2.425697 0.000000 
-0.327765 -2.622996 0.000000 
-0.298414 -2.581394 0.000000 
-0.334110 -2.520278 0.000000 
-0.303468 -2.484081 0.000000 
-0.328562 -2.438725 0.000000 
-0.284260 -2.406906 0.000000 
-0.303322 -2.364706 0.000000 
-0.411966 -2.635985 0.000000 
-0.394371 -2.602527 0.000000 
-0.441787 -2.536990 0.000000 
-0.404776 -2.506669 0.000000 
-0.440871 -2.468300 0.000000 
-0.396119 -2.428420 0.000000 
-0.429857 -2.383661 0.000000 
-0.372369 -2.350810 0.000000 
-0.394305 -2.313394 0.000000 
-0.041059 -2.615432 0.000000 
-0.074868 -2.722016 0.000000 
-0.084922 -2.665131 0.000000 
-0.123551 -2.648941 0.000000 
-0.093491 -2.806894 0.000000 
-0.105979 -2.760636 0.000000 
-0.154660 -2.740300 0.000000 
-0.159969 -2.689821 0.000000 
-0.205521 -2.663294 0.000000 
-0.158999 -2.913575 0.000000 
-0.134560 -2.840088 0.000000 
-0.182923 -2.830933 0.000000 
-0.195193 -2.784684 0.000000 
-0.258258 -2.769965 0.000000 
-0.261228 -2.709926 0.000000 
-0.313063 -2.690224 0.000000 
-0.294979 -3.168572 0.000000 
-0.255309 -3.023281 0.000000 
-0.329667 -3.056660 0.000000 
-0.281298 -2.887150 0.000000 
-0.296964 -2.835924 0.000000 
-0.300727 -2.798729 0.000000 
-0.352874 -2.780006 0.000000 
-0.361379 -2.733457 0.000000 
-0.379653 -2.714255 0.000000 
-0.000000 -2.641755 0.000000 
0.034286 -2.742709 0.000000 
0.000000 -2.717486 0.000000 
-0.034286 -2.742709 0.000000 
0.061918 -2.826164 0.000000 
0.032367 -2.802248 0.000000 
0.000000 -2.845732 0.000000 
-0.032367 -2.802248 0.000000 
-0.061918 -2.826164 0.000000 
0.130007 -2.956599 0.000000 
0.082454 -2.916549 0.000000 
0.063768 -3.007755 0.000000 
-0.000000 -2.943012 0.000000 
-0.063768 -3.007755 0.000000 
-0.082454 -2.916549 0.000000 
-0.130007 -2.956599 0.000000 
0.212854 -3.184118 0.000000 
0.144098 -3.072955 0.000000 
0.167290 -3.222220 0.000000 
0.096517 -3.103538 0.000000 
-0.000000 -3.278977 0.000000 
-0.096517 -3.103538 0.000000 
-0.167290 -3.222220 0.000000 
-0.144098 -3.072955 0.000000 
-0.212854 -3.184118 0.000000 
0.041059 -2.615432 0.000000 
0.123551 -2.648941 0.000000 
0.084922 -2.665131 0.000000 
0.074868 -2.722016 0.000000 
0.205521 -2.663294 0.000000 
0.159969 -2.689821 0.000000 
0.154660 -2.740300 0.000000 
0.105979 -2.760636 0.000000 
0.093491 -2.806894 0.000000 
0.313063 -2.690224 0.000000 
0.261228 -2.709926 0.000000 
0.258258 -2.769965 0.000000 
0.195193 -2.784684 0.000000 
0.182923 -2.830933 0.000000 
0.134560 -2.840088 0.000000 
0.158999 -2.913575 0.000000 
0.379653 -2.714255 0.000000 
0.361379 -2.733457 0.000000 
0.352874 -2.780006 0.000000 
0.300727 -2.798729 0.000000 
0.296964 -2.835924 0.000000 
0.281298 -2.887150 0.000000 
0.329667 -3.056660 0.000000 
0.255309 -3.023281 0.000000 
0.294979 -3.168572 0.000000 
0.054599 -2.551095 0.000000 
0.132080 -2.480592 0.000000 
0.113548 -2.533568 0.000000 
0.142988 -2.585944 0.000000 
0.215074 -2.425697 0.000000 
0.196353 -2.471519 0.000000 
0.239928 -2.501221 0.000000 
0.203091 -2.564835 0.000000 
0.226587 -2.603207 0.000000 
0.303322 -2.364706 0.000000 
0.284260 -2.406906 0.000000 
0.328562 -2.438725 0.000000 
0.303468 -2.484081 0.000000 
0.334110 -2.520278 0.000000 
0.298414 -2.581394 0.000000 
0.327765 -2.622996 0.000000 
0.394305 -2.313394 0.000000 
0.372369 -2.350810 0.000000 
0.429857 -2.383661 0.000000 
0.396119 -2.428420 0.000000 
0.440871 -2.468300 0.000000 
0.404776 -2.506669 0.000000 
0.441787 -2.536990 0.000000 
0.394371 -2.602527 0.000000 
0.411966 -2.635985 0.000000 
0.022466 -2.500987 0.000000 
0.025272 -2.393444 0.000000 
0.049955 -2.436524 0.000000 
0.099146 -2.431132 0.000000 
0.029882 -2.297746 0.000000 
0.057507 -2.336492 0.000000 
0.115260 -2.323577 0.000000 
0.130523 -2.377551 0.000000 
0.180365 -2.379741 0.000000 
0.033021 -2.193509 0.000000 
0.064549 -2.231956 0.000000 
0.128087 -2.214193 0.000000 
0.151535 -2.266156 0.000000 
0.207381 -2.261842 0.000000 
0.222983 -2.322582 0.000000 
0.273345 -2.316931 0.000000 
0.032600 -2.111713 0.000000 
0.067574 -2.138717 0.000000 
0.129079 -2.129349 0.000000 
0.160069 -2.165499 0.000000 
0.219462 -2.164376 0.000000 
0.246336 -2.203038 0.000000 
0.303909 -2.193757 0.000000 
0.313317 -2.256385 0.000000 
0.359027 -2.263459 0.000000 
VECTORS X_EC float 
0.292063 0.263326 0.000000 
-0.711107 -0.679720 0.000000 
0.649414 -0.606930 0.000000 
0.328538 0.811499 0.000000 
0.344744 0.626501 0.000000 
-0.303207 0.596945 0.000000 
-0.501621 -0.131707 0.000000 
0.747595 0.042646 0.000000 
0.388460 -0.480429 0.000000 
-0.446515 -0.221434 0.000000 
0.898778 -0.145143 0.000000 
0.695958 -0.965133 0.000000 
-0.030039 -0.906900 0.000000 
-0.334866 0.391604 0.000000 
0.839140 0.631401 0.000000 
0.429272 0.112373 0.000000 
0.667346 -0.943300 0.000000 
0.073118 0.961203 0.000000 
-0.049188 0.115720 0.000000 
-0.797631 0.241018 0.000000 
0.853008 -0.280923 0.000000 
0.080891 -0.265757 0.000000 
-0.321971 -0.753784 0.000000 
0.878464 -0.627321 0.000000 
0.423798 -0.991879 0.000000 
0.709791 0.939789 0.000000 
-0.141157 -0.589762 0.000000 
-0.523881 0.703166 0.000000 
-0.282960 -0.012007 0.000000 
0.945633 -0.356705 0.000000 
0.640185 -0.874734 0.000000 
-0.880938 0.266481 0.000000 
0.552583 -0.134498 0.000000 
0.795966 -0.753090 0.000000 
0.260947 -0.089560 0.000000 
-0.120617 -0.651175 0.000000 
0.343425 0.523751 0.000000 
-0.054914 0.035095 0.000000 
0.271307 -0.577215 0.000000 
-0.304615 0.993234 0.000000 
-0.056812 0.423532 0.000000 
-0.644436 0.085800 0.000000 
-0.873174 -0.365882 0.000000 
-0.256770 0.749365 0.000000 
-0.737909 0.340035 0.000000 
-0.268678 -0.177955 0.000000 
-0.850456 -0.716324 0.000000 
-0.411858 0.679421 0.000000 
0.840802 0.235929 0.000000 
-0.874039 -0.269175 0.000000 
0.533762 -0.191675 0.000000 
0.973289 -0.752783 0.000000 
-0.896020 0.479269 0.000000 
-0.393836 0.260705 0.000000 
-0.784615 0.393068 0.000000 
-0.622275 -0.231407 0.000000 
0.010577 -0.505951 0.000000 
0.079592 0.812585 0.000000 
0.671778 0.454466 0.000000 
0.066990 -0.166731 0.000000 
-0.250718 0.841184 0.000000 
0.377999 0.717602 0.000000 
0.537507 0.093236 0.000000 
-0.642641 -0.105469 0.000000 
-0.604031 -0.915998 0.000000 
0.069824 0.818025 0.000000 
0.808930 0.945648 0.000000 
0.822002 0.973845 0.000000 
0.315175 0.903630 0.000000 
-0.343122 -0.523470 0.000000 
-0.139472 0.784978 0.000000 
-0.090551 0.282842 0.000000 
0.587363 0.030081 0.000000 
0.697927 -0.598331 0.000000 
0.935489 -0.857558 0.000000 
0.000000 0.163693 0.000000 
-0.445715 -0.473433 0.000000 
-0.000000 -0.813938 0.000000 
0.445715 -0.473433 0.000000 
-0.804939 0.653208 0.000000 
-0.420769 0.330352 0.000000 
-0.000000 0.917382 0.000000 
0.420769 0.330351 0.000000 
0.804939 0.653208 0.000000 
0.309905 0.414084 0.000000 
0.928097 -0.126582 0.000000 
0.748521 0.978687 0.000000 
0.000000 0.230664 0.000000 
-0.748521 0.978687 0.000000 
-0.928097 -0.126582 0.000000 
-0.309905 0.414084 0.000000 
0.704269 0.937207 0.000000 
-0.724313 0.961051 0.000000 
0.412755 0.887080 0.000000 
0.791852 0.988079 0.000000 
0.000000 0.760633 0.000000 
-0.791852 0.988079 0.000000 
-0.412755 0.887080 0.000000 
0.724313 0.961051 0.000000 
-0.704269 0.937207 0.000000 
-0.533762 -0.191675 0.000000 
0.393836 0.260705 0.000000 
0.896020 0.479269 0.000000 
-0.973289 -0.752783 0.000000 
-0.671778 0.454466 0.000000 
-0.079592 0.812585 0.000000 
-0.010577 -0.505951 0.000000 
0.622275 -0.231407 0.000000 
0.784615 0.393068 0.000000 
-0.069824 0.818025 0.000000 
0.604031 -0.915998 0.000000 
0.642641 -0.105469 0.000000 
-0.537507 0.093236 0.000000 
-0.377999 0.717602 0.000000 
0.250718 0.841184 0.000000 
-0.066990 -0.166731 0.000000 
-0.935489 -0.857558 0.000000 
-0.697927 -0.598331 0.000000 
-0.587363 0.030081 0.000000 
0.090551 0.282842 0.000000 
0.139472 0.784978 0.000000 
0.343121 -0.523470 0.000000 
-0.315175 0.903630 0.000000 
-0.822002 0.973845 0.000000 
-0.808930 0.945648 0.000000 
-0.709791 0.939789 0.000000 
0.282960 -0.012007 0.000000 
0.523881 0.703166 0.000000 
0.141157 -0.589762 0.000000 
-0.795966 -0.753090 0.000000 
-0.552583 -0.134498 0.000000 
0.880938 0.266481 0.000000 
-0.640185 -0.874734 0.000000 
-0.945633 -0.356705 0.000000 
0.056812 0.423532 0.000000 
0.304615 0.993234 0.000000 
-0.271307 -0.577215 0.000000 
0.054914 0.035095 0.000000 
-0.343425 0.523751 0.000000 
0.120617 -0.651175 0.000000 
-0.260947 -0.089560 0.000000 
0.874039 -0.269175 0.000000 
-0.840802 0.235929 0.000000 
0.411858 0.679421 0.000000 
0.850456 -0.716324 0.000000 
0.268678 -0.177955 0.000000 
0.737909 0.340035 0.000000 
0.256770 0.749365 0.000000 
0.873174 -0.365882 0.000000 
0.644436 0.085800 0.000000 
-0.292063 0.263326 0.000000 
-0.328538 0.811499 0.000000 
-0.649414 -0.606930 0.000000 
0.711107 -0.679720 0.000000 
-0.388460 -0.480429 0.000000 
-0.747595 0.042646 0.000000 
0.501621 -0.131707 0.000000 
0.303207 0.596945 0.000000 
-0.344744 0.626501 0.000000 
-0.429272 0.112373 0.000000 
-0.839140 0.631401 0.000000 
0.334866 0.391604 0.000000 
0.030039 -0.906900 0.000000 
-0.695958 -0.965133 0.000000 
-0.898778 -0.145143 0.000000 
0.446515 -0.221434 0.000000 
-0.423798 -0.991879 0.000000 
-0.878464 -0.627321 0.000000 
0.321971 -0.753784 0.000000 
-0.080891 -0.265757 0.000000 
-0.853008 -0.280923 0.000000 
0.797631 0.241018 0.000000 
0.049188 0.115720 0.000000 
-0.073118 0.961203 0.000000 
-0.667346 -0.943300 0.000000 
CELL_DATA 175 
SCALARS MASS float 
LOOKUP_TABLE default 
0.781831 
0.864274 
0.946717 
0.864274 
0.881307 
0.921110 
0.858535 
0.921110 
0.881307 
0.887046 
0.910001 
0.869829 
0.915556 
0.869829 
0.910001 
0.887046 
0.892784 
0.915740 
0.892784 
0.927218 
0.892784 
0.927218 
0.892784 
0.915740 
0.892784 
0.781831 
0.864274 
0.946717 
0.864274 
0.881307 
0.921110 
0.858535 
0.921110 
0.881307 
0.887046 
0.910001 
0.869829 
0.915556 
0.869829 
0.910001 
0.887046 
0.892784 
0.915740 
0.892784 
0.927218 
0.892784 
0.927218 
0.892784 
0.915740 
0.892784 
0.781831 
0.864274 
0.946717 
0.864274 
0.881307 
0.921110 
0.858535 
0.921110 
0.881307 
0.887046 
0.910001 
0.869829 
0.915556 
0.869829 
0.910001 
0.887046 
0.892784 
0.915740 
0.892784 
0.927218 
0.892784 
0.927218 
0.892784 
0.915740 
0.892784 
0.781831 
0.864274 
0.946717 
0.864274 
0.881307 
0.921110 
0.858535 
0.921110 
0.881307 
0.887046 
0.910001 
0.869829 
0.915556 
0.869829 
0.910001 
0.887046 
0.892784 
0.915740 
0.892784 
0.927218 
0.892784 
0.927218 
0.892784 
0.915740 
0.892784 
0.781831 
0.864274 
0.946717 
0.864274 
0.881307 
0.921110 
0.858535 
0.921110 
0.881307 
0.887046 
0.910001 
0.869829 
0.915556 
0.869829 
0.910001 
0.887046 
0.892784 
0.915740 
0.892784 
0.927218 
0.892784 
0.927218 
0.892784 
0.915740 
0.892784 
0.781831 
0.864274 
0.946717 
0.864274 
0.881307 
0.921110 
0.858535 
0.921110 
0.881307 
0.887046 
0.910001 
0.869829 
0.915556 
0.869829 
0.910001 
0.887046 
0.892784 
0.915740 
0.892784 
0.927218 
0.892784 
0.927218 
0.892784 
0.915740 
0.892784 
0.781831 
0.864274 
0.946717 
0.864274 
0.881307 
0.921110 
0.858535 
0.921110 
0.881307 
0.887046 
0.910001 
0.869829 
0.915556 
0.869829 
0.910001 
0.887046 
0.892784 
0.915740 
0.892784 
0.927218 
0.892784 
0.927218 
0.892784 
0.915740 
0.892784 
SCALARS MASS float 
LOOKUP_TABLE default 
0.781831 
0.864274 
0.946717 
0.864274 
0.881307 
0.921110 
0.858535 
0.921110 
0.881307 
0.887046 
0.910001 
0.869829 
0.915556 
0.869829 
0.910001 
0.887046 
0.892784 
0.915740 
0.892784 
0.927218 
0.892784 
0.927218 
0.892784 
0.915740 
0.892784 
0.781831 
0.864274 
0.946717 
0.864274 
0.881307 
0.921110 
0.858535 
0.921110 
0.881307 
0.887046 
0.910001 
0.869829 
0.915556 
0.869829 
0.910001 
0.887046 
0.892784 
0.915740 
0.892784 
0.927218 
0.892784 
0.927218 
0.892784 
0.915740 
0.892784 
0.781831 
0.864274 
0.946717 
0.864274 
0.881307 
0.921110 
0.858535 
0.921110 
0.881307 
0.887046 
0.910001 
0.869829 
0.915556 
0.869829 
0.910001 
0.887046 
0.892784 
0.915740 
0.892784 
0.927218 
0.892784 
0.927218 
0.892784 
0.915740 
0.892784 
0.781831 
0.864274 
0.946717 
0.864274 
0.881307 
0.921110 
0.858535 
0.921110 
0.881307 
0.887046 
0.910001 
0.869829 
0.915556 
0.869829 
0.910001 
0.887046 
0.892784 
0.915740 
0.892784 
0.927218 
0.892784 
0.927218 
0.892784 
0.915740 
0.892784 
0.781831 
0.864274 
0.946717 
0.864274 
0.881307 
0.921110 
0.858535 
0.921110 
0.881307 
0.887046 
0.910001 
0.869829 
0.915556 
0.869829 
0.910001 
0.887046 
0.892784 
0.915740 
0.892784 
0.927218 
0.892784 
0.927218 
0.892784 
0.915740 
0.892784 
0.781831 
0.864274 
0.946717 
0.864274 
0.881307 
0.921110 
0.858535 
0.921110 
0.881307 
0.887046 
0.910001 
0.869829 
0.915556 
0.869829 
0.910001 
0.887046 
0.892784 
0.915740 
0.892784 
0.927218 
0.892784 
0.927218 
0.892784 
0.915740 
0.892784 
0.781831 
0.864274 
0.946717 
0.864274 
0.881307 
0.921110 
0.858535 
0.921110 
0.881307 
0.887046 
0.910001 
0.869829 
0.915556 
0.869829 
0.910001 
0.887046 
0.892784 
0.915740 
0.892784 
0.927218 
0.892784 
0.927218 
0.892784 
0.915740 
0.892784 
SCALARS DENSITY float 
LOOKUP_TABLE default 
290.918694 
267.436673 
307.136490 
101.905885 
147.080917 
146.301319 
256.844029 
218.435946 
354.320294 
349.423953 
3032.118923 
357.345683 
217.726531 
162.083040 
314.474499 
154.303256 
275.754845 
112.794986 
366.043803 
245.685483 
218.458841 
233.177349 
413.948505 
326.346527 
265.440487 
5526.868245 
343.226848 
297.134065 
129.486715 
167.465078 
1228.186410 
73.016450 
815.670562 
123.689931 
264.717544 
491.995709 
398.167749 
274.234231 
873.125151 
104.989466 
237.780723 
884.486553 
172.905375 
1104.544280 
85.221569 
332.390216 
313.549566 
346.417068 
381.981858 
263.397641 
1025.076115 
257.916962 
118.513355 
265.786547 
415695016.255209 
98.256912 
54.657434 
483.362516 
163.966963 
3793714670431.056152 
70122250442.010986 
719.646707 
451.608615 
675.996019 
99.918244 
684.570391 
998011010529262.625000 
7253989.163873 
-58175712.415262 
19359.475757 
556.949938 
115.416377 
1042.645916 
463.129418 
157.996519 
87.832348 
108.756762 
583.022862 
108.756765 
524360285022.993774 
1311.019499 
3578316945.832178 
1311.019250 
524360523021.645386 
6907028268592566611476480.000000 
7772321572377290752.000000 
481728567882895458304.000000 
16762211480.159723 
481728621583980888064.000000 
7772319499352934400.000000 
6907032467004231457439744.000000 
3688943507015.871094 
-1199981910609904897151595359363731902431232.000000 
148093514301231074937844885618688.000000 
-2489753748831526918370559707165348573019641901047873536.000000 
455728148.825922 
-2489737204392167600553176334227972977779358316384747520.000000 
148093502651439372620332397494272.000000 
-1199978849007086340218455014304579252649984.000000 
3688952394392.317871 
1025.076115 
265.786534 
118.513361 
257.916956 
163.966971 
483.362454 
54.657436 
98.256910 
415694878.665852 
684.570458 
99.918249 
675.995951 
451.608579 
719.646643 
70122163869.855576 
3793712064317.607422 
157.996521 
463.129459 
1042.646005 
115.416366 
556.950115 
19359.467499 
-57969478.154009 
7253985.484252 
998009289193158.500000 
5526.868545 
129.486717 
297.134066 
343.226826 
123.689931 
815.670560 
73.016449 
1228.186397 
167.465086 
237.780717 
104.989467 
873.125136 
274.234248 
398.167736 
491.995727 
264.717556 
263.397636 
381.981872 
346.417075 
313.549566 
332.390217 
85.221568 
1104.544370 
172.905367 
884.486660 
290.918684 
101.905883 
307.136490 
267.436695 
354.320297 
218.435946 
256.844034 
146.301319 
147.080916 
154.303257 
314.474511 
162.083039 
217.726524 
357.345685 
3032.119108 
349.423954 
265.440488 
326.346528 
413.948509 
233.177350 
218.458838 
245.685488 
366.043825 
112.794985 
275.754842 
SCALARS ELEM_i float 
LOOKUP_TABLE default 
165 
192 
165 
166 
193 
193 
193 
166 
166 
220 
193 
193 
193 
194 
167 
167 
220 
221 
221 
221 
194 
194 
194 
167 
167 
165 
191 
192 
192 
191 
191 
219 
192 
192 
218 
218 
219 
219 
219 
220 
220 
245 
245 
246 
246 
246 
246 
247 
220 
247 
164 
163 
191 
191 
190 
190 
190 
191 
191 
189 
190 
190 
190 
217 
217 
218 
216 
216 
243 
216 
217 
217 
217 
217 
217 
164 
163 
163 
163 
163 
163 
163 
163 
163 
135 
135 
135 
162 
189 
189 
189 
108 
135 
135 
135 
162 
189 
189 
189 
216 
164 
137 
137 
163 
137 
137 
136 
136 
136 
110 
109 
109 
136 
136 
136 
135 
109 
109 
109 
109 
109 
108 
81 
108 
108 
165 
138 
138 
137 
138 
138 
111 
137 
137 
112 
112 
111 
111 
111 
110 
110 
85 
112 
85 
84 
84 
84 
84 
83 
83 
165 
166 
165 
138 
166 
166 
139 
139 
139 
167 
167 
140 
139 
139 
139 
112 
167 
167 
140 
140 
140 
113 
113 
113 
112 
VECTORS VELOCITY float 
0.755915 6.488587 0.000000 
0.270597 3.599899 0.000000 
0.523927 4.932503 0.000000 
1.765042 2.578935 0.000000 
-0.487041 -0.150985 0.000000 
0.303932 0.253543 0.000000 
0.060734 -0.181688 0.000000 
0.359832 0.576857 0.000000 
0.285333 0.374207 0.000000 
-1.308083 1.249748 0.000000 
-1.344497 -0.879547 0.000000 
0.345967 1.561747 0.000000 
-1.001190 1.313546 0.000000 
-0.479129 4.500027 0.000000 
-1.199409 3.399934 0.000000 
-0.276101 4.953055 0.000000 
-0.959183 0.608110 0.000000 
-0.187876 3.120994 0.000000 
-2.598962 1.652709 0.000000 
0.164347 3.034040 0.000000 
0.513839 -3.272318 0.000000 
-0.167064 1.511642 0.000000 
-0.388000 -2.477449 0.000000 
-1.385857 2.864934 0.000000 
-0.272819 -1.769830 0.000000 
-0.418229 4.602151 0.000000 
-1.387945 -0.463387 0.000000 
-1.847949 4.766993 0.000000 
-1.122011 4.573521 0.000000 
0.948203 -2.392669 0.000000 
-1.204181 -1.757224 0.000000 
-2.403302 1.563495 0.000000 
-2.103065 1.831508 0.000000 
-3.134037 0.255641 0.000000 
-2.277257 1.758573 0.000000 
0.108816 2.443763 0.000000 
1.117509 3.046897 0.000000 
0.599291 3.596326 0.000000 
1.526922 2.411148 0.000000 
-1.021495 0.800025 0.000000 
-0.519819 0.310860 0.000000 
0.622353 4.694196 0.000000 
-2.281709 1.760983 0.000000 
-1.216106 2.511943 0.000000 
-0.021025 1.126444 0.000000 
-2.058676 -2.964068 0.000000 
1.328610 -0.061204 0.000000 
-2.090281 0.351939 0.000000 
1.754223 2.021555 0.000000 
-2.693611 0.867331 0.000000 
0.446075 -0.802765 0.000000 
-0.811410 1.295050 0.000000 
-1.850424 -2.405244 0.000000 
0.498766 -1.065803 0.000000 
3.875371 13.091676 0.000000 
3.567818 8.925124 0.000000 
4.630934 4.981537 0.000000 
3.483181 -1.160915 0.000000 
2.648572 -1.757078 0.000000 
3.594282 -9.263293 0.000000 
6.254397 7.971423 0.000000 
3.294215 6.907158 0.000000 
2.078451 2.019775 0.000000 
-2.033070 1.778715 0.000000 
-0.025651 1.122345 0.000000 
-4.439964 1.238415 0.000000 
0.841646 -131.396449 0.000000 
4.596753 -52.621143 0.000000 
7.816898 -63.584815 0.000000 
-0.109736 -4.827719 0.000000 
8.405228 9.467134 0.000000 
3.174209 3.345577 0.000000 
3.093068 5.118193 0.000000 
-3.561102 -0.139541 0.000000 
7.498612 0.473078 0.000000 
-0.000000 -2.055802 0.000000 
0.316406 5.166659 0.000000 
-0.000000 0.009164 0.000000 
-0.316407 5.166659 0.000000 
-0.990868 14.534829 0.000000 
-0.439583 16.485991 0.000000 
-0.000000 10.803173 0.000000 
0.439583 16.485991 0.000000 
0.990868 14.534830 0.000000 
-1.451980 -19.219867 0.000000 
-1.855759 -4.477607 0.000000 
-1.921714 -36.258512 0.000000 
0.000000 -11.704653 0.000000 
1.921714 -36.258512 0.000000 
1.855759 -4.477606 0.000000 
1.451979 -19.219866 0.000000 
-3.457653 -140.659322 0.000000 
-1.111809 -73.782191 0.000000 
2.692721 -159.973924 0.000000 
-1.176270 -86.910929 0.000000 
-0.000000 -190.975342 0.000000 
1.176270 -86.910931 0.000000 
-2.692721 -159.973923 0.000000 
1.111809 -73.782190 0.000000 
3.457653 -140.659323 0.000000 
-0.446075 -0.802765 0.000000 
-0.498766 -1.065803 0.000000 
1.850424 -2.405244 0.000000 
0.811410 1.295050 0.000000 
-2.648572 -1.757078 0.000000 
-3.483181 -1.160915 0.000000 
-4.630934 4.981537 0.000000 
-3.567818 8.925124 0.000000 
-3.875370 13.091676 0.000000 
4.439963 1.238416 0.000000 
0.025650 1.122345 0.000000 
2.033070 1.778716 0.000000 
-2.078451 2.019775 0.000000 
-3.294214 6.907158 0.000000 
-6.254396 7.971423 0.000000 
-3.594281 -9.263293 0.000000 
-7.498611 0.473079 0.000000 
3.561102 -0.139541 0.000000 
-3.093066 5.118191 0.000000 
-3.174209 3.345576 0.000000 
-8.405226 9.467133 0.000000 
0.109737 -4.827721 0.000000 
-7.816902 -63.584815 0.000000 
-4.596752 -52.621145 0.000000 
-0.841645 -131.396450 0.000000 
0.418229 4.602151 0.000000 
1.122010 4.573521 0.000000 
1.847948 4.766993 0.000000 
1.387945 -0.463387 0.000000 
3.134037 0.255642 0.000000 
2.103065 1.831509 0.000000 
2.403302 1.563495 0.000000 
1.204180 -1.757224 0.000000 
-0.948204 -2.392669 0.000000 
0.519819 0.310860 0.000000 
1.021495 0.800025 0.000000 
-1.526921 2.411148 0.000000 
-0.599291 3.596326 0.000000 
-1.117508 3.046897 0.000000 
-0.108816 2.443764 0.000000 
2.277257 1.758574 0.000000 
2.693611 0.867332 0.000000 
-1.754223 2.021555 0.000000 
2.090280 0.351938 0.000000 
-1.328609 -0.061204 0.000000 
2.058676 -2.964068 0.000000 
0.021026 1.126444 0.000000 
1.216106 2.511943 0.000000 
2.281709 1.760983 0.000000 
-0.622353 4.694195 0.000000 
-0.755916 6.488587 0.000000 
-1.765043 2.578935 0.000000 
-0.523927 4.932503 0.000000 
-0.270597 3.599899 0.000000 
-0.285333 0.374207 0.000000 
-0.359832 0.576857 0.000000 
-0.060734 -0.181688 0.000000 
-0.303932 0.253543 0.000000 
0.487041 -0.150985 0.000000 
0.276101 4.953055 0.000000 
1.199409 3.399934 0.000000 
0.479129 4.500027 0.000000 
1.001189 1.313546 0.000000 
-0.345967 1.561747 0.000000 
1.344497 -0.879546 0.000000 
1.308083 1.249748 0.000000 
0.272819 -1.769830 0.000000 
1.385857 2.864934 0.000000 
0.388000 -2.477449 0.000000 
0.167064 1.511642 0.000000 
-0.513839 -3.272318 0.000000 
-0.164347 3.034040 0.000000 
2.598962 1.652709 0.000000 
0.187876 3.120994 0.000000 
0.959184 0.608110 0.000000 
TENSORS STRESS float 
-10.975565 3.104414 0.000000 
0.000000 29.724738 0.000000 
0.000000 0.000000 0.000000 

-21.538540 15.727252 0.000000 
0.000000 1.513185 0.000000 
0.000000 0.000000 0.000000 

-28.841700 -8.221041 0.000000 
0.000000 3.552738 0.000000 
0.000000 0.000000 0.000000 

-22.011530 -6.853677 0.000000 
0.000000 0.248775 0.000000 
0.000000 0.000000 0.000000 

-85.250447 5.563978 0.000000 
0.000000 -56.624907 0.000000 
0.000000 0.000000 0.000000 

-100.797043 16.373945 0.000000 