# vtk DataFile Version 3.0 
vtk output 
ASCII 
DATASET UNSTRUCTURED_GRID 
POINTS 184 float 
-0.028535 -2.048592 0.000000 
-0.354223 -2.893588 0.000000 
0.474992 -2.547875 0.000000 
-0.448225 -2.356807 0.000000 
0.180108 -3.072343 0.000000 
0.224283 -2.102462 0.000000 
-0.283723 -2.142241 0.000000 
-0.116748 -3.111156 0.000000 
0.418674 -2.298969 0.000000 
-0.462349 -2.624897 0.000000 
0.387084 -2.818158 0.000000 
-0.165415 -2.077035 0.000000 
-0.240602 -3.008233 0.000000 
0.465181 -2.420765 0.000000 
-0.473064 -2.493160 0.000000 
0.291268 -2.943785 0.000000 
0.099215 -2.060064 0.000000 
-0.378576 -2.233522 0.000000 
0.048223 -3.137526 0.000000 
0.338173 -2.182893 0.000000 
-0.420133 -2.743379 0.000000 
0.448012 -2.680480 0.000000 
-0.119755 -2.063636 0.000000 
-0.315022 -2.931973 0.000000 
0.474552 -2.501345 0.000000 
-0.460936 -2.403078 0.000000 
0.253964 -2.992950 0.000000 
0.179113 -2.083968 0.000000 
-0.347293 -2.197206 0.000000 
-0.063247 -3.122638 0.000000 
0.368361 -2.219501 0.000000 
-0.450063 -2.668172 0.000000 
0.428242 -2.725025 0.000000 
-0.209660 -2.096186 0.000000 
-0.164204 -3.080707 0.000000 
0.438499 -2.342417 0.000000 
-0.472363 -2.539847 0.000000 
0.332961 -2.914955 0.000000 
0.018002 -2.048495 0.000000 
-0.428884 -2.313074 0.000000 
0.100377 -3.122763 0.000000 
0.302724 -2.151593 0.000000 
-0.381274 -2.839679 0.000000 
0.460371 -2.637011 0.000000 
-0.079052 -2.081304 0.000000 
0.368787 -2.265870 0.000000 
0.048317 -2.077763 0.000000 
0.211070 -2.960657 0.000000 
-0.175932 -2.980754 0.000000 
-0.373039 -2.777147 0.000000 
0.389835 -2.738395 0.000000 
-0.304591 -2.194059 0.000000 
-0.387760 -2.293581 0.000000 
0.424986 -2.382378 0.000000 
0.141051 -2.097155 0.000000 
0.119171 -3.013601 0.000000 
-0.266864 -2.907762 0.000000 
-0.415560 -2.686211 0.000000 
0.441668 -2.595598 0.000000 
0.332493 -2.838118 0.000000 
-0.014763 -3.008213 0.000000 
-0.225262 -2.133692 0.000000 
-0.443970 -2.443203 0.000000 
-0.444332 -2.574610 0.000000 
0.256442 -2.150952 0.000000 
0.446402 -2.471786 0.000000 
-0.079377 -2.137440 0.000000 
-0.130280 -2.180263 0.000000 
-0.191324 -2.175152 0.000000 
-0.111481 -2.239093 0.000000 
-0.223063 -2.230243 0.000000 
-0.170463 -2.267301 0.000000 
-0.055523 -2.253129 0.000000 
-0.277658 -2.240886 0.000000 
-0.040186 -2.307908 0.000000 
-0.015250 -2.212562 0.000000 
-0.294975 -2.300719 0.000000 
-0.348688 -2.330584 0.000000 
-0.350063 -2.397171 0.000000 
-0.253411 -2.339459 0.000000 
-0.391223 -2.445037 0.000000 
-0.369915 -2.504118 0.000000 
-0.283056 -2.397509 0.000000 
-0.394930 -2.560485 0.000000 
-0.361255 -2.603473 0.000000 
-0.313317 -2.504066 0.000000 
-0.371562 -2.658022 0.000000 
-0.326852 -2.686697 0.000000 
-0.308887 -2.563939 0.000000 
-0.322366 -2.745076 0.000000 
-0.265798 -2.768165 0.000000 
-0.276232 -2.661784 0.000000 
-0.242319 -2.832327 0.000000 
-0.177939 -2.835736 0.000000 
-0.237248 -2.708694 0.000000 
-0.140080 -2.892654 0.000000 
-0.077149 -2.871677 0.000000 
-0.149010 -2.780111 0.000000 
-0.021158 -2.907204 0.000000 
0.035744 -2.875377 0.000000 
-0.086783 -2.802123 0.000000 
0.093092 -2.908007 0.000000 
0.133487 -2.857324 0.000000 
0.027060 -2.814121 0.000000 
0.195166 -2.868420 0.000000 
0.228286 -2.803301 0.000000 
0.090812 -2.801293 0.000000 
0.285853 -2.785356 0.000000 
0.300806 -2.721127 0.000000 
0.193340 -2.750642 0.000000 
0.351325 -2.695815 0.000000 
0.349256 -2.639328 0.000000 
0.239083 -2.705666 0.000000 
0.389169 -2.594334 0.000000 
0.370365 -2.538824 0.000000 
0.295907 -2.618844 0.000000 
0.395304 -2.487476 0.000000 
0.360341 -2.442938 0.000000 
0.308340 -2.561235 0.000000 
0.371874 -2.388907 0.000000 
0.324773 -2.349039 0.000000 
0.303598 -2.456001 0.000000 
0.319625 -2.287044 0.000000 
0.260770 -2.257857 0.000000 
0.280018 -2.395270 0.000000 
0.233568 -2.199510 0.000000 
0.170662 -2.193952 0.000000 
0.218256 -2.299700 0.000000 
0.132962 -2.148330 0.000000 
0.077817 -2.158999 0.000000 
0.033454 -2.125682 0.000000 
-0.020405 -2.155472 0.000000 
0.166142 -2.260983 0.000000 
0.047442 -2.212593 0.000000 
-0.183606 -2.316544 0.000000 
-0.266569 -2.446522 0.000000 
-0.039594 -2.778320 0.000000 
0.235668 -2.659851 0.000000 
0.277889 -2.522634 0.000000 
0.117355 -2.755980 0.000000 
0.232587 -2.374810 0.000000 
-0.268493 -2.593835 0.000000 
-0.184647 -2.714371 0.000000 
-0.080351 -2.349294 0.000000 
0.015439 -2.322052 0.000000 
-0.141117 -2.352665 0.000000 
-0.169616 -2.410767 0.000000 
-0.214510 -2.450203 0.000000 
-0.205136 -2.511412 0.000000 
-0.128768 -2.447394 0.000000 
-0.219375 -2.568440 0.000000 
-0.147868 -2.503533 0.000000 
-0.175292 -2.612314 0.000000 
-0.076418 -2.412469 0.000000 
-0.156727 -2.668527 0.000000 
-0.126182 -2.585381 0.000000 
-0.074714 -2.611297 0.000000 
-0.112869 -2.533267 0.000000 
-0.051806 -2.516812 0.000000 
-0.031383 -2.569633 0.000000 
-0.034449 -2.452403 0.000000 
0.030770 -2.377731 0.000000 
0.062659 -2.267542 0.000000 
-0.089286 -2.668275 0.000000 
0.009017 -2.435941 0.000000 
0.051550 -2.485783 0.000000 
0.053971 -2.540892 0.000000 
0.097660 -2.457617 0.000000 
0.012112 -2.583526 0.000000 
0.029514 -2.640187 0.000000 
0.019495 -2.693121 0.000000 
0.079643 -2.716485 0.000000 
0.084523 -2.639443 0.000000 
0.119501 -2.676058 0.000000 
0.180506 -2.648960 0.000000 
0.099376 -2.583039 0.000000 
0.164866 -2.468945 0.000000 
0.087091 -2.398658 0.000000 
0.162049 -2.585062 0.000000 
0.189679 -2.411900 0.000000 
0.131006 -2.367774 0.000000 
0.121965 -2.291892 0.000000 
-0.040264 -2.708126 0.000000 
0.197521 -2.528638 0.000000 
CELLS 184 368 
1 0 
1 1 
1 2 
1 3 
1 4 
1 5 
1 6 
1 7 
1 8 
1 9 
1 10 
1 11 
1 12 
1 13 
1 14 
1 15 
1 16 
1 17 
1 18 
1 19 
1 20 
1 21 
1 22 
1 23 
1 24 
1 25 
1 26 
1 27 
1 28 
1 29 
1 30 
1 31 
1 32 
1 33 
1 34 
1 35 
1 36 
1 37 
1 38 
1 39 
1 40 
1 41 
1 42 
1 43 
1 44 
1 45 
1 46 
1 47 
1 48 
1 49 
1 50 
1 51 
1 52 
1 53 
1 54 
1 55 
1 56 
1 57 
1 58 
1 59 
1 60 
1 61 
1 62 
1 63 
1 64 
1 65 
1 66 
1 67 
1 68 
1 69 
1 70 
1 71 
1 72 
1 73 
1 74 
1 75 
1 76 
1 77 
1 78 
1 79 
1 80 
1 81 
1 82 
1 83 
1 84 
1 85 
1 86 
1 87 
1 88 
1 89 
1 90 
1 91 
1 92 
1 93 
1 94 
1 95 
1 96 
1 97 
1 98 
1 99 
1 100 
1 101 
1 102 
1 103 
1 104 
1 105 
1 106 
1 107 
1 108 
1 109 
1 110 
1 111 
1 112 
1 113 
1 114 
1 115 
1 116 
1 117 
1 118 
1 119 
1 120 
1 121 
1 122 
1 123 
1 124 
1 125 
1 126 
1 127 
1 128 
1 129 
1 130 
1 131 
1 132 
1 133 
1 134 
1 135 
1 136 
1 137 
1 138 
1 139 
1 140 
1 141 
1 142 
1 143 
1 144 
1 145 
1 146 
1 147 
1 148 
1 149 
1 150 
1 151 
1 152 
1 153 
1 154 
1 155 
1 156 
1 157 
1 158 
1 159 
1 160 
1 161 
1 162 
1 163 
1 164 
1 165 
1 166 
1 167 
1 168 
1 169 
1 170 
1 171 
1 172 
1 173 
1 174 
1 175 
1 176 
1 177 
1 178 
1 179 
1 180 
1 181 
1 182 
1 183 
CELL_TYPES 184 
1 
1 
1 
1 
1 
1 
1 
1 
1 
1 
1 
1 
1 
1 
1 
1 
1 
1 
1 
1 
1 
1 
1 
1 
1 
1 
1 
1 
1 
1 
1 
1 
1 
1 
1 
1 
1 
1 
1 
1 
1 
1 
1 
1 
1 
1 
1 
1 
1 
1 
1 
1 
1 
1 
1 
1 
1 
1 
1 
1 
1 
1 
1 
1 
1 
1 
1 
1 
1 
1 
1 
1 
1 
1 
1 
1 
1 
1 
1 
1 
1 
1 
1 
1 
1 
1 
1 
1 
1 
1 
1 
1 
1 
1 
1 
1 
1 
1 
1 
1 
1 
1 
1 
1 
1 
1 
1 
1 
1 
1 
1 
1 
1 
1 
1 
1 
1 
1 
1 
1 
1 
1 
1 
1 
1 
1 
1 
1 
1 
1 
1 
1 
1 
1 
1 
1 
1 
1 
1 
1 
1 
1 
1 
1 
1 
1 
1 
1 
1 
1 
1 
1 
1 
1 
1 
1 
1 
1 
1 
1 
1 
1 
1 
1 
1 
1 
1 
1 
1 
1 
1 
1 
1 
1 
1 
1 
1 
1 
1 
1 
1 
1 
1 
1 
POINT_DATA 184 
VECTORS X_GC float 
-0.028535 -2.048592 0.000000 
-0.354223 -2.893588 0.000000 
0.474992 -2.547875 0.000000 
-0.448225 -2.356807 0.000000 
0.180108 -3.072343 0.000000 
0.224283 -2.102462 0.000000 
-0.283723 -2.142241 0.000000 
-0.116748 -3.111156 0.000000 
0.418674 -2.298969 0.000000 
-0.462349 -2.624897 0.000000 
0.387084 -2.818158 0.000000 
-0.165415 -2.077035 0.000000 
-0.240602 -3.008233 0.000000 
0.465181 -2.420765 0.000000 
-0.473064 -2.493160 0.000000 
0.291268 -2.943785 0.000000 
0.099215 -2.060064 0.000000 
-0.378576 -2.233522 0.000000 
0.048223 -3.137526 0.000000 
0.338173 -2.182893 0.000000 
-0.420133 -2.743379 0.000000 
0.448012 -2.680480 0.000000 
-0.119755 -2.063636 0.000000 
-0.315022 -2.931973 0.000000 
0.474552 -2.501345 0.000000 
-0.460936 -2.403078 0.000000 
0.253964 -2.992950 0.000000 
0.179113 -2.083968 0.000000 
-0.347293 -2.197206 0.000000 
-0.063247 -3.122638 0.000000 
0.368361 -2.219501 0.000000 
-0.450063 -2.668172 0.000000 
0.428242 -2.725025 0.000000 
-0.209660 -2.096186 0.000000 
-0.164204 -3.080707 0.000000 
0.438499 -2.342417 0.000000 
-0.472363 -2.539847 0.000000 
0.332961 -2.914955 0.000000 
0.018002 -2.048495 0.000000 
-0.428884 -2.313074 0.000000 
0.100377 -3.122763 0.000000 
0.302724 -2.151593 0.000000 
-0.381274 -2.839679 0.000000 
0.460371 -2.637011 0.000000 
-0.079052 -2.081304 0.000000 
0.368787 -2.265870 0.000000 
0.048317 -2.077763 0.000000 
0.211070 -2.960657 0.000000 
-0.175932 -2.980754 0.000000 
-0.373039 -2.777147 0.000000 
0.389835 -2.738395 0.000000 
-0.304591 -2.194059 0.000000 
-0.387760 -2.293581 0.000000 
0.424986 -2.382378 0.000000 
0.141051 -2.097155 0.000000 
0.119171 -3.013601 0.000000 
-0.266864 -2.907762 0.000000 
-0.415560 -2.686211 0.000000 
0.441668 -2.595598 0.000000 
0.332493 -2.838118 0.000000 
-0.014763 -3.008213 0.000000 
-0.225262 -2.133692 0.000000 
-0.443970 -2.443203 0.000000 
-0.444332 -2.574610 0.000000 
0.256442 -2.150952 0.000000 
0.446402 -2.471786 0.000000 
-0.079377 -2.137440 0.000000 
-0.130280 -2.180263 0.000000 
-0.191324 -2.175152 0.000000 
-0.111481 -2.239093 0.000000 
-0.223063 -2.230243 0.000000 
-0.170463 -2.267301 0.000000 
-0.055523 -2.253129 0.000000 
-0.277658 -2.240886 0.000000 
-0.040186 -2.307908 0.000000 
-0.015250 -2.212562 0.000000 
-0.294975 -2.300719 0.000000 
-0.348688 -2.330584 0.000000 
-0.350063 -2.397171 0.000000 
-0.253411 -2.339459 0.000000 
-0.391223 -2.445037 0.000000 
-0.369915 -2.504118 0.000000 
-0.283056 -2.397509 0.000000 
-0.394930 -2.560485 0.000000 
-0.361255 -2.603473 0.000000 
-0.313317 -2.504066 0.000000 
-0.371562 -2.658022 0.000000 
-0.326852 -2.686697 0.000000 
-0.308887 -2.563939 0.000000 
-0.322366 -2.745076 0.000000 
-0.265798 -2.768165 0.000000 
-0.276232 -2.661784 0.000000 
-0.242319 -2.832327 0.000000 
-0.177939 -2.835736 0.000000 
-0.237248 -2.708694 0.000000 
-0.140080 -2.892654 0.000000 
-0.077149 -2.871677 0.000000 
-0.149010 -2.780111 0.000000 
-0.021158 -2.907204 0.000000 
0.035744 -2.875377 0.000000 
-0.086783 -2.802123 0.000000 
0.093092 -2.908007 0.000000 
0.133487 -2.857324 0.000000 
0.027060 -2.814121 0.000000 
0.195166 -2.868420 0.000000 
0.228286 -2.803301 0.000000 
0.090812 -2.801293 0.000000 
0.285853 -2.785356 0.000000 
0.300806 -2.721127 0.000000 
0.193340 -2.750642 0.000000 
0.351325 -2.695815 0.000000 
0.349256 -2.639328 0.000000 
0.239083 -2.705666 0.000000 
0.389169 -2.594334 0.000000 
0.370365 -2.538824 0.000000 
0.295907 -2.618844 0.000000 
0.395304 -2.487476 0.000000 
0.360341 -2.442938 0.000000 
0.308340 -2.561235 0.000000 
0.371874 -2.388907 0.000000 
0.324773 -2.349039 0.000000 
0.303598 -2.456001 0.000000 
0.319625 -2.287044 0.000000 
0.260770 -2.257857 0.000000 
0.280018 -2.395270 0.000000 
0.233568 -2.199510 0.000000 
0.170662 -2.193952 0.000000 
0.218256 -2.299700 0.000000 
0.132962 -2.148330 0.000000 
0.077817 -2.158999 0.000000 
0.033454 -2.125682 0.000000 
-0.020405 -2.155472 0.000000 
0.166142 -2.260983 0.000000 
0.047442 -2.212593 0.000000 
-0.183606 -2.316544 0.000000 
-0.266569 -2.446522 0.000000 
-0.039594 -2.778320 0.000000 
0.235668 -2.659851 0.000000 
0.277889 -2.522634 0.000000 
0.117355 -2.755980 0.000000 
0.232587 -2.374810 0.000000 
-0.268493 -2.593835 0.000000 
-0.184647 -2.714371 0.000000 
-0.080351 -2.349294 0.000000 
0.015439 -2.322052 0.000000 
-0.141117 -2.352665 0.000000 
-0.169616 -2.410767 0.000000 
-0.214510 -2.450203 0.000000 
-0.205136 -2.511412 0.000000 
-0.128768 -2.447394 0.000000 
-0.219375 -2.568440 0.000000 
-0.147868 -2.503533 0.000000 
-0.175292 -2.612314 0.000000 
-0.076418 -2.412469 0.000000 
-0.156727 -2.668527 0.000000 
-0.126182 -2.585381 0.000000 
-0.074714 -2.611297 0.000000 
-0.112869 -2.533267 0.000000 
-0.051806 -2.516812 0.000000 
-0.031383 -2.569633 0.000000 
-0.034449 -2.452403 0.000000 
0.030770 -2.377731 0.000000 
0.062659 -2.267542 0.000000 
-0.089286 -2.668275 0.000000 
0.009017 -2.435941 0.000000 
0.051550 -2.485783 0.000000 
0.053971 -2.540892 0.000000 
0.097660 -2.457617 0.000000 
0.012112 -2.583526 0.000000 
0.029514 -2.640187 0.000000 
0.019495 -2.693121 0.000000 
0.079643 -2.716485 0.000000 
0.084523 -2.639443 0.000000 
0.119501 -2.676058 0.000000 
0.180506 -2.648960 0.000000 
0.099376 -2.583039 0.000000 
0.164866 -2.468945 0.000000 
0.087091 -2.398658 0.000000 
0.162049 -2.585062 0.000000 
0.189679 -2.411900 0.000000 
0.131006 -2.367774 0.000000 
0.121965 -2.291892 0.000000 
-0.040264 -2.708126 0.000000 
0.197521 -2.528638 0.000000 
VECTORS X_EC float 
-0.809770 0.657280 0.000000 
-0.638516 0.290585 0.000000 
-0.166613 -0.014168 0.000000 
-0.011834 0.712049 0.000000 
-0.248183 0.946404 0.000000 
-0.495223 -0.983587 0.000000 
0.891490 -0.718392 0.000000 
-0.208874 0.964511 0.000000 
0.208843 0.326463 0.000000 
0.082330 0.499314 0.000000 
0.419437 -0.212279 0.000000 
0.102765 0.846900 0.000000 
0.626334 0.986501 0.000000 
-0.101209 -0.861568 0.000000 
0.153763 -0.378933 0.000000 
-0.941788 0.625236 0.000000 
0.338565 0.733760 0.000000 
-0.476160 -0.109851 0.000000 
0.674495 0.937567 0.000000 
0.745511 -0.447383 0.000000 
-0.199116 -0.710804 0.000000 
0.013252 0.869864 0.000000 
-0.201633 0.757575 0.000000 
-0.899851 0.546489 0.000000 
-0.163681 -0.324363 0.000000 
0.072904 -0.979483 0.000000 
-0.693094 0.952999 0.000000 
-0.194086 0.893120 0.000000 
-0.684710 -0.351959 0.000000 
-0.572427 0.921027 0.000000 
0.544257 -0.203325 0.000000 
0.000422 0.787816 0.000000 
0.145052 -0.833168 0.000000 
0.397734 0.974571 0.000000 
0.119212 0.951185 0.000000 
0.076671 0.616111 0.000000 
0.149090 -0.067687 0.000000 
0.780261 0.433035 0.000000 
0.879987 0.656634 0.000000 
-0.140773 0.420496 0.000000 
0.304228 0.957028 0.000000 
0.981840 -0.656048 0.000000 
-0.458170 -0.068805 0.000000 
-0.069138 0.580070 0.000000 
-0.472986 0.875361 0.000000 
0.541418 0.105800 0.000000 
0.677886 0.851753 0.000000 
-0.407136 0.737710 0.000000 
0.172878 0.871691 0.000000 
-0.513074 -0.485690 0.000000 
0.401101 -0.744036 0.000000 
-0.969392 -0.372940 0.000000 
-0.414933 0.290541 0.000000 
0.166761 0.882518 0.000000 
0.059660 0.981035 0.000000 
0.184510 0.990440 0.000000 
0.779095 0.385081 0.000000 
-0.229600 0.908071 0.000000 
0.055547 0.303985 0.000000 
0.783378 -0.079210 0.000000 
-0.895255 0.999530 0.000000 
0.501749 -0.775384 0.000000 
-0.040198 -0.711980 0.000000 
-0.037784 0.164067 0.000000 
-0.709613 -0.660318 0.000000 
0.023989 -0.521428 0.000000 
-0.470818 -0.750397 0.000000 
-0.131464 -0.464911 0.000000 
0.275495 -0.498986 0.000000 
-0.256790 -0.072710 0.000000 
0.487086 -0.131712 0.000000 
0.136417 0.115342 0.000000 
-0.629844 0.020859 0.000000 
0.851052 -0.060758 0.000000 
-0.732092 0.386051 0.000000 
-0.898332 -0.249587 0.000000 
0.966497 0.338128 0.000000 
-0.675416 0.537228 0.000000 
-0.666244 0.981137 0.000000 
0.689407 0.596393 0.000000 
-0.391849 -0.699756 0.000000 
-0.533902 -0.305882 0.000000 
0.887039 0.983393 0.000000 
-0.367135 0.069897 0.000000 
-0.591632 0.356487 0.000000 
-0.911217 -0.306225 0.000000 
-0.522918 0.720146 0.000000 
-0.820984 0.911315 0.000000 
-0.940754 0.092928 0.000000 
-0.850890 -0.699493 0.000000 
0.771988 -0.545569 0.000000 
0.841548 0.745224 0.000000 
0.615459 -0.117817 0.000000 
0.186259 -0.095092 0.000000 
0.581653 -0.942039 0.000000 
-0.066131 0.284361 0.000000 
-0.485672 0.144511 0.000000 
-0.006601 -0.465923 0.000000 
-0.858944 0.381357 0.000000 
0.761705 0.169182 0.000000 
-0.421446 -0.319182 0.000000 
0.379385 0.386716 0.000000 
0.110088 0.048826 0.000000 
0.819601 -0.239193 0.000000 
-0.301103 0.122799 0.000000 
-0.521905 -0.311325 0.000000 
0.394585 -0.324715 0.000000 
-0.905690 -0.430958 0.000000 
0.994624 -0.859156 0.000000 
-0.288932 -0.662386 0.000000 
0.657832 0.972102 0.000000 
0.671625 0.595519 0.000000 
-0.593887 -0.962226 0.000000 
0.405541 0.295563 0.000000 
0.530900 -0.074507 0.000000 
-0.972711 0.458958 0.000000 
0.364641 -0.416827 0.000000 
0.597724 -0.713748 0.000000 
0.944401 0.074902 0.000000 
0.520838 0.926050 0.000000 
0.834849 0.660262 0.000000 
0.976014 -0.626662 0.000000 
0.869167 0.246957 0.000000 
-0.738466 0.052383 0.000000 
-0.866789 0.968468 0.000000 
-0.557119 -0.336598 0.000000 
-0.137749 -0.373655 0.000000 
-0.455037 0.331336 0.000000 
0.113585 -0.677802 0.000000 
0.481220 -0.606676 0.000000 
0.776974 -0.828787 0.000000 
-0.863965 -0.630188 0.000000 
-0.107614 0.073220 0.000000 
0.683722 -0.249383 0.000000 
0.224041 0.443630 0.000000 
0.777124 -0.689852 0.000000 
-0.736041 -0.477869 0.000000 
-0.571121 0.732337 0.000000 
-0.852595 -0.182440 0.000000 
0.217636 -0.626802 0.000000 
-0.550582 0.832070 0.000000 
0.789953 0.292236 0.000000 
0.230982 -0.904192 0.000000 
-0.464325 0.661963 0.000000 
0.897075 0.480346 0.000000 
-0.059218 0.684435 0.000000 
0.130772 -0.928220 0.000000 
0.430065 -0.665310 0.000000 
0.367576 -0.257254 0.000000 
-0.141549 -0.684043 0.000000 
0.462502 0.122933 0.000000 
-0.014213 -0.309781 0.000000 
0.168612 0.415429 0.000000 
-0.490546 -0.916875 0.000000 
0.044845 0.790183 0.000000 
-0.158784 0.235872 0.000000 
-0.501906 0.408643 0.000000 
-0.247542 -0.111551 0.000000 
-0.654624 -0.221253 0.000000 
-0.790782 0.130884 0.000000 
-0.770341 -0.650647 0.000000 
0.794866 0.851542 0.000000 
0.582274 0.116949 0.000000 
-0.404758 0.788499 0.000000 
0.939884 -0.760395 0.000000 
0.656332 -0.428112 0.000000 
0.640194 -0.060717 0.000000 
0.348931 -0.615890 0.000000 
0.919253 0.223504 0.000000 
0.803242 0.601249 0.000000 
0.870036 0.954139 0.000000 
0.469044 -0.890103 0.000000 
0.436515 0.596286 0.000000 
0.203323 0.840388 0.000000 
-0.203377 0.659735 0.000000 
0.337493 0.220259 0.000000 
-0.099106 -0.540364 0.000000 
0.419396 0.991054 0.000000 
-0.080329 0.233744 0.000000 
-0.264526 -0.920668 0.000000 
0.126625 0.785159 0.000000 
0.186899 0.279281 0.000000 
-0.731572 -0.945828 0.000000 
-0.316806 -0.142416 0.000000 
CELL_DATA 184 
SCALARS MASS float 
LOOKUP_TABLE default 
0.051252 
0.046008 
0.051531 
0.046188 
0.052854 
0.051531 
0.052854 
0.052854 
0.051531 
0.050859 
0.052854 
0.047395 
0.052854 
0.052854 
0.051434 
0.045995 
0.052854 
0.051281 
0.051530 
0.046441 
0.052854 
0.052854 
0.050612 
0.049065 
0.052975 
0.049197 
0.049245 
0.052975 
0.052990 
0.055938 
0.049713 
0.052094 
0.055938 
0.050456 
0.055938 
0.053198 
0.052878 
0.049051 
0.052807 
0.049481 
0.052974 
0.049465 
0.049257 
0.055938 
0.105225 
0.104629 
0.082126 
0.094264 
0.094771 
0.094259 
0.094771 
0.083366 
0.104047 
0.083092 
0.081316 
0.081315 
0.092719 
0.079469 
0.108073 
0.092710 
0.108073 
0.093129 
0.104035 
0.094961 
0.104398 
0.081316 
0.125285 
0.099128 
0.098320 
0.087841 
0.082650 
0.097481 
0.086914 
0.081921 
0.086680 
0.086680 
0.081485 
0.107769 
0.088711 
0.084874 
0.107874 
0.082612 
0.095190 
0.095229 
0.083942 
0.085089 
0.079923 
0.081132 
0.095301 
0.097917 
0.090576 
0.085268 
0.095896 
0.081062 
0.095454 
0.090083 
0.081027 
0.085251 
0.101961 
0.083022 
0.095445 
0.080604 
0.081018 
0.085240 
0.097826 
0.090495 
0.095435 
0.095845 
0.081023 
0.085241 
0.090072 
0.081024 
0.095436 
0.101966 
0.083028 
0.085242 
0.080610 
0.081024 
0.095437 
0.082345 
0.082694 
0.085242 
0.109264 
0.089885 
0.095437 
0.108636 
0.083028 
0.085242 
0.080610 
0.074817 
0.073569 
0.082490 
0.095437 
0.095617 
0.133784 
0.138292 
0.139667 
0.139695 
0.139694 
0.139689 
0.139693 
0.140105 
0.139774 
0.086622 
0.086622 
0.089038 
0.077179 
0.079159 
0.072465 
0.084345 
0.092656 
0.093083 
0.084037 
0.098826 
0.101847 
0.085968 
0.086444 
0.074619 
0.064825 
0.094138 
0.124406 
0.086607 
0.131576 
0.102571 
0.084703 
0.076503 
0.084191 
0.084191 
0.086793 
0.075696 
0.084714 
0.090949 
0.084009 
0.076569 
0.086383 
0.098391 
0.110757 
0.093222 
0.143196 
0.101090 
0.091038 
0.150913 
0.178131 
0.206980 
SCALARS MASS float 
LOOKUP_TABLE default 
0.051252 
0.046008 
0.051531 
0.046188 
0.052854 
0.051531 
0.052854 
0.052854 
0.051531 
0.050859 
0.052854 
0.047395 
0.052854 
0.052854 
0.051434 
0.045995 
0.052854 
0.051281 
0.051530 
0.046441 
0.052854 
0.052854 
0.050612 
0.049065 
0.052975 
0.049197 
0.049245 
0.052975 
0.052990 
0.055938 
0.049713 
0.052094 
0.055938 
0.050456 
0.055938 
0.053198 
0.052878 
0.049051 
0.052807 
0.049481 
0.052974 
0.049465 
0.049257 
0.055938 
0.105225 
0.104629 
0.082126 
0.094264 
0.094771 
0.094259 
0.094771 
0.083366 
0.104047 
0.083092 
0.081316 
0.081315 
0.092719 
0.079469 
0.108073 
0.092710 
0.108073 
0.093129 
0.104035 
0.094961 
0.104398 
0.081316 
0.125285 
0.099128 
0.098320 
0.087841 
0.082650 
0.097481 
0.086914 
0.081921 
0.086680 
0.086680 
0.081485 
0.107769 
0.088711 
0.084874 
0.107874 
0.082612 
0.095190 
0.095229 
0.083942 
0.085089 
0.079923 
0.081132 
0.095301 
0.097917 
0.090576 
0.085268 
0.095896 
0.081062 
0.095454 
0.090083 
0.081027 
0.085251 
0.101961 
0.083022 
0.095445 
0.080604 
0.081018 
0.085240 
0.097826 
0.090495 
0.095435 
0.095845 
0.081023 
0.085241 
0.090072 
0.081024 
0.095436 
0.101966 
0.083028 
0.085242 
0.080610 
0.081024 
0.095437 
0.082345 
0.082694 
0.085242 
0.109264 
0.089885 
0.095437 
0.108636 
0.083028 
0.085242 
0.080610 
0.074817 
0.073569 
0.082490 
0.095437 
0.095617 
0.133784 
0.138292 
0.139667 
0.139695 
0.139694 
0.139689 
0.139693 
0.140105 
0.139774 
0.086622 
0.086622 
0.089038 
0.077179 
0.079159 
0.072465 
0.084345 
0.092656 
0.093083 
0.084037 
0.098826 
0.101847 
0.085968 
0.086444 
0.074619 
0.064825 
0.094138 
0.124406 
0.086607 
0.131576 
0.102571 
0.084703 
0.076503 
0.084191 
0.084191 
0.086793 
0.075696 
0.084714 
0.090949 
0.084009 
0.076569 
0.086383 
0.098391 
0.110757 
0.093222 
0.143196 
0.101090 
0.091038 
0.150913 
0.178131 
0.206980 
SCALARS DENSITY float 
LOOKUP_TABLE default 
22.305651 
3181778.928674 
26.242806 
26.190242 
6400340988539175.000000 
20.507596 
19.945096 
32914344965737432.000000 
24.245988 
28.603728 
7778.764505 
21.143421 
3761136481588.139648 
20.140311 
28.805604 
2215594573.110161 
21.700302 
23.769689 
13785161991934011392.000000 
19.455654 
123.330142 
27.180634 
21.545999 
1215518785.093991 
28.204175 
26.065602 
530562228273.072021 
20.945562 
19.861017 
2929014563108620288.000000 
20.309017 
27.550928 
71.281081 
20.718606 
1048623719326616.625000 
24.219721 
30.635959 
34183061.097239 
22.390035 
25.906540 
35219227769011449856.000000 
23.702385 
44337.545743 
27.357466 
21.699658 
23.657103 
21.937005 
36624269012.129013 
168498354460.935883 
794.430663 
102.914404 
19.904751 
25.762997 
23.892659 
21.126407 
257427262023071.593750 
680326106.649472 
24.879338 
23.193658 
234415.954653 
4798605629838921.000000 
18.620823 
17.152563 
23.416120 
20.376328 
21.289100 
18.663170 
20.334481 
20.157647 
22.430730 
21.790982 
22.742974 
22.219517 
22.755756 
20.074437 
21.758298 
22.926223 
24.862288 
24.730769 
22.600744 
20.725925 
28.603715 
22.168887 
20.485443 
22.378613 
25.837660 
23.570507 
20.504241 
15.354741 
99.845301 
702.175995 
21.399891 
222026.348646 
797127.354160 
21.842974 
45556779.692312 
7341462.096832 
2163.318559 
899604214.970790 
36496260.287366 
13050.863246 
2409549221.580752 
2909274.485071 
33509.949358 
20001864.694052 
23164.481661 
13111.839529 
2834.872077 
32.077650 
233.054708 
23.951808 
24.605315 
19.172736 
21.372510 
22.592682 
21.096014 
26.078756 
20.476917 
16.423903 
23.174802 
22.751899 
26.295829 
23.245014 
23.329033 
22.196485 
20.616159 
20.530207 
22.013305 
19.526450 
20.411104 
19.241635 
19.804998 
22.672864 
21.791606 
21.637129 
23.514088 
3244.783295 
20.623239 
19.726009 
511.533826 
22.408266 
21.066647 
24.190699 
22.178703 
21.124746 
22.319075 
21.901299 
22.615885 
19.265811 
20.849068 
19.557958 
17.713088 
26.953894 
21.073003 
20.629867 
27.432320 
32.852992 
19.946975 
17.443168 
31.093992 
17.333875 
22.223360 
21.912678 
20.422194 
21.201443 
13.479796 
22.673032 
18.872027 
35.356306 
25.414585 
17.942880 
25.953254 
24.528204 
19.126894 
21.655674 
28.026695 
18.348679 
21.910213 
23.690501 
22.250139 
22.396363 
21.276503 
20.318693 
19.438904 
SCALARS ELEM_i float 
LOOKUP_TABLE default 
203 
220 
161 
222 
180 
182 
202 
200 
162 
221 
160 
203 
200 
161 
221 
180 
183 
222 
180 
162 
220 
161 
203 
220 
161 
221 
180 
183 
222 
200 
162 
221 
160 
203 
200 
162 
221 
160 
183 
222 
180 
162 
220 
161 
203 
162 
183 
180 
200 
220 
160 
222 
222 
162 
183 
180 
200 
221 
161 
160 
200 
202 
221 
221 
182 
161 
202 
202 
202 
202 
202 
202 
202 
202 
202 
202 
202 
222 
222 
202 
221 
221 
202 
221 
221 
221 
221 
221 
221 
220 
200 
201 
200 
200 
200 
200 
200 
200 
200 
180 
200 
180 
180 
180 
180 
180 
180 
180 
160 
180 
161 
161 
180 
161 
161 
181 
161 
161 
161 
162 
162 
161 
162 
182 
182 
182 
182 
182 
182 
182 
182 
202 
182 
182 
202 
201 
200 
181 
181 
180 
182 
201 
200 
202 
182 
202 
201 
201 
201 
201 
201 
201 
201 
201 
201 
201 
201 
201 
201 
201 
201 
182 
182 
201 
181 
181 
181 
181 
181 
181 
181 
180 
181 
181 
181 
181 
181 
182 
181 
181 
182 
182 
200 
181 
VECTORS VELOCITY float 
0.278869 0.039118 0.000000 
-1.819351 -42.612253 0.000000 
-0.275872 0.343116 0.000000 
-0.616706 -0.767992 0.000000 
0.415638 -132.420326 0.000000 
0.302335 -0.570539 0.000000 
0.083110 -0.196966 0.000000 
-1.679913 -155.643614 0.000000 
0.167955 -0.206210 0.000000 
1.121623 0.905175 0.000000 
0.195566 -17.500992 0.000000 
0.755058 -0.957437 0.000000 
1.824110 -95.655948 0.000000 
0.030062 -1.037148 0.000000 
0.448417 -0.246963 0.000000 
-2.656038 -61.484866 0.000000 
-0.974776 -0.809443 0.000000 
-1.234366 0.670909 0.000000 
1.615737 -172.920843 0.000000 
0.639226 0.537134 0.000000 
0.574064 -0.874280 0.000000 
0.364939 2.123935 0.000000 
0.875275 -0.788935 0.000000 
0.537721 -57.376912 0.000000 
-0.267265 0.071768 0.000000 
0.058202 -1.678634 0.000000 
-2.233386 -87.157434 0.000000 
-0.636930 -1.006168 0.000000 
-1.006057 0.698762 0.000000 
-1.298480 -162.774475 0.000000 
0.525749 0.460647 0.000000 
0.999975 1.705307 0.000000 
-0.042104 0.458063 0.000000 
0.115835 -0.789345 0.000000 
-0.920301 -137.152045 0.000000 
-0.104720 -0.695458 0.000000 
1.085644 -0.127615 0.000000 
0.612953 -51.440863 0.000000 
-0.238929 0.105741 0.000000 
-1.057710 -0.069018 0.000000 
2.019166 -162.962427 0.000000 
0.325174 0.169573 0.000000 
-1.075170 -23.186295 0.000000 
0.191479 1.361333 0.000000 
0.243092 -0.556617 0.000000 
0.114787 -0.194330 0.000000 
-0.246966 -0.439299 0.000000 
-1.808692 -67.176020 0.000000 
1.301646 -77.090087 0.000000 
-0.074802 -4.053346 0.000000 
-0.194525 0.814469 0.000000 
-0.003163 -0.149492 0.000000 
-0.752211 -0.051354 0.000000 
-0.491105 -1.349019 0.000000 
0.028109 -0.644562 0.000000 
-0.152522 -95.580633 0.000000 
2.015830 -42.530405 0.000000 
0.494715 3.120222 0.000000 
0.020161 1.190773 0.000000 
-0.006200 -18.922014 0.000000 
0.169866 -90.471512 0.000000 
0.065759 -0.281660 0.000000 
-0.426835 -0.458120 0.000000 
0.880602 0.564806 0.000000 
0.090679 -0.098070 0.000000 
0.018954 -0.115451 0.000000 
-0.016648 -0.435145 0.000000 
0.005805 -0.511818 0.000000 
0.041080 -0.404790 0.000000 
0.095837 -0.601198 0.000000 
0.294869 -0.593296 0.000000 
0.266496 -0.608193 0.000000 
-0.014569 -0.520543 0.000000 
0.444556 -0.649282 0.000000 
-0.045166 -0.198515 0.000000 
-0.101120 -0.689719 0.000000 
0.602426 -0.855507 0.000000 
0.034603 -0.651980 0.000000 
0.550276 -1.294613 0.000000 
0.556304 -0.845925 0.000000 
-0.024084 -0.831204 0.000000 
0.307688 -0.582405 0.000000 
0.826444 -1.201419 0.000000 
0.402395 0.709963 0.000000 
-0.003199 2.299298 0.000000 
0.100759 -0.744288 0.000000 
0.012986 3.759124 0.000000 
-0.716997 6.333199 0.000000 
-0.442716 1.568103 0.000000 
-0.547842 5.513363 0.000000 
-0.454715 4.382882 0.000000 
-0.767781 6.028504 0.000000 
0.566165 -11.347047 0.000000 
0.558069 -11.096232 0.000000 
-0.826884 8.035775 0.000000 
1.075641 -30.658735 0.000000 
0.634774 -19.987469 0.000000 
0.043429 2.217669 0.000000 
0.428057 -31.735374 0.000000 
0.044412 -19.682862 0.000000 
0.309695 -1.525321 0.000000 
-0.537608 -35.379935 0.000000 
-0.543318 -17.072940 0.000000 
0.321541 -3.212716 0.000000 
-1.084969 -23.099717 0.000000 
-0.309580 -3.166169 0.000000 
0.168584 -1.512954 0.000000 
-0.187436 0.831254 0.000000 
0.184772 8.290366 0.000000 
0.306876 6.373585 0.000000 
0.292612 5.855073 0.000000 
0.046114 3.751107 0.000000 
0.375592 8.075503 0.000000 
0.000185 1.720451 0.000000 
-0.259179 0.151847 0.000000 
-0.042564 3.993583 0.000000 
-0.347208 -0.668468 0.000000 
-0.315307 -1.347736 0.000000 
-0.101146 1.149419 0.000000 
-0.625101 -1.571235 0.000000 
-0.514662 -1.328505 0.000000 
-0.798115 -2.047198 0.000000 
-0.303369 -0.880660 0.000000 
-0.360700 -0.886823 0.000000 
-0.792191 -1.798231 0.000000 
-0.049593 -0.482371 0.000000 
-0.043385 -0.514096 0.000000 
-0.400402 -0.928151 0.000000 
0.008924 -0.302849 0.000000 
-0.018516 -0.465784 0.000000 
-0.040317 -0.599572 0.000000 
-0.062869 -0.566524 0.000000 
-0.289405 -0.727825 0.000000 
-0.125358 -0.673537 0.000000 
0.330723 -0.591105 0.000000 
0.587659 -1.507112 0.000000 
0.364989 2.543163 0.000000 
0.159965 5.490023 0.000000 
-0.297905 -0.538606 0.000000 
0.391541 5.502253 0.000000 
-0.619323 -1.402751 0.000000 
-0.517390 2.725103 0.000000 
-0.484128 7.711512 0.000000 
0.071017 -0.363546 0.000000 
-0.173328 -0.134981 0.000000 
0.254322 -0.564020 0.000000 
0.427227 -0.934256 0.000000 
0.454784 -1.287332 0.000000 
0.032367 -0.297813 0.000000 
0.262525 -0.934820 0.000000 
-0.310286 1.397683 0.000000 
0.105263 -0.247610 0.000000 
-0.204582 2.490684 0.000000 
0.113302 -0.608555 0.000000 
-0.215138 5.123174 0.000000 
-0.037457 1.168356 0.000000 
0.154700 1.373262 0.000000 
0.060781 0.221228 0.000000 
0.155978 0.143319 0.000000 
0.260349 0.231880 0.000000 
0.049513 -0.466873 0.000000 
-0.237163 -0.383621 0.000000 
-0.203203 -0.496605 0.000000 