# vtk DataFile Version 3.0 
vtk output 
ASCII 
DATASET UNSTRUCTURED_GRID 
POINTS 184 float 
-0.034684 -2.085454 0.000000 
-0.392591 -2.931573 0.000000 
0.476947 -2.575698 0.000000 
-0.448732 -2.397311 0.000000 
0.187010 -3.107786 0.000000 
0.221599 -2.138488 0.000000 
-0.286532 -2.181169 0.000000 
-0.113058 -3.147565 0.000000 
0.417358 -2.327354 0.000000 
-0.464535 -2.654759 0.000000 
0.409201 -2.854018 0.000000 
-0.168507 -2.112406 0.000000 
-0.240813 -3.049188 0.000000 
0.465656 -2.450793 0.000000 
-0.474415 -2.530246 0.000000 
0.297635 -2.979046 0.000000 
0.097878 -2.092618 0.000000 
-0.379733 -2.272714 0.000000 
0.055398 -3.170455 0.000000 
0.335748 -2.215070 0.000000 
-0.436376 -2.772829 0.000000 
0.451550 -2.706733 0.000000 
-0.128491 -2.099514 0.000000 
-0.328133 -2.972122 0.000000 
0.475926 -2.530044 0.000000 
-0.461765 -2.444251 0.000000 
0.260847 -3.029630 0.000000 
0.173993 -2.118472 0.000000 
-0.349120 -2.236190 0.000000 
-0.057975 -3.156920 0.000000 
0.366158 -2.249423 0.000000 
-0.452360 -2.696352 0.000000 
0.436257 -2.753442 0.000000 
-0.211674 -2.135228 0.000000 
-0.162054 -3.118825 0.000000 
0.437915 -2.371270 0.000000 
-0.474029 -2.574263 0.000000 
0.352508 -2.953026 0.000000 
0.014928 -2.083973 0.000000 
-0.429496 -2.352943 0.000000 
0.107493 -3.156762 0.000000 
0.299886 -2.187094 0.000000 
-0.419927 -2.874588 0.000000 
0.463446 -2.663559 0.000000 
-0.082410 -2.114813 0.000000 
0.367283 -2.295425 0.000000 
0.044001 -2.109865 0.000000 
0.217826 -2.994767 0.000000 
-0.173937 -3.018550 0.000000 
-0.390871 -2.810326 0.000000 
0.398432 -2.768765 0.000000 
-0.307696 -2.231711 0.000000 
-0.389025 -2.331931 0.000000 
0.425290 -2.411779 0.000000 
0.137394 -2.131276 0.000000 
0.126347 -3.048041 0.000000 
-0.267304 -2.946191 0.000000 
-0.417512 -2.715648 0.000000 
0.444249 -2.623293 0.000000 
0.345016 -2.873138 0.000000 
-0.007755 -3.041095 0.000000 
-0.228123 -2.171298 0.000000 
-0.445367 -2.481957 0.000000 
-0.446161 -2.607431 0.000000 
0.253380 -2.186000 0.000000 
0.447600 -2.500984 0.000000 
-0.082454 -2.171138 0.000000 
-0.132900 -2.215453 0.000000 
-0.194049 -2.211449 0.000000 
-0.113509 -2.274380 0.000000 
-0.225696 -2.266241 0.000000 
-0.172639 -2.302751 0.000000 
-0.057068 -2.288385 0.000000 
-0.280558 -2.276967 0.000000 
-0.040832 -2.344320 0.000000 
-0.017217 -2.246617 0.000000 
-0.298082 -2.335057 0.000000 
-0.350917 -2.366413 0.000000 
-0.352731 -2.432272 0.000000 
-0.256134 -2.373271 0.000000 
-0.393233 -2.481616 0.000000 
-0.371836 -2.539013 0.000000 
-0.286323 -2.430035 0.000000 
-0.396625 -2.594375 0.000000 
-0.362642 -2.637226 0.000000 
-0.315443 -2.538084 0.000000 
-0.372807 -2.690694 0.000000 
-0.326932 -2.721434 0.000000 
-0.310329 -2.598646 0.000000 
-0.324935 -2.780232 0.000000 
-0.265099 -2.803670 0.000000 
-0.276172 -2.697469 0.000000 
-0.241816 -2.868252 0.000000 
-0.176553 -2.869246 0.000000 
-0.236166 -2.741758 0.000000 
-0.137684 -2.926097 0.000000 
-0.073796 -2.902233 0.000000 
-0.147627 -2.811153 0.000000 
-0.015949 -2.936652 0.000000 
0.040531 -2.903992 0.000000 
-0.084676 -2.831222 0.000000 
0.098716 -2.938688 0.000000 
0.137963 -2.887632 0.000000 
0.030280 -2.840821 0.000000 
0.199974 -2.900339 0.000000 
0.231811 -2.834685 0.000000 
0.093890 -2.829220 0.000000 
0.289213 -2.817859 0.000000 
0.303166 -2.752969 0.000000 
0.195646 -2.780057 0.000000 
0.354300 -2.725596 0.000000 
0.352216 -2.669523 0.000000 
0.240916 -2.735450 0.000000 
0.391763 -2.623277 0.000000 
0.372516 -2.568057 0.000000 
0.298539 -2.650245 0.000000 
0.396942 -2.516552 0.000000 
0.361819 -2.471862 0.000000 
0.310755 -2.591509 0.000000 
0.372633 -2.417619 0.000000 
0.324867 -2.377865 0.000000 
0.305428 -2.484677 0.000000 
0.318750 -2.317551 0.000000 
0.259505 -2.290181 0.000000 
0.281362 -2.423569 0.000000 
0.231338 -2.233324 0.000000 
0.168362 -2.227718 0.000000 
0.217698 -2.331792 0.000000 
0.129892 -2.181913 0.000000 
0.074933 -2.192030 0.000000 
0.029970 -2.157470 0.000000 
-0.023319 -2.188076 0.000000 
0.164971 -2.294367 0.000000 
0.045503 -2.246399 0.000000 
-0.185640 -2.351608 0.000000 
-0.268989 -2.479854 0.000000 
-0.037575 -2.804885 0.000000 
0.237967 -2.690530 0.000000 
0.279931 -2.552612 0.000000 
0.119463 -2.783465 0.000000 
0.233261 -2.405072 0.000000 
-0.269228 -2.628572 0.000000 
-0.183648 -2.745331 0.000000 
-0.080923 -2.385903 0.000000 
0.015456 -2.358941 0.000000 
-0.142442 -2.388222 0.000000 
-0.171090 -2.445663 0.000000 
-0.216259 -2.484126 0.000000 
-0.206273 -2.545138 0.000000 
-0.129542 -2.482264 0.000000 
-0.220120 -2.602121 0.000000 
-0.148563 -2.537198 0.000000 
-0.175488 -2.644748 0.000000 
-0.076675 -2.449071 0.000000 
-0.156528 -2.699560 0.000000 
-0.126339 -2.617134 0.000000 
-0.074599 -2.641105 0.000000 
-0.113157 -2.566099 0.000000 
-0.051691 -2.549765 0.000000 
-0.031132 -2.600154 0.000000 
-0.034196 -2.488049 0.000000 
0.031568 -2.415381 0.000000 
0.061669 -2.302278 0.000000 
-0.089068 -2.696672 0.000000 
0.009719 -2.472654 0.000000 
0.052380 -2.519275 0.000000 
0.054768 -2.572146 0.000000 
0.098714 -2.491164 0.000000 
0.012581 -2.612858 0.000000 
0.030033 -2.667052 0.000000 
0.019959 -2.717227 0.000000 
0.080655 -2.741925 0.000000 
0.085492 -2.667333 0.000000 
0.120789 -2.703670 0.000000 
0.182291 -2.678489 0.000000 
0.100457 -2.612853 0.000000 
0.166211 -2.500722 0.000000 
0.088146 -2.434216 0.000000 
0.163572 -2.615169 0.000000 
0.190994 -2.443617 0.000000 
0.131636 -2.401807 0.000000 
0.121341 -2.325934 0.000000 
-0.039712 -2.732905 0.000000 
0.199150 -2.559317 0.000000 
CELLS 184 368 
1 0 
1 1 
1 2 
1 3 
1 4 
1 5 
1 6 
1 7 
1 8 
1 9 
1 10 
1 11 
1 12 
1 13 
1 14 
1 15 
1 16 
1 17 
1 18 
1 19 
1 20 
1 21 
1 22 
1 23 
1 24 
1 25 
1 26 
1 27 
1 28 
1 29 
1 30 
1 31 
1 32 
1 33 
1 34 
1 35 
1 36 
1 37 
1 38 
1 39 
1 40 
1 41 
1 42 
1 43 
1 44 
1 45 
1 46 
1 47 
1 48 
1 49 
1 50 
1 51 
1 52 
1 53 
1 54 
1 55 
1 56 
1 57 
1 58 
1 59 
1 60 
1 61 
1 62 
1 63 
1 64 
1 65 
1 66 
1 67 
1 68 
1 69 
1 70 
1 71 
1 72 
1 73 
1 74 
1 75 
1 76 
1 77 
1 78 
1 79 
1 80 
1 81 
1 82 
1 83 
1 84 
1 85 
1 86 
1 87 
1 88 
1 89 
1 90 
1 91 
1 92 
1 93 
1 94 
1 95 
1 96 
1 97 
1 98 
1 99 
1 100 
1 101 
1 102 
1 103 
1 104 
1 105 
1 106 
1 107 
1 108 
1 109 
1 110 
1 111 
1 112 
1 113 
1 114 
1 115 
1 116 
1 117 
1 118 
1 119 
1 120 
1 121 
1 122 
1 123 
1 124 
1 125 
1 126 
1 127 
1 128 
1 129 
1 130 
1 131 
1 132 
1 133 
1 134 
1 135 
1 136 
1 137 
1 138 
1 139 
1 140 
1 141 
1 142 
1 143 
1 144 
1 145 
1 146 
1 147 
1 148 
1 149 
1 150 
1 151 
1 152 
1 153 
1 154 
1 155 
1 156 
1 157 
1 158 
1 159 
1 160 
1 161 
1 162 
1 163 
1 164 
1 165 
1 166 
1 167 
1 168 
1 169 
1 170 
1 171 
1 172 
1 173 
1 174 
1 175 
1 176 
1 177 
1 178 
1 179 
1 180 
1 181 
1 182 
1 183 
CELL_TYPES 184 
1 
1 
1 
1 
1 
1 
1 
1 
1 
1 
1 
1 
1 
1 
1 
1 
1 
1 
1 
1 
1 
1 
1 
1 
1 
1 
1 
1 
1 
1 
1 
1 
1 
1 
1 
1 
1 
1 
1 
1 
1 
1 
1 
1 
1 
1 
1 
1 
1 
1 
1 
1 
1 
1 
1 
1 
1 
1 
1 
1 
1 
1 
1 
1 
1 
1 
1 
1 
1 
1 
1 
1 
1 
1 
1 
1 
1 
1 
1 
1 
1 
1 
1 
1 
1 
1 
1 
1 
1 
1 
1 
1 
1 
1 
1 
1 
1 
1 
1 
1 
1 
1 
1 
1 
1 
1 
1 
1 
1 
1 
1 
1 
1 
1 
1 
1 
1 
1 
1 
1 
1 
1 
1 
1 
1 
1 
1 
1 
1 
1 
1 
1 
1 
1 
1 
1 
1 
1 
1 
1 
1 
1 
1 
1 
1 
1 
1 
1 
1 
1 
1 
1 
1 
1 
1 
1 
1 
1 
1 
1 
1 
1 
1 
1 
1 
1 
1 
1 
1 
1 
1 
1 
1 
1 
1 
1 
1 
1 
1 
1 
1 
1 
1 
1 
POINT_DATA 184 
VECTORS X_GC float 
-0.034684 -2.085454 0.000000 
-0.392591 -2.931573 0.000000 
0.476947 -2.575698 0.000000 
-0.448732 -2.397311 0.000000 
0.187010 -3.107786 0.000000 
0.221599 -2.138488 0.000000 
-0.286532 -2.181169 0.000000 
-0.113058 -3.147565 0.000000 
0.417358 -2.327354 0.000000 
-0.464535 -2.654759 0.000000 
0.409201 -2.854018 0.000000 
-0.168507 -2.112406 0.000000 
-0.240813 -3.049188 0.000000 
0.465656 -2.450793 0.000000 
-0.474415 -2.530246 0.000000 
0.297635 -2.979046 0.000000 
0.097878 -2.092618 0.000000 
-0.379733 -2.272714 0.000000 
0.055398 -3.170455 0.000000 
0.335748 -2.215070 0.000000 
-0.436376 -2.772829 0.000000 
0.451550 -2.706733 0.000000 
-0.128491 -2.099514 0.000000 
-0.328133 -2.972122 0.000000 
0.475926 -2.530044 0.000000 
-0.461765 -2.444251 0.000000 
0.260847 -3.029630 0.000000 
0.173993 -2.118472 0.000000 
-0.349120 -2.236190 0.000000 
-0.057975 -3.156920 0.000000 
0.366158 -2.249423 0.000000 
-0.452360 -2.696352 0.000000 
0.436257 -2.753442 0.000000 
-0.211674 -2.135228 0.000000 
-0.162054 -3.118825 0.000000 
0.437915 -2.371270 0.000000 
-0.474029 -2.574263 0.000000 
0.352508 -2.953026 0.000000 
0.014928 -2.083973 0.000000 
-0.429496 -2.352943 0.000000 
0.107493 -3.156762 0.000000 
0.299886 -2.187094 0.000000 
-0.419927 -2.874588 0.000000 
0.463446 -2.663559 0.000000 
-0.082410 -2.114813 0.000000 
0.367283 -2.295425 0.000000 
0.044001 -2.109865 0.000000 
0.217826 -2.994767 0.000000 
-0.173937 -3.018550 0.000000 
-0.390871 -2.810326 0.000000 
0.398432 -2.768765 0.000000 
-0.307696 -2.231711 0.000000 
-0.389025 -2.331931 0.000000 
0.425290 -2.411779 0.000000 
0.137394 -2.131276 0.000000 
0.126347 -3.048041 0.000000 
-0.267304 -2.946191 0.000000 
-0.417512 -2.715648 0.000000 
0.444249 -2.623293 0.000000 
0.345016 -2.873138 0.000000 
-0.007755 -3.041095 0.000000 
-0.228123 -2.171298 0.000000 
-0.445367 -2.481957 0.000000 
-0.446161 -2.607431 0.000000 
0.253380 -2.186000 0.000000 
0.447600 -2.500984 0.000000 
-0.082454 -2.171138 0.000000 
-0.132900 -2.215453 0.000000 
-0.194049 -2.211449 0.000000 
-0.113509 -2.274380 0.000000 
-0.225696 -2.266241 0.000000 
-0.172639 -2.302751 0.000000 
-0.057068 -2.288385 0.000000 
-0.280558 -2.276967 0.000000 
-0.040832 -2.344320 0.000000 
-0.017217 -2.246617 0.000000 
-0.298082 -2.335057 0.000000 
-0.350917 -2.366413 0.000000 
-0.352731 -2.432272 0.000000 
-0.256134 -2.373271 0.000000 
-0.393233 -2.481616 0.000000 
-0.371836 -2.539013 0.000000 
-0.286323 -2.430035 0.000000 
-0.396625 -2.594375 0.000000 
-0.362642 -2.637226 0.000000 
-0.315443 -2.538084 0.000000 
-0.372807 -2.690694 0.000000 
-0.326932 -2.721434 0.000000 
-0.310329 -2.598646 0.000000 
-0.324935 -2.780232 0.000000 
-0.265099 -2.803670 0.000000 
-0.276172 -2.697469 0.000000 
-0.241816 -2.868252 0.000000 
-0.176553 -2.869246 0.000000 
-0.236166 -2.741758 0.000000 
-0.137684 -2.926097 0.000000 
-0.073796 -2.902233 0.000000 
-0.147627 -2.811153 0.000000 
-0.015949 -2.936652 0.000000 
0.040531 -2.903992 0.000000 
-0.084676 -2.831222 0.000000 
0.098716 -2.938688 0.000000 
0.137963 -2.887632 0.000000 
0.030280 -2.840821 0.000000 
0.199974 -2.900339 0.000000 
0.231811 -2.834685 0.000000 
0.093890 -2.829220 0.000000 
0.289213 -2.817859 0.000000 
0.303166 -2.752969 0.000000 
0.195646 -2.780057 0.000000 
0.354300 -2.725596 0.000000 
0.352216 -2.669523 0.000000 
0.240916 -2.735450 0.000000 
0.391763 -2.623277 0.000000 
0.372516 -2.568057 0.000000 
0.298539 -2.650245 0.000000 
0.396942 -2.516552 0.000000 
0.361819 -2.471862 0.000000 
0.310755 -2.591509 0.000000 
0.372633 -2.417619 0.000000 
0.324867 -2.377865 0.000000 
0.305428 -2.484677 0.000000 
0.318750 -2.317551 0.000000 
0.259505 -2.290181 0.000000 
0.281362 -2.423569 0.000000 
0.231338 -2.233324 0.000000 
0.168362 -2.227718 0.000000 
0.217698 -2.331792 0.000000 
0.129892 -2.181913 0.000000 
0.074933 -2.192030 0.000000 
0.029970 -2.157470 0.000000 
-0.023319 -2.188076 0.000000 
0.164971 -2.294367 0.000000 
0.045503 -2.246399 0.000000 
-0.185640 -2.351608 0.000000 
-0.268989 -2.479854 0.000000 
-0.037575 -2.804885 0.000000 
0.237967 -2.690530 0.000000 
0.279931 -2.552612 0.000000 
0.119463 -2.783465 0.000000 
0.233261 -2.405072 0.000000 
-0.269228 -2.628572 0.000000 
-0.183648 -2.745331 0.000000 
-0.080923 -2.385903 0.000000 
0.015456 -2.358941 0.000000 
-0.142442 -2.388222 0.000000 
-0.171090 -2.445663 0.000000 
-0.216259 -2.484126 0.000000 
-0.206273 -2.545138 0.000000 
-0.129542 -2.482264 0.000000 
-0.220120 -2.602121 0.000000 
-0.148563 -2.537198 0.000000 
-0.175488 -2.644748 0.000000 
-0.076675 -2.449071 0.000000 
-0.156528 -2.699560 0.000000 
-0.126339 -2.617134 0.000000 
-0.074599 -2.641105 0.000000 
-0.113157 -2.566099 0.000000 
-0.051691 -2.549765 0.000000 
-0.031132 -2.600154 0.000000 
-0.034196 -2.488049 0.000000 
0.031568 -2.415381 0.000000 
0.061669 -2.302278 0.000000 
-0.089068 -2.696672 0.000000 
0.009719 -2.472654 0.000000 
0.052380 -2.519275 0.000000 
0.054768 -2.572146 0.000000 
0.098714 -2.491164 0.000000 
0.012581 -2.612858 0.000000 
0.030033 -2.667052 0.000000 
0.019959 -2.717227 0.000000 
0.080655 -2.741925 0.000000 
0.085492 -2.667333 0.000000 
0.120789 -2.703670 0.000000 
0.182291 -2.678489 0.000000 
0.100457 -2.612853 0.000000 
0.166211 -2.500722 0.000000 
0.088146 -2.434216 0.000000 
0.163572 -2.615169 0.000000 
0.190994 -2.443617 0.000000 
0.131636 -2.401807 0.000000 
0.121341 -2.325934 0.000000 
-0.039712 -2.732905 0.000000 
0.199150 -2.559317 0.000000 
VECTORS X_EC float 
-0.768776 0.903025 0.000000 
-0.382726 0.543822 0.000000 
-0.179649 0.171318 0.000000 
-0.008454 0.982071 0.000000 
-0.248183 0.946404 0.000000 
-0.477324 -0.743417 0.000000 
0.910214 -0.458873 0.000000 
-0.208874 0.964511 0.000000 
0.217614 0.515694 0.000000 
0.096901 0.698395 0.000000 
0.271995 0.026785 0.000000 
0.123381 -0.917296 0.000000 
0.626334 0.986501 0.000000 
-0.104373 -0.661377 0.000000 
0.162768 -0.131691 0.000000 
-0.984232 0.860304 0.000000 
0.347477 0.950783 0.000000 
-0.468445 0.151429 0.000000 
0.674495 0.937567 0.000000 
0.761679 -0.232866 0.000000 
-0.090829 -0.514473 0.000000 
-0.010332 -0.955111 0.000000 
-0.143391 0.996761 0.000000 
-0.812448 0.814146 0.000000 
-0.172838 -0.133041 0.000000 
0.078430 -0.704995 0.000000 
-0.678778 0.992812 0.000000 
-0.159950 -0.876855 0.000000 
-0.672536 -0.092068 0.000000 
-0.572427 0.921027 0.000000 
0.558948 -0.003848 0.000000 
0.015731 0.975680 0.000000 
0.091621 -0.643723 0.000000 
0.411163 -0.765147 0.000000 
0.119212 0.951185 0.000000 
0.080568 0.808464 0.000000 
0.160194 0.161757 0.000000 
0.649946 0.686837 0.000000 
0.900482 0.893156 0.000000 
-0.136690 0.686289 0.000000 
0.304228 0.957028 0.000000 
-0.999241 -0.419371 0.000000 
-0.200488 0.163922 0.000000 
-0.089643 0.757057 0.000000 
-0.450600 -0.901244 0.000000 
0.551449 0.302833 0.000000 
0.706660 -0.934230 0.000000 
-0.452174 0.965116 0.000000 
0.144528 0.997078 0.000000 
-0.394192 -0.264494 0.000000 
0.343790 -0.541570 0.000000 
-0.948691 -0.121927 0.000000 
-0.406502 0.546208 0.000000 
0.164735 -0.921474 0.000000 
0.084043 -0.791493 0.000000 
0.184510 0.990440 0.000000 
0.782027 0.641275 0.000000 
-0.216584 -0.895680 0.000000 
0.038341 0.488623 0.000000 
0.699894 0.154252 0.000000 
-0.895255 0.999530 0.000000 
0.520819 -0.524681 0.000000 
-0.030889 -0.453619 0.000000 
-0.025592 0.382872 0.000000 
-0.689203 -0.426664 0.000000 
0.015999 -0.326776 0.000000 
-0.450309 -0.525750 0.000000 
-0.114000 -0.230314 0.000000 
0.293660 -0.257007 0.000000 
-0.243272 0.162533 0.000000 
0.504637 0.108274 0.000000 
0.150926 0.351673 0.000000 
-0.619545 0.255897 0.000000 
0.870384 0.179778 0.000000 
-0.727786 0.628798 0.000000 
-0.885220 -0.022556 0.000000 
0.987215 0.567044 0.000000 
-0.660554 0.776086 0.000000 
-0.648460 -0.784853 0.000000 
0.707557 0.821804 0.000000 
-0.378445 -0.455892 0.000000 
-0.521094 -0.073247 0.000000 
0.908820 -0.799767 0.000000 
-0.355835 0.295830 0.000000 
-0.582387 0.581505 0.000000 
-0.897049 -0.079439 0.000000 
-0.514621 0.937959 0.000000 
-0.820453 -0.857109 0.000000 
-0.931141 0.324309 0.000000 
-0.833768 -0.465119 0.000000 
0.767324 -0.308866 0.000000 
0.841149 0.983125 0.000000 
0.612104 0.121681 0.000000 
0.177018 0.128308 0.000000 
0.574441 -0.721611 0.000000 
-0.082104 0.507316 0.000000 
-0.508026 0.348222 0.000000 
-0.015818 -0.258977 0.000000 
-0.893675 0.577680 0.000000 
0.729793 0.359946 0.000000 
-0.435491 -0.125184 0.000000 
0.341893 0.591251 0.000000 
0.080244 0.250883 0.000000 
0.798132 -0.061194 0.000000 
-0.333157 0.335596 0.000000 
-0.545406 -0.102100 0.000000 
0.374068 -0.138533 0.000000 
-0.928086 -0.214273 0.000000 
0.978894 -0.646872 0.000000 
-0.304310 -0.466286 0.000000 
0.638000 -0.829359 0.000000 
0.651894 0.796823 0.000000 
-0.606110 -0.763664 0.000000 
0.388249 0.488511 0.000000 
0.516560 0.120378 0.000000 
-0.990260 0.668302 0.000000 
0.353721 -0.222986 0.000000 
0.587873 -0.520922 0.000000 
0.928298 0.276725 0.000000 
0.515780 -0.882537 0.000000 
0.834222 0.852436 0.000000 
0.963810 -0.435489 0.000000 
0.875001 0.450341 0.000000 
-0.730031 0.267871 0.000000 
-0.875748 -0.842873 0.000000 
-0.542256 -0.111170 0.000000 
-0.122415 -0.148549 0.000000 
-0.451317 0.545282 0.000000 
0.134055 -0.453910 0.000000 
0.500444 -0.386467 0.000000 
0.800198 -0.616865 0.000000 
-0.844538 -0.412826 0.000000 
-0.099806 0.295781 0.000000 
0.696648 -0.024006 0.000000 
0.237598 0.677385 0.000000 
0.793259 -0.467642 0.000000 
-0.749498 -0.300767 0.000000 
-0.586444 0.936864 0.000000 
-0.866204 0.017412 0.000000 
0.203577 -0.443565 0.000000 
-0.555076 -0.966187 0.000000 
0.794853 0.523813 0.000000 
0.224319 -0.697793 0.000000 
-0.460516 0.906017 0.000000 
0.896963 0.726272 0.000000 
-0.050390 0.921479 0.000000 
0.140600 -0.695580 0.000000 
0.441728 -0.439161 0.000000 
0.375153 -0.032413 0.000000 
-0.136385 -0.451571 0.000000 
0.467467 0.347473 0.000000 
-0.009583 -0.085348 0.000000 
0.169921 0.631656 0.000000 
-0.488835 -0.672857 0.000000 
0.043521 0.997064 0.000000 
-0.157741 0.447557 0.000000 
-0.502673 0.607368 0.000000 
-0.245621 0.107330 0.000000 
-0.655393 -0.001566 0.000000 
-0.792455 0.334360 0.000000 
-0.772026 -0.413007 0.000000 
0.789547 -0.897462 0.000000 
0.588871 0.348518 0.000000 
-0.406214 0.977811 0.000000 
0.935210 -0.515641 0.000000 
0.650800 -0.204831 0.000000 
0.634881 0.147640 0.000000 
0.341907 -0.392243 0.000000 
0.916130 0.419052 0.000000 
0.799780 0.780345 0.000000 
0.866938 -0.885150 0.000000 
0.462301 -0.720503 0.000000 
0.430050 0.782220 0.000000 
0.194742 -0.975535 0.000000 
-0.215272 0.856591 0.000000 
0.330285 0.419020 0.000000 
-0.108073 -0.328517 0.000000 
0.412358 -0.771894 0.000000 
-0.090478 0.434460 0.000000 
-0.273291 -0.709220 0.000000 
0.122427 -0.987955 0.000000 
0.191061 0.506228 0.000000 
-0.735256 -0.780632 0.000000 
-0.327669 0.062116 0.000000 
CELL_DATA 184 
SCALARS MASS float 
LOOKUP_TABLE default 
0.051252 
0.046008 
0.051531 
0.046188 
0.052854 
0.051531 
0.052854 
0.052854 
0.051531 
0.050859 
0.052854 
0.047395 
0.052854 
0.052854 
0.051434 
0.045995 
0.052854 
0.051281 
0.051530 
0.046441 
0.052854 
0.052854 
0.050612 
0.049065 
0.052975 
0.049197 
0.049245 
0.052975 
0.052990 
0.055938 
0.049713 
0.052094 
0.055938 
0.050456 
0.055938 
0.053198 
0.052878 
0.049051 
0.052807 
0.049481 
0.052974 
0.049465 
0.049257 
0.055938 
0.105225 
0.104629 
0.082126 
0.094264 
0.094771 
0.094259 
0.094771 
0.083366 
0.104047 
0.083092 
0.081316 
0.081315 
0.092719 
0.079469 
0.108073 
0.092710 
0.108073 
0.093129 
0.104035 
0.094961 
0.104398 
0.081316 
0.125285 
0.099128 
0.098320 
0.087841 
0.082650 
0.097481 
0.086914 
0.081921 
0.086680 
0.086680 
0.081485 
0.107769 
0.088711 
0.084874 
0.107874 
0.082612 
0.095190 
0.095229 
0.083942 
0.085089 
0.079923 
0.081132 
0.095301 
0.097917 
0.090576 
0.085268 
0.095896 
0.081062 
0.095454 
0.090083 
0.081027 
0.085251 
0.101961 
0.083022 
0.095445 
0.080604 
0.081018 
0.085240 
0.097826 
0.090495 
0.095435 
0.095845 
0.081023 
0.085241 
0.090072 
0.081024 
0.095436 
0.101966 
0.083028 
0.085242 
0.080610 
0.081024 
0.095437 
0.082345 
0.082694 
0.085242 
0.109264 
0.089885 
0.095437 
0.108636 
0.083028 
0.085242 
0.080610 
0.074817 
0.073569 
0.082490 
0.095437 
0.095617 
0.133784 
0.138292 
0.139667 
0.139695 
0.139694 
0.139689 
0.139693 
0.140105 
0.139774 
0.086622 
0.086622 
0.089038 
0.077179 
0.079159 
0.072465 
0.084345 
0.092656 
0.093083 
0.084037 
0.098826 
0.101847 
0.085968 
0.086444 
0.074619 
0.064825 
0.094138 
0.124406 
0.086607 
0.131576 
0.102571 
0.084703 
0.076503 
0.084191 
0.084191 
0.086793 
0.075696 
0.084714 
0.090949 
0.084009 
0.076569 
0.086383 
0.098391 
0.110757 
0.093222 
0.143196 
0.101090 
0.091038 
0.150913 
0.178131 
0.206980 
SCALARS MASS float 
LOOKUP_TABLE default 
0.051252 
0.046008 
0.051531 
0.046188 
0.052854 
0.051531 
0.052854 
0.052854 
0.051531 
0.050859 
0.052854 
0.047395 
0.052854 
0.052854 
0.051434 
0.045995 
0.052854 
0.051281 
0.051530 
0.046441 
0.052854 
0.052854 
0.050612 
0.049065 
0.052975 
0.049197 
0.049245 
0.052975 
0.052990 
0.055938 
0.049713 
0.052094 
0.055938 
0.050456 
0.055938 
0.053198 
0.052878 
0.049051 
0.052807 
0.049481 
0.052974 
0.049465 
0.049257 
0.055938 
0.105225 
0.104629 
0.082126 
0.094264 
0.094771 
0.094259 
0.094771 
0.083366 
0.104047 
0.083092 
0.081316 
0.081315 
0.092719 
0.079469 
0.108073 
0.092710 
0.108073 
0.093129 
0.104035 
0.094961 
0.104398 
0.081316 
0.125285 
0.099128 
0.098320 
0.087841 
0.082650 
0.097481 
0.086914 
0.081921 
0.086680 
0.086680 
0.081485 
0.107769 
0.088711 
0.084874 
0.107874 
0.082612 
0.095190 
0.095229 
0.083942 
0.085089 
0.079923 
0.081132 
0.095301 
0.097917 
0.090576 
0.085268 
0.095896 
0.081062 
0.095454 
0.090083 
0.081027 
0.085251 
0.101961 
0.083022 
0.095445 
0.080604 
0.081018 
0.085240 
0.097826 
0.090495 
0.095435 
0.095845 
0.081023 
0.085241 
0.090072 
0.081024 
0.095436 
0.101966 
0.083028 
0.085242 
0.080610 
0.081024 
0.095437 
0.082345 
0.082694 
0.085242 
0.109264 
0.089885 
0.095437 
0.108636 
0.083028 
0.085242 
0.080610 
0.074817 
0.073569 
0.082490 
0.095437 
0.095617 
0.133784 
0.138292 
0.139667 
0.139695 
0.139694 
0.139689 
0.139693 
0.140105 
0.139774 
0.086622 
0.086622 
0.089038 
0.077179 
0.079159 
0.072465 
0.084345 
0.092656 
0.093083 
0.084037 
0.098826 
0.101847 
0.085968 
0.086444 
0.074619 
0.064825 
0.094138 
0.124406 
0.086607 
0.131576 
0.102571 
0.084703 
0.076503 
0.084191 
0.084191 
0.086793 
0.075696 
0.084714 
0.090949 
0.084009 
0.076569 
0.086383 
0.098391 
0.110757 
0.093222 
0.143196 
0.101090 
0.091038 
0.150913 
0.178131 
0.206980 
SCALARS DENSITY float 
LOOKUP_TABLE default 
21.565857 
83103169344517824.000000 
57.091071 
37.643862 
178040287656803288807817263346599198469929070065470535806194509256036327970025706482120633963385978880.000000 
19.694096 
14.591303 
3047740991764339983954630956405830462815243985078532757767748486037710968060947952238093146259456.000000 
27.621595 
239.785470 
8236397772287356.000000 
23.007172 
28012764995783664794738599612963868034838245444069627539450580295793770496.000000 
22.486754 
187.442073 
985712943916488377655225490244683453032354323969867776.000000 
26.336516 
21.096527 
206101881269402478454827519962102274124714040417638704036372878773840631228292127951816639640398464964045379496860263941487954743001088.000000 
9.801654 
44683893.832525 
83.352631 
21.612668 
74033867858128159113216.000000 
64.604662 
2621.647232 
7975027140265152596022917223189107443705010249399915376499141356657049600.000000 
31.115898 
9.911382 
52145739423552925510004581073104909622250010154880486619984919826701863596538182280693445965081983598247018496.000000 
10.996541 
193.926233 
17185842.658411 
37.254828 
2218010550485985237411869133974527892291046975186377749116383162906003001959506579030016.000000 
33.099643 
325.701514 
1404186545524419243058135040.000000 
22.017580 
31.800824 
18891942811786193591922255116994006767087643107536461279208554152938467428948901087442200295582159376501192531980576670375464183521234386944.000000 
1937.888616 
67941073434225.148438 
77.788579 
23.853738 
25.921599 
19.780738 
92554624254756892859281324385111842172255024253508917112860573696.000000 
96194107034383968799503135396112787418571866569328015217340186624.000000 
15115916975.931152 
150931882.759756 
13.993795 
35.792883 
40.264500 
35.798281 
13450347216241667902560488534056987374443757412932512655884862791898375940654005464059609088.000000 
7601583656932758146072660585914100569974032002187264.000000 
150.393493 
36.806756 
15693804604594157780992.000000 
19896730695264350010485944043693764847222953404518046075941514919218558391885520867885580288.000000 
8.549969 
5.287078 
89.032312 
13.747945 
12.538970 
9.007592 
18.085959 
17.113198 
33.483529 
28.475818 
37.504334 
33.018479 
35.613383 
23.215529 
27.589442 
41.388714 
42.802099 
57.427090 
40.776455 
15.372209 
140.634059 
45.953265 
36.939051 
44.818991 
69.626952 
59.657705 
50.522709 
6.571971 
8939378.378054 
40571945241278992.000000 
28.222025 
91078917401935053989185310425088.000000 
133614655894780177690608964074471424.000000 
20157.072641 
854331599635538892302261427787308629753856000.000000 
25783951658189049969506426309030101123072.000000 
47082341807140691968.000000 
6635984533845731321247878214711260977722807839358976.000000 
16890167220684447087475494423964761772622086144.000000 
3442367787146673504911360.000000 
1633100572950400767478209592656757304873812153594797883392.000000 
4408270410273078263108817486193920835584.000000 
8440182512229635962597015552.000000 
406302597949594664960211709761834405175754752.000000 
495803572926701532839149568.000000 
18628127509975070926700544.000000 
753378101332343652352.000000 
4149151.572190 
24952736592631.847656 
168.377614 
46.183568 
3794.059556 
25.741862 
31.186012 
29.806943 
48.122260 
9.486465 
8.064917 
35.540309 
29.616020 
54.126726 
30.289676 
33.069276 
33.600417 
16.659257 
16.899492 
28.538752 
11.319199 
16.102359 
11.055311 
14.247028 
31.550786 
26.251564 
32.740989 
36.971460 
472914364291197239296.000000 
32.488398 
19.975301 
5916617785148883.000000 
33.614032 
23.773290 
38171.015118 
36.592492 
28.078461 
38.275585 
24.789130 
33.169663 
14.473512 
23.837273 
16.890615 
9.091818 
71.070737 
24.922686 
27.870504 
74.966040 
169.583021 
16.841099 
8.248574 
126.793670 
9.045918 
37.919467 
29.749293 
28.647361 
37.445861 
2.309198 
36.209332 
14.563388 
281.856617 
86.073419 
53.734443 
132642.063003 
70.891230 
29.062724 
40.580002 
102.515916 
11.236008 
73.858174 
49.615632 
28.986025 
35.024165 
26.075979 
2331.996539 
18.268491 
SCALARS ELEM_i float 
LOOKUP_TABLE default 
203 
220 
161 
222 
180 
182 
202 
200 
162 
221 
160 
202 
200 
161 
221 
180 
183 
222 
180 
162 
220 
160 
203 
220 
161 
221 
180 
182 
222 
200 
162 
221 
160 
202 
200 
162 
221 
160 
183 
222 
180 
182 
220 
161 
202 
162 
182 
180 
200 
220 
160 
222 
222 
161 
182 
180 
200 
220 
161 
160 
200 
202 
221 
221 
182 
161 
202 
202 
202 
202 
202 
202 
202 
202 
202 
202 
202 
222 
221 
202 
221 
221 
201 
221 
221 
221 
221 
220 
221 
220 
200 
201 
200 
200 
200 
200 
200 
200 
200 
180 
200 
180 
180 
180 
180 
180 
180 
180 
160 
180 
160 
161 
180 
161 
161 
181 
161 
161 
161 
161 
162 
161 
162 
182 
181 
182 
182 
182 
182 
182 
182 
202 
182 
182 
202 
201 
200 
181 
181 
180 
181 
201 
200 
202 
182 
202 
201 
201 
201 
201 
201 
201 
201 
201 
201 
201 
201 
201 
201 
201 
201 
181 
182 
201 
181 
181 
181 
181 
181 
181 
180 
180 
181 
180 
181 
181 
181 
181 
181 
181 
181 
182 
200 
181 
VECTORS VELOCITY float 
-1.042938 -1.577931 0.000000 
-1.979454 -57.053155 0.000000 
0.259649 0.571556 0.000000 
0.028850 -2.149477 0.000000 
1.198994 -149.720451 0.000000 
1.385563 -1.694038 0.000000 
-0.098236 -0.970660 0.000000 
-2.095797 -173.555859 0.000000 
-0.379806 0.095241 0.000000 
0.251559 3.233300 0.000000 
0.701254 -27.736402 0.000000 
0.510977 -0.534507 0.000000 
1.048427 -116.017522 0.000000 
0.408867 -1.544284 0.000000 
0.076537 -0.299063 0.000000 
-1.671152 -77.662752 0.000000 
0.545853 -0.242996 0.000000 
0.157812 -1.074416 0.000000 
1.744661 -188.894152 0.000000 
0.661654 0.183249 0.000000 
0.082773 -2.031868 0.000000 
0.903495 3.019439 0.000000 
-2.051304 -1.134690 0.000000 
0.099695 -75.293612 0.000000 
0.207527 -0.011331 0.000000 
0.053580 -3.055492 0.000000 
-1.111617 -105.424424 0.000000 
-1.000540 -1.320218 0.000000 
-0.078728 -0.773387 0.000000 
-1.567214 -179.278982 0.000000 
0.035183 0.577520 0.000000 
0.090666 4.539880 0.000000 
0.393128 -1.376236 0.000000 
0.463307 -1.954774 0.000000 
-1.465562 -155.801940 0.000000 
-0.233710 -0.606918 0.000000 
0.509890 0.712929 0.000000 
1.436219 -67.635036 0.000000 
0.126433 -1.019162 0.000000 
0.062177 -1.693218 0.000000 
2.418568 -179.623983 0.000000 
1.003948 -0.949518 0.000000 
-1.207983 -32.823348 0.000000 
0.773245 2.114317 0.000000 
0.150578 0.023402 0.000000 
-0.154957 0.034078 0.000000 
-0.460508 0.200081 0.000000 
-1.069372 -83.644679 0.000000 
0.764930 -95.891713 0.000000 
-0.147304 -9.026855 0.000000 
0.120546 -2.364995 0.000000 
-0.421732 -0.592795 0.000000 
0.040172 -1.190823 0.000000 
-0.103523 -1.345208 0.000000 
0.202936 -0.872592 0.000000 
0.350333 -112.725598 0.000000 
1.714706 -58.089496 0.000000 
-0.057670 5.160990 0.000000 
0.515437 1.621759 0.000000 
0.516185 -29.396918 0.000000 
0.045515 -106.909059 0.000000 
-0.085972 -0.725440 0.000000 
-0.685655 -1.167675 0.000000 
0.283100 1.816048 0.000000 
0.516055 -0.957219 0.000000 
0.464044 -0.232501 0.000000 
-0.184241 0.003833 0.000000 
-0.143751 -0.438485 0.000000 
-0.154829 -0.543449 0.000000 
-0.002896 -0.642363 0.000000 
-0.016737 -0.633292 0.000000 
0.032116 -0.610061 0.000000 
0.023593 -0.673269 0.000000 
0.001304 -0.629919 0.000000 
0.141507 -0.749710 0.000000 
-0.079641 -0.554872 0.000000 
-0.046771 -0.316230 0.000000 
-0.126397 -0.686805 0.000000 
-0.092243 -1.024273 0.000000 
-0.040489 -0.259288 0.000000 
-0.460709 -1.003407 0.000000 
-0.061895 -0.318158 0.000000 
-0.001887 -0.299673 0.000000 
0.038746 1.384137 0.000000 
-0.129959 2.839837 0.000000 
-0.213927 -0.424218 0.000000 
-0.107385 4.685015 0.000000 
-0.290721 6.019767 0.000000 
-0.414830 1.574650 0.000000 
-0.118538 1.605425 0.000000 
0.106869 -1.192736 0.000000 
-0.007120 5.565762 0.000000 
0.670959 -21.073502 0.000000 
0.504458 -19.896209 0.000000 
-0.074517 7.214334 0.000000 
0.820602 -42.807616 0.000000 
0.360661 -29.502928 0.000000 
0.065484 -2.115263 0.000000 
0.155391 -42.730391 0.000000 
-0.176663 -28.532032 0.000000 
0.078080 -6.305467 0.000000 
-0.470739 -47.122843 0.000000 
-0.525321 -25.858209 0.000000 
-0.075729 -7.695123 0.000000 
-0.834292 -33.364572 0.000000 