# vtk DataFile Version 3.0 
vtk output 
ASCII 
DATASET UNSTRUCTURED_GRID 
POINTS 175 float 
-0.027110 -2.591133 0.000000 
-0.113539 -2.527164 0.000000 
-0.056312 -2.537950 0.000000 
-0.029898 -2.495224 0.000000 
-0.198929 -2.462244 0.000000 
-0.146268 -2.467911 0.000000 
-0.121969 -2.418165 0.000000 
-0.063485 -2.434942 0.000000 
-0.031689 -2.396171 0.000000 
-0.277695 -2.397678 0.000000 
-0.226824 -2.403988 0.000000 
-0.202565 -2.350654 0.000000 
-0.148777 -2.360509 0.000000 
-0.119399 -2.316150 0.000000 
-0.061669 -2.336212 0.000000 
-0.030013 -2.299715 0.000000 
-0.356467 -2.326560 0.000000 
-0.306525 -2.333401 0.000000 
-0.283617 -2.277376 0.000000 
-0.229459 -2.290478 0.000000 
-0.203230 -2.238476 0.000000 
-0.146801 -2.254809 0.000000 
-0.117962 -2.211701 0.000000 
-0.059207 -2.236457 0.000000 
-0.029583 -2.200024 0.000000 
-0.066558 -2.624581 0.000000 
-0.188867 -2.636775 0.000000 
-0.139503 -2.608389 0.000000 
-0.157258 -2.564316 0.000000 
-0.304851 -2.645246 0.000000 
-0.263498 -2.619353 0.000000 
-0.289389 -2.569908 0.000000 
-0.233454 -2.543629 0.000000 
-0.243147 -2.500426 0.000000 
-0.425294 -2.650693 0.000000 
-0.379898 -2.624998 0.000000 
-0.407747 -2.576765 0.000000 
-0.357800 -2.550730 0.000000 
-0.373014 -2.504278 0.000000 
-0.313988 -2.479865 0.000000 
-0.320798 -2.436384 0.000000 
-0.545336 -2.638398 0.000000 
-0.502476 -2.618031 0.000000 
-0.534295 -2.562186 0.000000 
-0.481868 -2.543479 0.000000 
-0.499009 -2.492021 0.000000 
-0.442401 -2.476232 0.000000 
-0.453531 -2.426834 0.000000 
-0.392213 -2.412441 0.000000 
-0.398041 -2.366127 0.000000 
-0.057783 -2.668263 0.000000 
-0.118951 -2.744984 0.000000 
-0.121155 -2.701067 0.000000 
-0.178448 -2.683872 0.000000 
-0.185233 -2.807727 0.000000 
-0.189410 -2.770928 0.000000 
-0.263321 -2.756557 0.000000 
-0.246933 -2.712917 0.000000 
-0.299759 -2.692599 0.000000 
-0.259236 -2.865701 0.000000 
-0.263883 -2.833864 0.000000 
-0.339538 -2.825318 0.000000 
-0.336429 -2.788149 0.000000 
-0.398340 -2.770950 0.000000 
-0.377544 -2.722561 0.000000 
-0.425131 -2.700353 0.000000 
-0.379367 -3.010602 0.000000 
-0.341402 -2.902196 0.000000 
-0.440532 -2.905280 0.000000 
-0.417623 -2.849633 0.000000 
-0.487028 -2.828555 0.000000 
-0.462084 -2.792319 0.000000 
-0.528298 -2.759454 0.000000 
-0.499814 -2.719133 0.000000 
-0.546616 -2.686790 0.000000 
0.000000 -2.687411 0.000000 
0.053580 -2.765299 0.000000 
-0.000000 -2.743513 0.000000 
-0.053580 -2.765299 0.000000 
0.117826 -2.826780 0.000000 
0.056407 -2.811765 0.000000 
-0.000000 -2.837820 0.000000 
-0.056407 -2.811765 0.000000 
-0.117826 -2.826780 0.000000 
0.189500 -2.889281 0.000000 
0.126701 -2.869823 0.000000 
0.073459 -2.912446 0.000000 
-0.000000 -2.880535 0.000000 
-0.073459 -2.912446 0.000000 
-0.126701 -2.869823 0.000000 
-0.189500 -2.889281 0.000000 
0.285903 -3.078070 0.000000 
0.202365 -2.976243 0.000000 
0.182370 -3.124715 0.000000 
0.092934 -2.999117 0.000000 
-0.000000 -3.187876 0.000000 
-0.092934 -2.999117 0.000000 
-0.182370 -3.124715 0.000000 
-0.202365 -2.976243 0.000000 
-0.285903 -3.078070 0.000000 
0.057783 -2.668263 0.000000 
0.178448 -2.683872 0.000000 
0.121155 -2.701067 0.000000 
0.118951 -2.744984 0.000000 
0.299759 -2.692599 0.000000 
0.246933 -2.712917 0.000000 
0.263321 -2.756557 0.000000 
0.189410 -2.770928 0.000000 
0.185233 -2.807727 0.000000 
0.425131 -2.700353 0.000000 
0.377544 -2.722561 0.000000 
0.398340 -2.770950 0.000000 
0.336429 -2.788149 0.000000 
0.339538 -2.825318 0.000000 
0.263883 -2.833864 0.000000 
0.259236 -2.865701 0.000000 
0.546616 -2.686790 0.000000 
0.499814 -2.719133 0.000000 
0.528298 -2.759454 0.000000 
0.462084 -2.792319 0.000000 
0.487028 -2.828555 0.000000 
0.417623 -2.849633 0.000000 
0.440532 -2.905280 0.000000 
0.341402 -2.902196 0.000000 
0.379367 -3.010602 0.000000 
0.066558 -2.624581 0.000000 
0.157258 -2.564316 0.000000 
0.139503 -2.608389 0.000000 
0.188867 -2.636775 0.000000 
0.243147 -2.500426 0.000000 
0.233454 -2.543629 0.000000 
0.289389 -2.569908 0.000000 
0.263498 -2.619353 0.000000 
0.304851 -2.645246 0.000000 
0.320798 -2.436384 0.000000 
0.313988 -2.479865 0.000000 
0.373014 -2.504278 0.000000 
0.357800 -2.550730 0.000000 
0.407747 -2.576765 0.000000 
0.379898 -2.624998 0.000000 
0.425294 -2.650693 0.000000 
0.398041 -2.366127 0.000000 
0.392213 -2.412441 0.000000 
0.453531 -2.426834 0.000000 
0.442401 -2.476232 0.000000 
0.499009 -2.492021 0.000000 
0.481868 -2.543479 0.000000 
0.534295 -2.562186 0.000000 
0.502476 -2.618031 0.000000 
0.545336 -2.638398 0.000000 
0.027110 -2.591133 0.000000 
0.029898 -2.495224 0.000000 
0.056312 -2.537950 0.000000 
0.113539 -2.527164 0.000000 
0.031689 -2.396171 0.000000 
0.063485 -2.434942 0.000000 
0.121969 -2.418165 0.000000 
0.146268 -2.467911 0.000000 
0.198929 -2.462244 0.000000 
0.030013 -2.299715 0.000000 
0.061669 -2.336212 0.000000 
0.119399 -2.316150 0.000000 
0.148777 -2.360509 0.000000 
0.202565 -2.350654 0.000000 
0.226824 -2.403988 0.000000 
0.277695 -2.397678 0.000000 
0.029583 -2.200024 0.000000 
0.059207 -2.236457 0.000000 
0.117962 -2.211701 0.000000 
0.146801 -2.254809 0.000000 
0.203230 -2.238476 0.000000 
0.229459 -2.290478 0.000000 
0.283617 -2.277376 0.000000 
0.306525 -2.333401 0.000000 
0.356467 -2.326560 0.000000 
CELLS 175 350 
1 0 
1 1 
1 2 
1 3 
1 4 
1 5 
1 6 
1 7 
1 8 
1 9 
1 10 
1 11 
1 12 
1 13 
1 14 
1 15 
1 16 
1 17 
1 18 
1 19 
1 20 
1 21 
1 22 
1 23 
1 24 
1 25 
1 26 
1 27 
1 28 
1 29 
1 30 
1 31 
1 32 
1 33 
1 34 
1 35 
1 36 
1 37 
1 38 
1 39 
1 40 
1 41 
1 42 
1 43 
1 44 
1 45 
1 46 
1 47 
1 48 
1 49 
1 50 
1 51 
1 52 
1 53 
1 54 
1 55 
1 56 
1 57 
1 58 
1 59 
1 60 
1 61 
1 62 
1 63 
1 64 
1 65 
1 66 
1 67 
1 68 
1 69 
1 70 
1 71 
1 72 
1 73 
1 74 
1 75 
1 76 
1 77 
1 78 
1 79 
1 80 
1 81 
1 82 
1 83 
1 84 
1 85 
1 86 
1 87 
1 88 
1 89 
1 90 
1 91 
1 92 
1 93 
1 94 
1 95 
1 96 
1 97 
1 98 
1 99 
1 100 
1 101 
1 102 
1 103 
1 104 
1 105 
1 106 
1 107 
1 108 
1 109 
1 110 
1 111 
1 112 
1 113 
1 114 
1 115 
1 116 
1 117 
1 118 
1 119 
1 120 
1 121 
1 122 
1 123 
1 124 
1 125 
1 126 
1 127 
1 128 
1 129 
1 130 
1 131 
1 132 
1 133 
1 134 
1 135 
1 136 
1 137 
1 138 
1 139 
1 140 
1 141 
1 142 
1 143 
1 144 
1 145 
1 146 
1 147 
1 148 
1 149 
1 150 
1 151 
1 152 
1 153 
1 154 
1 155 
1 156 
1 157 
1 158 
1 159 
1 160 
1 161 
1 162 
1 163 
1 164 
1 165 
1 166 
1 167 
1 168 
1 169 
1 170 
1 171 
1 172 
1 173 
1 174 
CELL_TYPES 175 
1 
1 
1 
1 
1 
1 
1 
1 
1 
1 
1 
1 
1 
1 
1 
1 
1 
1 
1 
1 
1 
1 
1 
1 
1 
1 
1 
1 
1 
1 
1 
1 
1 
1 
1 
1 
1 
1 
1 
1 
1 
1 
1 
1 
1 
1 
1 
1 
1 
1 
1 
1 
1 
1 
1 
1 
1 
1 
1 
1 
1 
1 
1 
1 
1 
1 
1 
1 
1 
1 
1 
1 
1 
1 
1 
1 
1 
1 
1 
1 
1 
1 
1 
1 
1 
1 
1 
1 
1 
1 
1 
1 
1 
1 
1 
1 
1 
1 
1 
1 
1 
1 
1 
1 
1 
1 
1 
1 
1 
1 
1 
1 
1 
1 
1 
1 
1 
1 
1 
1 
1 
1 
1 
1 
1 
1 
1 
1 
1 
1 
1 
1 
1 
1 
1 
1 
1 
1 
1 
1 
1 
1 
1 
1 
1 
1 
1 
1 
1 
1 
1 
1 
1 
1 
1 
1 
1 
1 
1 
1 
1 
1 
1 
1 
1 
1 
1 
1 
1 
1 
1 
1 
1 
1 
1 
POINT_DATA 175 
VECTORS X_GC float 
-0.027110 -2.591133 0.000000 
-0.113539 -2.527164 0.000000 
-0.056312 -2.537950 0.000000 
-0.029898 -2.495224 0.000000 
-0.198929 -2.462244 0.000000 
-0.146268 -2.467911 0.000000 
-0.121969 -2.418165 0.000000 
-0.063485 -2.434942 0.000000 
-0.031689 -2.396171 0.000000 
-0.277695 -2.397678 0.000000 
-0.226824 -2.403988 0.000000 
-0.202565 -2.350654 0.000000 
-0.148777 -2.360509 0.000000 
-0.119399 -2.316150 0.000000 
-0.061669 -2.336212 0.000000 
-0.030013 -2.299715 0.000000 
-0.356467 -2.326560 0.000000 
-0.306525 -2.333401 0.000000 
-0.283617 -2.277376 0.000000 
-0.229459 -2.290478 0.000000 
-0.203230 -2.238476 0.000000 
-0.146801 -2.254809 0.000000 
-0.117962 -2.211701 0.000000 
-0.059207 -2.236457 0.000000 
-0.029583 -2.200024 0.000000 
-0.066558 -2.624581 0.000000 
-0.188867 -2.636775 0.000000 
-0.139503 -2.608389 0.000000 
-0.157258 -2.564316 0.000000 
-0.304851 -2.645246 0.000000 
-0.263498 -2.619353 0.000000 
-0.289389 -2.569908 0.000000 
-0.233454 -2.543629 0.000000 
-0.243147 -2.500426 0.000000 
-0.425294 -2.650693 0.000000 
-0.379898 -2.624998 0.000000 
-0.407747 -2.576765 0.000000 
-0.357800 -2.550730 0.000000 
-0.373014 -2.504278 0.000000 
-0.313988 -2.479865 0.000000 
-0.320798 -2.436384 0.000000 
-0.545336 -2.638398 0.000000 
-0.502476 -2.618031 0.000000 
-0.534295 -2.562186 0.000000 
-0.481868 -2.543479 0.000000 
-0.499009 -2.492021 0.000000 
-0.442401 -2.476232 0.000000 
-0.453531 -2.426834 0.000000 
-0.392213 -2.412441 0.000000 
-0.398041 -2.366127 0.000000 
-0.057783 -2.668263 0.000000 
-0.118951 -2.744984 0.000000 
-0.121155 -2.701067 0.000000 
-0.178448 -2.683872 0.000000 
-0.185233 -2.807727 0.000000 
-0.189410 -2.770928 0.000000 
-0.263321 -2.756557 0.000000 
-0.246933 -2.712917 0.000000 
-0.299759 -2.692599 0.000000 
-0.259236 -2.865701 0.000000 
-0.263883 -2.833864 0.000000 
-0.339538 -2.825318 0.000000 
-0.336429 -2.788149 0.000000 
-0.398340 -2.770950 0.000000 
-0.377544 -2.722561 0.000000 
-0.425131 -2.700353 0.000000 
-0.379367 -3.010602 0.000000 
-0.341402 -2.902196 0.000000 
-0.440532 -2.905280 0.000000 
-0.417623 -2.849633 0.000000 
-0.487028 -2.828555 0.000000 
-0.462084 -2.792319 0.000000 
-0.528298 -2.759454 0.000000 
-0.499814 -2.719133 0.000000 
-0.546616 -2.686790 0.000000 
0.000000 -2.687411 0.000000 
0.053580 -2.765299 0.000000 
-0.000000 -2.743513 0.000000 
-0.053580 -2.765299 0.000000 
0.117826 -2.826780 0.000000 
0.056407 -2.811765 0.000000 
-0.000000 -2.837820 0.000000 
-0.056407 -2.811765 0.000000 
-0.117826 -2.826780 0.000000 
0.189500 -2.889281 0.000000 
0.126701 -2.869823 0.000000 
0.073459 -2.912446 0.000000 
-0.000000 -2.880535 0.000000 
-0.073459 -2.912446 0.000000 
-0.126701 -2.869823 0.000000 
-0.189500 -2.889281 0.000000 
0.285903 -3.078070 0.000000 
0.202365 -2.976243 0.000000 
0.182370 -3.124715 0.000000 
0.092934 -2.999117 0.000000 
-0.000000 -3.187876 0.000000 
-0.092934 -2.999117 0.000000 
-0.182370 -3.124715 0.000000 
-0.202365 -2.976243 0.000000 
-0.285903 -3.078070 0.000000 
0.057783 -2.668263 0.000000 
0.178448 -2.683872 0.000000 
0.121155 -2.701067 0.000000 
0.118951 -2.744984 0.000000 
0.299759 -2.692599 0.000000 
0.246933 -2.712917 0.000000 
0.263321 -2.756557 0.000000 
0.189410 -2.770928 0.000000 
0.185233 -2.807727 0.000000 
0.425131 -2.700353 0.000000 
0.377544 -2.722561 0.000000 
0.398340 -2.770950 0.000000 
0.336429 -2.788149 0.000000 
0.339538 -2.825318 0.000000 
0.263883 -2.833864 0.000000 
0.259236 -2.865701 0.000000 
0.546616 -2.686790 0.000000 
0.499814 -2.719133 0.000000 
0.528298 -2.759454 0.000000 
0.462084 -2.792319 0.000000 
0.487028 -2.828555 0.000000 
0.417623 -2.849633 0.000000 
0.440532 -2.905280 0.000000 
0.341402 -2.902196 0.000000 
0.379367 -3.010602 0.000000 
0.066558 -2.624581 0.000000 
0.157258 -2.564316 0.000000 
0.139503 -2.608389 0.000000 
0.188867 -2.636775 0.000000 
0.243147 -2.500426 0.000000 
0.233454 -2.543629 0.000000 
0.289389 -2.569908 0.000000 
0.263498 -2.619353 0.000000 
0.304851 -2.645246 0.000000 
0.320798 -2.436384 0.000000 
0.313988 -2.479865 0.000000 
0.373014 -2.504278 0.000000 
0.357800 -2.550730 0.000000 
0.407747 -2.576765 0.000000 
0.379898 -2.624998 0.000000 
0.425294 -2.650693 0.000000 
0.398041 -2.366127 0.000000 
0.392213 -2.412441 0.000000 
0.453531 -2.426834 0.000000 
0.442401 -2.476232 0.000000 
0.499009 -2.492021 0.000000 
0.481868 -2.543479 0.000000 
0.534295 -2.562186 0.000000 
0.502476 -2.618031 0.000000 
0.545336 -2.638398 0.000000 
0.027110 -2.591133 0.000000 
0.029898 -2.495224 0.000000 
0.056312 -2.537950 0.000000 
0.113539 -2.527164 0.000000 
0.031689 -2.396171 0.000000 
0.063485 -2.434942 0.000000 
0.121969 -2.418165 0.000000 
0.146268 -2.467911 0.000000 
0.198929 -2.462244 0.000000 
0.030013 -2.299715 0.000000 
0.061669 -2.336212 0.000000 
0.119399 -2.316150 0.000000 
0.148777 -2.360509 0.000000 
0.202565 -2.350654 0.000000 
0.226824 -2.403988 0.000000 
0.277695 -2.397678 0.000000 
0.029583 -2.200024 0.000000 
0.059207 -2.236457 0.000000 
0.117962 -2.211701 0.000000 
0.146801 -2.254809 0.000000 
0.203230 -2.238476 0.000000 
0.229459 -2.290478 0.000000 
0.283617 -2.277376 0.000000 
0.306525 -2.333401 0.000000 
0.356467 -2.326560 0.000000 
VECTORS X_EC float 
0.352431 -0.519708 0.000000 
-0.523990 0.616708 0.000000 
0.732054 0.762323 0.000000 
0.388671 0.185519 0.000000 
0.586081 -0.259704 0.000000 
-0.098514 -0.183198 0.000000 
-0.414400 -0.854775 0.000000 
0.825301 -0.628288 0.000000 
0.411956 0.848307 0.000000 
-0.389966 0.868653 0.000000 
0.948710 0.953836 0.000000 
0.633343 0.233828 0.000000 
-0.065899 0.366867 0.000000 
-0.447807 -0.231976 0.000000 
0.801702 0.038866 0.000000 
0.390169 -0.453853 0.000000 
0.634075 -0.091442 0.000000 
-0.015181 0.000908 0.000000 
-0.312973 -0.755419 0.000000 
0.982970 -0.578548 0.000000 
0.641991 0.719420 0.000000 
-0.091582 0.939923 0.000000 
-0.466497 0.357960 0.000000 
0.769685 0.692167 0.000000 
0.384576 0.200325 0.000000 
0.865257 -0.068154 0.000000 
0.455274 0.096458 0.000000 
-0.186459 -0.286749 0.000000 
0.044348 -0.881734 0.000000 
-0.036939 0.210827 0.000000 
-0.574523 -0.138729 0.000000 
-0.237949 -0.806240 0.000000 
-0.965101 0.838989 0.000000 
-0.839093 0.255756 0.000000 
-0.471173 0.284353 0.000000 
0.938678 -0.062525 0.000000 
-0.699291 -0.713666 0.000000 
0.651400 0.934857 0.000000 
0.849176 0.307752 0.000000 
0.081847 -0.021828 0.000000 
0.170374 -0.608812 0.000000 
-0.910634 0.118368 0.000000 
0.532184 -0.156576 0.000000 
0.945841 -0.910490 0.000000 
0.264287 0.836972 0.000000 
0.487113 0.142282 0.000000 
-0.248791 -0.070863 0.000000 
-0.104103 -0.737743 0.000000 
-0.901237 -0.932044 0.000000 
-0.825461 0.442714 0.000000 
0.751180 0.521552 0.000000 
-0.453633 -0.442722 0.000000 
-0.424981 0.964403 0.000000 
0.319820 0.732268 0.000000 
0.408033 0.404315 0.000000 
0.462327 -0.092475 0.000000 
-0.576833 -0.286482 0.000000 
-0.789868 -0.875622 0.000000 
-0.103139 0.850081 0.000000 
-0.629926 -0.813037 0.000000 
-0.569521 0.757165 0.000000 
0.413999 0.641790 0.000000 
0.373572 0.140016 0.000000 
-0.821581 -0.092173 0.000000 
0.908068 -0.745427 0.000000 
-0.473291 0.954761 0.000000 
0.808930 0.945648 0.000000 
0.438229 -0.320351 0.000000 
-0.273088 -0.278724 0.000000 
-0.570895 0.970048 0.000000 
0.331366 0.685492 0.000000 
0.007087 0.196308 0.000000 
0.867872 -0.247375 0.000000 
0.497585 -0.791709 0.000000 
-0.893987 0.771670 0.000000 
-0.000000 0.780052 0.000000 
-0.696546 -0.168463 0.000000 
0.000000 -0.462577 0.000000 
0.696546 -0.168463 0.000000 
0.468260 0.661525 0.000000 
-0.733287 0.458832 0.000000 
0.000000 0.810564 0.000000 
0.733287 0.458832 0.000000 
-0.468260 0.661525 0.000000 
-0.463506 -0.494703 0.000000 
0.352882 -0.757386 0.000000 
-0.954968 -0.181978 0.000000 
0.000000 -0.612772 0.000000 
0.954968 -0.181978 0.000000 
-0.352882 -0.757386 0.000000 
0.463506 -0.494703 0.000000 
0.704269 0.937207 0.000000 
-0.630751 0.679283 0.000000 
0.412755 0.887080 0.000000 
0.791852 0.988079 0.000000 
0.000000 0.760633 0.000000 
-0.791852 0.988079 0.000000 
-0.412755 0.887080 0.000000 
0.630751 0.679283 0.000000 
-0.704269 0.937207 0.000000 
-0.751180 0.521552 0.000000 
-0.319820 0.732268 0.000000 
0.424981 0.964403 0.000000 
0.453633 -0.442722 0.000000 
0.103139 0.850081 0.000000 
0.789868 -0.875622 0.000000 
0.576833 -0.286482 0.000000 
-0.462327 -0.092475 0.000000 
-0.408033 0.404315 0.000000 
0.473291 0.954761 0.000000 
-0.908068 -0.745427 0.000000 
0.821581 -0.092173 0.000000 
-0.373572 0.140016 0.000000 
-0.413999 0.641791 0.000000 
0.569521 0.757165 0.000000 
0.629926 -0.813037 0.000000 
0.893987 0.771670 0.000000 
-0.497585 -0.791709 0.000000 
-0.867872 -0.247375 0.000000 
-0.007087 0.196308 0.000000 
-0.331366 0.685492 0.000000 
0.570895 0.970048 0.000000 
0.273088 -0.278724 0.000000 
-0.438229 -0.320351 0.000000 
-0.808930 0.945648 0.000000 
-0.865257 -0.068154 0.000000 
-0.044348 -0.881734 0.000000 
0.186459 -0.286749 0.000000 
-0.455274 0.096458 0.000000 
0.839093 0.255756 0.000000 
0.965101 0.838989 0.000000 
0.237949 -0.806240 0.000000 
0.574523 -0.138729 0.000000 
0.036939 0.210827 0.000000 
-0.170374 -0.608812 0.000000 
-0.081847 -0.021828 0.000000 
-0.849176 0.307752 0.000000 
-0.651400 0.934857 0.000000 
0.699291 -0.713666 0.000000 
-0.938678 -0.062525 0.000000 
0.471173 0.284353 0.000000 
0.825461 0.442714 0.000000 
0.901237 -0.932044 0.000000 
0.104103 -0.737743 0.000000 
0.248791 -0.070863 0.000000 
-0.487113 0.142282 0.000000 
-0.264287 0.836972 0.000000 
-0.945841 -0.910490 0.000000 
-0.532184 -0.156576 0.000000 
0.910634 0.118368 0.000000 
-0.352431 -0.519708 0.000000 
-0.388671 0.185519 0.000000 
-0.732054 0.762323 0.000000 
0.523990 0.616708 0.000000 
-0.411956 0.848307 0.000000 
-0.825301 -0.628288 0.000000 
0.414400 -0.854775 0.000000 
0.098514 -0.183198 0.000000 
-0.586081 -0.259704 0.000000 
-0.390169 -0.453853 0.000000 
-0.801702 0.038866 0.000000 
0.447807 -0.231976 0.000000 
0.065899 0.366867 0.000000 
-0.633343 0.233828 0.000000 
-0.948710 0.953836 0.000000 
0.389966 0.868653 0.000000 
-0.384576 0.200325 0.000000 
-0.769685 0.692167 0.000000 
0.466497 0.357960 0.000000 
0.091582 0.939923 0.000000 
-0.641991 0.719420 0.000000 
-0.982970 -0.578548 0.000000 
0.312973 -0.755419 0.000000 
0.015181 0.000908 0.000000 
-0.634075 -0.091442 0.000000 
CELL_DATA 175 
SCALARS MASS float 
LOOKUP_TABLE default 
0.781831 
0.864274 
0.946717 
0.864274 
0.881307 
0.921110 
0.858535 
0.921110 
0.881307 
0.887046 
0.910001 
0.869829 
0.915556 
0.869829 
0.910001 
0.887046 
0.892784 
0.915740 
0.892784 
0.927218 
0.892784 
0.927218 
0.892784 
0.915740 
0.892784 
0.781831 
0.864274 
0.946717 
0.864274 
0.881307 
0.921110 
0.858535 
0.921110 
0.881307 
0.887046 
0.910001 
0.869829 
0.915556 
0.869829 
0.910001 
0.887046 
0.892784 
0.915740 
0.892784 
0.927218 
0.892784 
0.927218 
0.892784 
0.915740 
0.892784 
0.781831 
0.864274 
0.946717 
0.864274 
0.881307 
0.921110 
0.858535 
0.921110 
0.881307 
0.887046 
0.910001 
0.869829 
0.915556 
0.869829 
0.910001 
0.887046 
0.892784 
0.915740 
0.892784 
0.927218 
0.892784 
0.927218 
0.892784 
0.915740 
0.892784 
0.781831 
0.864274 
0.946717 
0.864274 
0.881307 
0.921110 
0.858535 
0.921110 
0.881307 
0.887046 
0.910001 
0.869829 
0.915556 
0.869829 
0.910001 
0.887046 
0.892784 
0.915740 
0.892784 
0.927218 
0.892784 
0.927218 
0.892784 
0.915740 
0.892784 
0.781831 
0.864274 
0.946717 
0.864274 
0.881307 
0.921110 
0.858535 
0.921110 
0.881307 
0.887046 
0.910001 
0.869829 
0.915556 
0.869829 
0.910001 
0.887046 
0.892784 
0.915740 
0.892784 
0.927218 
0.892784 
0.927218 
0.892784 
0.915740 
0.892784 
0.781831 
0.864274 
0.946717 
0.864274 
0.881307 
0.921110 
0.858535 
0.921110 
0.881307 
0.887046 
0.910001 
0.869829 
0.915556 
0.869829 
0.910001 
0.887046 
0.892784 
0.915740 
0.892784 
0.927218 
0.892784 
0.927218 
0.892784 
0.915740 
0.892784 
0.781831 
0.864274 
0.946717 
0.864274 
0.881307 
0.921110 
0.858535 
0.921110 
0.881307 
0.887046 
0.910001 
0.869829 
0.915556 
0.869829 
0.910001 
0.887046 
0.892784 
0.915740 
0.892784 
0.927218 
0.892784 
0.927218 
0.892784 
0.915740 
0.892784 
SCALARS MASS float 
LOOKUP_TABLE default 
0.781831 
0.864274 
0.946717 
0.864274 
0.881307 
0.921110 
0.858535 
0.921110 
0.881307 
0.887046 
0.910001 
0.869829 
0.915556 
0.869829 
0.910001 
0.887046 
0.892784 
0.915740 
0.892784 
0.927218 
0.892784 
0.927218 
0.892784 
0.915740 
0.892784 
0.781831 
0.864274 
0.946717 
0.864274 
0.881307 
0.921110 
0.858535 
0.921110 
0.881307 
0.887046 
0.910001 
0.869829 
0.915556 
0.869829 
0.910001 
0.887046 
0.892784 
0.915740 
0.892784 
0.927218 
0.892784 
0.927218 
0.892784 
0.915740 
0.892784 
0.781831 
0.864274 
0.946717 
0.864274 
0.881307 
0.921110 
0.858535 
0.921110 
0.881307 
0.887046 
0.910001 
0.869829 
0.915556 
0.869829 
0.910001 
0.887046 
0.892784 
0.915740 
0.892784 
0.927218 
0.892784 
0.927218 
0.892784 
0.915740 
0.892784 
0.781831 
0.864274 
0.946717 
0.864274 
0.881307 
0.921110 
0.858535 
0.921110 
0.881307 
0.887046 
0.910001 
0.869829 
0.915556 
0.869829 
0.910001 
0.887046 
0.892784 
0.915740 
0.892784 
0.927218 
0.892784 
0.927218 
0.892784 
0.915740 
0.892784 
0.781831 
0.864274 
0.946717 
0.864274 
0.881307 
0.921110 
0.858535 
0.921110 
0.881307 
0.887046 
0.910001 
0.869829 
0.915556 
0.869829 
0.910001 
0.887046 
0.892784 
0.915740 
0.892784 
0.927218 
0.892784 
0.927218 
0.892784 
0.915740 
0.892784 
0.781831 
0.864274 
0.946717 
0.864274 
0.881307 
0.921110 
0.858535 
0.921110 
0.881307 
0.887046 
0.910001 
0.869829 
0.915556 
0.869829 
0.910001 
0.887046 
0.892784 
0.915740 
0.892784 
0.927218 
0.892784 
0.927218 
0.892784 
0.915740 
0.892784 
0.781831 
0.864274 
0.946717 
0.864274 
0.881307 
0.921110 
0.858535 
0.921110 
0.881307 
0.887046 
0.910001 
0.869829 
0.915556 
0.869829 
0.910001 
0.887046 
0.892784 
0.915740 
0.892784 
0.927218 
0.892784 
0.927218 
0.892784 
0.915740 
0.892784 
SCALARS DENSITY float 
LOOKUP_TABLE default 
197.652186 
223.040236 
200.671709 
228.444428 
196.724441 
203.210398 
195.716560 
212.158199 
200.520795 
194.656461 
192.848525 
208.558223 
201.513714 
206.451083 
204.496609 
199.512462 
209.404137 
207.755488 
206.468012 
206.696381 
201.343825 
201.474369 
199.050325 
197.241052 
203.405267 
181.182862 
250.478608 
218.684041 
214.413302 
232.856630 
248.538991 
195.306857 
224.694273 
201.266891 
243.284663 
189.999765 
203.972845 
209.534029 
211.772702 
208.966723 
205.873171 
214.586946 
257.880213 
220.704845 
213.153489 
219.732949 
208.440623 
201.846022 
209.911370 
203.326087 
244.745572 
202.264284 
216.876391 
185.903147 
302.430813 
194.302402 
197.292097 
204.692236 
210.714017 
269.776796 
329.653007 
207.078559 
352.843646 
208.663946 
184.148083 
231.378299 
73541.624434 
306.567062 
511.792899 
154.722430 
287.013576 
269.042958 
218.616787 
245.763688 
195.843478 
286.275271 
245.670964 
345.889598 
245.670966 
301.073620 
146.247921 
286.969977 
146.247918 
301.073614 
452.776359 
390.779378 
989.549662 
498.252798 
989.549657 
390.779370 
452.776354 
5546.701195 
10362.536856 
292439511.955389 
5745.825308 
95563.610743 
5745.825764 
292439594.768940 
10362.537558 
5546.702286 
244.745574 
185.903148 
216.876394 
202.264281 
210.714018 
204.692234 
197.292098 
194.302401 
302.430811 
231.378300 
184.148083 
208.663945 
352.843641 
207.078558 
329.653003 
269.776795 
195.843478 
245.763687 
218.616783 
269.042958 
287.013584 
154.722429 
511.792906 
306.567063 
73541.618088 
181.182863 
214.413302 
218.684042 
250.478607 
201.266891 
224.694273 
195.306857 
248.538991 
232.856631 
205.873171 
208.966723 
211.772702 
209.534029 
203.972845 
189.999763 
243.284663 
203.326088 
209.911370 
201.846022 
208.440623 
219.732948 
213.153489 
220.704845 
257.880217 
214.586947 
197.652187 
228.444428 
200.671709 
223.040236 
200.520795 
212.158199 
195.716560 
203.210398 
196.724441 
199.512462 
204.496609 
206.451083 
201.513714 
208.558223 
192.848525 
194.656461 
203.405267 
197.241052 
199.050325 
201.474369 
201.343825 
206.696381 
206.468012 
207.755488 
209.404137 
SCALARS ELEM_i float 
LOOKUP_TABLE default 
164 
192 
165 
165 
192 
192 
192 
165 
166 
220 
193 
193 
193 
193 
166 
166 
220 
220 
220 
193 
194 
194 
194 
167 
167 
164 
191 
191 
191 
218 
218 
218 
219 
219 
245 
218 
245 
219 
219 
219 
219 
272 
245 
245 
246 
246 
246 
246 
246 
247 
164 
190 
191 
191 
190 
190 
217 
217 
218 
216 
217 
217 
217 
244 
217 
245 
216 
216 
243 
244 
244 
244 
244 
244 
272 
164 
163 
163 
163 
136 
163 
163 
163 
190 
135 
135 
162 
162 
162 
189 
189 
108 
135 
135 
135 
162 
189 
189 
189 
216 
164 
137 
137 
136 
110 
109 
109 
136 
136 
83 
109 
82 
109 
109 
109 
108 
56 
82 
82 
82 
82 
82 
81 
108 
108 
164 
137 
137 
137 
111 
111 
110 
110 
110 
111 
111 
111 
111 
83 
110 
83 
85 
84 
84 
84 
84 
84 
83 
83 
56 
164 
165 
165 
138 
166 
165 
138 
138 
138 
166 
166 
139 
139 
139 
139 
112 
167 
167 
140 
140 
140 
139 
112 
112 
112 
VECTORS VELOCITY float 
0.832611 -6.009898 0.000000 
0.666385 -5.646565 0.000000 
1.199052 -6.493513 0.000000 
0.155108 -6.192348 0.000000 
-0.785511 -4.624194 0.000000 
-0.818136 -5.088035 0.000000 
-1.386758 -4.966493 0.000000 
-1.492694 -4.902114 0.000000 
-0.642172 -4.953058 0.000000 
-0.504107 -4.946741 0.000000 
-0.201163 -5.547537 0.000000 
-0.082273 -5.880384 0.000000 
-0.618843 -5.629524 0.000000 
-0.090618 -5.837848 0.000000 
-0.565994 -5.629431 0.000000 
0.078806 -6.061475 0.000000 
-0.961848 -2.999989 0.000000 
-0.497838 -4.223216 0.000000 
-0.221057 -3.873601 0.000000 
0.243820 -5.320003 0.000000 
0.274729 -4.647366 0.000000 
0.329145 -5.406146 0.000000 
0.243117 -5.441978 0.000000 
0.249321 -6.021367 0.000000 
0.078167 -6.193557 0.000000 
-0.029697 -4.307344 0.000000 
-2.422033 -4.384077 0.000000 
-0.645312 -4.285117 0.000000 
-0.307693 -4.592811 0.000000 
-1.928203 -3.288685 0.000000 
-2.582323 -4.154078 0.000000 
-2.610452 -2.974484 0.000000 
-2.169400 -2.977212 0.000000 
-1.732018 -3.349694 0.000000 
-2.505167 -2.751199 0.000000 
-1.590122 -2.599399 0.000000 
-2.065210 -3.282516 0.000000 
-2.100977 -3.624384 0.000000 
-1.916268 -4.155517 0.000000 
-1.593932 -4.071197 0.000000 
-0.983576 -4.473473 0.000000 
-3.193630 0.673559 0.000000 
-3.240854 -0.468182 0.000000 
-4.428693 1.603863 0.000000 
-2.975146 -0.295301 0.000000 
-2.133497 1.058483 0.000000 
-1.592923 -2.220226 0.000000 
-0.828546 -0.842432 0.000000 
-1.331048 -3.794008 0.000000 
-0.685772 -2.744006 0.000000 
-2.204391 -3.654489 0.000000 
-2.933115 -4.202095 0.000000 
-3.381688 -3.666160 0.000000 
-2.668988 -3.780574 0.000000 
-2.085074 -2.072826 0.000000 
-1.965544 -2.559103 0.000000 
-2.935446 -1.912096 0.000000 
-1.932231 -3.604947 0.000000 
-2.150829 -2.659766 0.000000 
-3.533782 0.797730 0.000000 
-3.839084 -1.505188 0.000000 
-4.393451 -1.101170 0.000000 
-5.006249 -3.705508 0.000000 
-5.095667 -2.534242 0.000000 
-2.795643 -2.261686 0.000000 
-3.036092 -2.538084 0.000000 
-3.043516 -52.775083 0.000000 
-1.749103 -1.342295 0.000000 
-5.890816 -8.340664 0.000000 
-4.448681 1.684964 0.000000 
-3.959116 1.337259 0.000000 
-1.424975 -1.341574 0.000000 
-5.455109 1.678098 0.000000 
-2.858005 -1.258194 0.000000 
-3.759027 1.204419 0.000000 
0.000000 -3.407795 0.000000 
0.853245 -3.360453 0.000000 
0.000000 -4.228990 0.000000 
-0.853244 -3.360453 0.000000 
0.705925 1.130847 0.000000 
-0.486202 0.970873 0.000000 
0.000000 2.358846 0.000000 
0.486202 0.970873 0.000000 
-0.705925 1.130847 0.000000 
2.151527 0.296417 0.000000 
0.678760 4.757233 0.000000 
0.185164 -2.225101 0.000000 
0.000000 5.267035 0.000000 
-0.185164 -2.225101 0.000000 
-0.678760 4.757234 0.000000 
-2.151527 0.296417 0.000000 
-1.045739 -88.335115 0.000000 
1.297969 -26.539138 0.000000 
5.509056 -112.093872 0.000000 
1.979440 -34.778662 0.000000 
-0.000000 -146.847402 0.000000 
-1.979441 -34.778662 0.000000 
-5.509055 -112.093871 0.000000 
-1.297969 -26.539137 0.000000 
1.045739 -88.335115 0.000000 
2.204391 -3.654489 0.000000 
2.668988 -3.780574 0.000000 
3.381688 -3.666160 0.000000 
2.933115 -4.202095 0.000000 
2.150829 -2.659766 0.000000 
1.932231 -3.604947 0.000000 
2.935446 -1.912096 0.000000 
1.965544 -2.559103 0.000000 
2.085074 -2.072826 0.000000 
3.036092 -2.538084 0.000000 
2.795643 -2.261686 0.000000 
5.095667 -2.534242 0.000000 
5.006249 -3.705508 0.000000 
4.393451 -1.101170 0.000000 
3.839084 -1.505188 0.000000 
3.533782 0.797730 0.000000 
3.759027 1.204418 0.000000 
2.858005 -1.258194 0.000000 
5.455109 1.678098 0.000000 
1.424975 -1.341574 0.000000 
3.959116 1.337259 0.000000 
4.448681 1.684964 0.000000 
5.890816 -8.340664 0.000000 
1.749103 -1.342295 0.000000 
3.043516 -52.775083 0.000000 
0.029697 -4.307344 0.000000 
0.307693 -4.592811 0.000000 
0.645312 -4.285117 0.000000 
2.422033 -4.384077 0.000000 
1.732018 -3.349694 0.000000 
2.169400 -2.977212 0.000000 
2.610452 -2.974484 0.000000 
2.582323 -4.154078 0.000000 
1.928203 -3.288685 0.000000 
0.983576 -4.473473 0.000000 
1.593932 -4.071197 0.000000 
1.916268 -4.155517 0.000000 
2.100977 -3.624384 0.000000 
2.065210 -3.282516 0.000000 
1.590122 -2.599399 0.000000 
2.505167 -2.751199 0.000000 
0.685772 -2.744006 0.000000 
1.331048 -3.794008 0.000000 
0.828546 -0.842432 0.000000 
1.592923 -2.220226 0.000000 
2.133497 1.058483 0.000000 
2.975146 -0.295301 0.000000 
4.428694 1.603863 0.000000 
3.240854 -0.468182 0.000000 
3.193630 0.673559 0.000000 
-0.832611 -6.009898 0.000000 
-0.155108 -6.192348 0.000000 
-1.199052 -6.493513 0.000000 
-0.666384 -5.646565 0.000000 
0.642172 -4.953058 0.000000 
1.492694 -4.902114 0.000000 
1.386758 -4.966493 0.000000 
0.818136 -5.088035 0.000000 
0.785511 -4.624194 0.000000 
-0.078806 -6.061475 0.000000 
0.565994 -5.629431 0.000000 
0.090618 -5.837848 0.000000 
0.618843 -5.629524 0.000000 
0.082273 -5.880384 0.000000 
0.201163 -5.547537 0.000000 
0.504107 -4.946741 0.000000 
-0.078167 -6.193557 0.000000 
-0.249321 -6.021367 0.000000 
-0.243117 -5.441978 0.000000 
-0.329145 -5.406146 0.000000 
-0.274729 -4.647366 0.000000 
-0.243820 -5.320003 0.000000 
0.221057 -3.873601 0.000000 
0.497838 -4.223216 0.000000 
0.961848 -2.999989 0.000000 
TENSORS STRESS float 
-6.600131 6.934165 0.000000 
0.000000 -61.491119 0.000000 
0.000000 0.000000 0.000000 

8.934247 -0.499173 0.000000 
0.000000 -36.591743 0.000000 
0.000000 0.000000 0.000000 

-57.279910 7.557958 0.000000 
0.000000 -107.022372 0.000000 
0.000000 0.000000 0.000000 

-101.513514 3.361431 0.000000 
0.000000 -135.364332 0.000000 
0.000000 0.000000 0.000000 

19.859093 2.918580 0.000000 
0.000000 -21.260531 0.000000 
0.000000 0.000000 0.000000 

14.054497 -2.387450 0.000000 
0.000000 -28.985175 0.000000 
0.000000 0.000000 0.000000 

46.311873 -7.751114 0.000000 
0.000000 20.561062 0.000000 
0.000000 0.000000 0.000000 

-14.004195 -0.804750 0.000000 
0.000000 -38.718020 0.000000 
0.000000 0.000000 0.000000 

36.743410 1.556023 0.000000 
0.000000 18.774997 0.000000 
0.000000 0.000000 0.000000 

3.397425 -10.633523 0.000000 
0.000000 -26.616331 0.000000 
0.000000 0.000000 0.000000 

9.369943 3.558938 0.000000 