# vtk DataFile Version 3.0 
vtk output 
ASCII 
DATASET UNSTRUCTURED_GRID 
POINTS 175 float 
-0.026061 -1.424251 0.000000 
-0.106992 -1.356195 0.000000 
-0.054870 -1.364428 0.000000 
-0.028809 -1.318544 0.000000 
-0.186430 -1.292120 0.000000 
-0.137056 -1.294646 0.000000 
-0.114311 -1.240999 0.000000 
-0.058186 -1.256664 0.000000 
-0.029377 -1.216487 0.000000 
-0.265318 -1.228964 0.000000 
-0.217198 -1.229764 0.000000 
-0.196633 -1.172467 0.000000 
-0.143120 -1.181176 0.000000 
-0.116563 -1.133907 0.000000 
-0.058945 -1.153553 0.000000 
-0.029568 -1.115433 0.000000 
-0.344206 -1.165808 0.000000 
-0.296791 -1.165801 0.000000 
-0.278030 -1.105858 0.000000 
-0.225992 -1.111725 0.000000 
-0.201664 -1.059607 0.000000 
-0.145749 -1.073081 0.000000 
-0.117890 -1.028739 0.000000 
-0.059328 -1.051445 0.000000 
-0.029759 -1.014379 0.000000 
-0.058559 -1.465001 0.000000 
-0.162226 -1.485844 0.000000 
-0.123292 -1.450226 0.000000 
-0.142917 -1.401243 0.000000 
-0.261851 -1.508000 0.000000 
-0.229092 -1.470973 0.000000 
-0.256854 -1.419742 0.000000 
-0.209613 -1.385629 0.000000 
-0.223062 -1.338055 0.000000 
-0.360414 -1.530301 0.000000 
-0.329787 -1.493178 0.000000 
-0.361761 -1.441376 0.000000 
-0.321587 -1.404967 0.000000 
-0.341985 -1.354733 0.000000 
-0.290702 -1.321934 0.000000 
-0.302189 -1.275199 0.000000 
-0.458977 -1.552601 0.000000 
-0.429420 -1.515526 0.000000 
-0.464588 -1.463484 0.000000 
-0.427556 -1.426457 0.000000 
-0.453135 -1.374942 0.000000 
-0.407738 -1.339627 0.000000 
-0.425037 -1.290199 0.000000 
-0.370772 -1.258569 0.000000 
-0.381315 -1.212342 0.000000 
-0.046960 -1.515817 0.000000 
-0.095301 -1.609863 0.000000 
-0.098873 -1.557215 0.000000 
-0.149405 -1.542018 0.000000 
-0.140093 -1.701567 0.000000 
-0.148617 -1.652868 0.000000 
-0.205981 -1.642631 0.000000 
-0.203197 -1.584428 0.000000 
-0.248777 -1.565281 0.000000 
-0.184111 -1.792530 0.000000 
-0.194039 -1.745439 0.000000 
-0.254475 -1.738140 0.000000 
-0.257893 -1.684030 0.000000 
-0.309886 -1.668657 0.000000 
-0.303554 -1.608112 0.000000 
-0.347255 -1.587954 0.000000 
-0.228129 -1.883494 0.000000 
-0.238687 -1.837269 0.000000 
-0.301302 -1.832317 0.000000 
-0.307162 -1.780279 0.000000 
-0.363386 -1.768158 0.000000 
-0.362692 -1.710646 0.000000 
-0.412122 -1.693353 0.000000 
-0.403017 -1.631206 0.000000 
-0.445733 -1.610627 0.000000 
-0.000000 -1.538432 0.000000 
0.043388 -1.634862 0.000000 
-0.000000 -1.604830 0.000000 
-0.043388 -1.634862 0.000000 
0.087158 -1.727059 0.000000 
0.043769 -1.703360 0.000000 
-0.000000 -1.741826 0.000000 
-0.043769 -1.703360 0.000000 
-0.087158 -1.727059 0.000000 
0.130831 -1.818188 0.000000 
0.087824 -1.796590 0.000000 
0.044436 -1.839289 0.000000 
-0.000000 -1.808224 0.000000 
-0.044436 -1.839289 0.000000 
-0.087824 -1.796590 0.000000 
-0.130831 -1.818188 0.000000 
0.174505 -1.909318 0.000000 
0.131782 -1.888752 0.000000 
0.088871 -1.934619 0.000000 
0.044532 -1.906755 0.000000 
-0.000000 -1.943155 0.000000 
-0.044532 -1.906755 0.000000 
-0.088871 -1.934619 0.000000 
-0.131782 -1.888752 0.000000 
-0.174505 -1.909318 0.000000 
0.046960 -1.515817 0.000000 
0.149405 -1.542018 0.000000 
0.098873 -1.557215 0.000000 
0.095301 -1.609863 0.000000 
0.248777 -1.565281 0.000000 
0.203197 -1.584428 0.000000 
0.205981 -1.642631 0.000000 
0.148617 -1.652868 0.000000 
0.140093 -1.701567 0.000000 
0.347255 -1.587954 0.000000 
0.303554 -1.608112 0.000000 
0.309886 -1.668657 0.000000 
0.257893 -1.684030 0.000000 
0.254475 -1.738140 0.000000 
0.194039 -1.745439 0.000000 
0.184111 -1.792530 0.000000 
0.445733 -1.610627 0.000000 
0.403017 -1.631206 0.000000 
0.412122 -1.693353 0.000000 
0.362692 -1.710646 0.000000 
0.363386 -1.768158 0.000000 
0.307162 -1.780279 0.000000 
0.301302 -1.832317 0.000000 
0.238687 -1.837269 0.000000 
0.228129 -1.883494 0.000000 
0.058559 -1.465001 0.000000 
0.142917 -1.401243 0.000000 
0.123292 -1.450226 0.000000 
0.162226 -1.485844 0.000000 
0.223062 -1.338055 0.000000 
0.209613 -1.385629 0.000000 
0.256854 -1.419742 0.000000 
0.229092 -1.470973 0.000000 
0.261851 -1.508000 0.000000 
0.302189 -1.275199 0.000000 
0.290702 -1.321934 0.000000 
0.341985 -1.354733 0.000000 
0.321587 -1.404967 0.000000 
0.361761 -1.441376 0.000000 
0.329787 -1.493178 0.000000 
0.360414 -1.530301 0.000000 
0.381315 -1.212342 0.000000 
0.370772 -1.258569 0.000000 
0.425037 -1.290199 0.000000 
0.407738 -1.339627 0.000000 
0.453135 -1.374942 0.000000 
0.427556 -1.426457 0.000000 
0.464588 -1.463484 0.000000 
0.429420 -1.515526 0.000000 
0.458977 -1.552601 0.000000 
0.026061 -1.424251 0.000000 
0.028809 -1.318544 0.000000 
0.054870 -1.364428 0.000000 
0.106992 -1.356195 0.000000 
0.029377 -1.216487 0.000000 
0.058186 -1.256664 0.000000 
0.114311 -1.240999 0.000000 
0.137056 -1.294646 0.000000 
0.186430 -1.292120 0.000000 
0.029568 -1.115433 0.000000 
0.058945 -1.153553 0.000000 
0.116563 -1.133907 0.000000 
0.143120 -1.181176 0.000000 
0.196633 -1.172467 0.000000 
0.217198 -1.229764 0.000000 
0.265318 -1.228964 0.000000 
0.029759 -1.014379 0.000000 
0.059328 -1.051445 0.000000 
0.117890 -1.028739 0.000000 
0.145749 -1.073081 0.000000 
0.201664 -1.059607 0.000000 
0.225992 -1.111725 0.000000 
0.278030 -1.105858 0.000000 
0.296791 -1.165801 0.000000 
0.344206 -1.165808 0.000000 
CELLS 175 350 
1 0 
1 1 
1 2 
1 3 
1 4 
1 5 
1 6 
1 7 
1 8 
1 9 
1 10 
1 11 
1 12 
1 13 
1 14 
1 15 
1 16 
1 17 
1 18 
1 19 
1 20 
1 21 
1 22 
1 23 
1 24 
1 25 
1 26 
1 27 
1 28 
1 29 
1 30 
1 31 
1 32 
1 33 
1 34 
1 35 
1 36 
1 37 
1 38 
1 39 
1 40 
1 41 
1 42 
1 43 
1 44 
1 45 
1 46 
1 47 
1 48 
1 49 
1 50 
1 51 
1 52 
1 53 
1 54 
1 55 
1 56 
1 57 
1 58 
1 59 
1 60 
1 61 
1 62 
1 63 
1 64 
1 65 
1 66 
1 67 
1 68 
1 69 
1 70 
1 71 
1 72 
1 73 
1 74 
1 75 
1 76 
1 77 
1 78 
1 79 
1 80 
1 81 
1 82 
1 83 
1 84 
1 85 
1 86 
1 87 
1 88 
1 89 
1 90 
1 91 
1 92 
1 93 
1 94 
1 95 
1 96 
1 97 
1 98 
1 99 
1 100 
1 101 
1 102 
1 103 
1 104 
1 105 
1 106 
1 107 
1 108 
1 109 
1 110 
1 111 
1 112 
1 113 
1 114 
1 115 
1 116 
1 117 
1 118 
1 119 
1 120 
1 121 
1 122 
1 123 
1 124 
1 125 
1 126 
1 127 
1 128 
1 129 
1 130 
1 131 
1 132 
1 133 
1 134 
1 135 
1 136 
1 137 
1 138 
1 139 
1 140 
1 141 
1 142 
1 143 
1 144 
1 145 
1 146 
1 147 
1 148 
1 149 
1 150 
1 151 
1 152 
1 153 
1 154 
1 155 
1 156 
1 157 
1 158 
1 159 
1 160 
1 161 
1 162 
1 163 
1 164 
1 165 
1 166 
1 167 
1 168 
1 169 
1 170 
1 171 
1 172 
1 173 
1 174 
CELL_TYPES 175 
1 
1 
1 
1 
1 
1 
1 
1 
1 
1 
1 
1 
1 
1 
1 
1 
1 
1 
1 
1 
1 
1 
1 
1 
1 
1 
1 
1 
1 
1 
1 
1 
1 
1 
1 
1 
1 
1 
1 
1 
1 
1 
1 
1 
1 
1 
1 
1 
1 
1 
1 
1 
1 
1 
1 
1 
1 
1 
1 
1 
1 
1 
1 
1 
1 
1 
1 
1 
1 
1 
1 
1 
1 
1 
1 
1 
1 
1 
1 
1 
1 
1 
1 
1 
1 
1 
1 
1 
1 
1 
1 
1 
1 
1 
1 
1 
1 
1 
1 
1 
1 
1 
1 
1 
1 
1 
1 
1 
1 
1 
1 
1 
1 
1 
1 
1 
1 
1 
1 
1 
1 
1 
1 
1 
1 
1 
1 
1 
1 
1 
1 
1 
1 
1 
1 
1 
1 
1 
1 
1 
1 
1 
1 
1 
1 
1 
1 
1 
1 
1 
1 
1 
1 
1 
1 
1 
1 
1 
1 
1 
1 
1 
1 
1 
1 
1 
1 
1 
1 
1 
1 
1 
1 
1 
1 
POINT_DATA 175 
VECTORS X_GC float 
-0.026061 -1.424251 0.000000 
-0.106992 -1.356195 0.000000 
-0.054870 -1.364428 0.000000 
-0.028809 -1.318544 0.000000 
-0.186430 -1.292120 0.000000 
-0.137056 -1.294646 0.000000 
-0.114311 -1.240999 0.000000 
-0.058186 -1.256664 0.000000 
-0.029377 -1.216487 0.000000 
-0.265318 -1.228964 0.000000 
-0.217198 -1.229764 0.000000 
-0.196633 -1.172467 0.000000 
-0.143120 -1.181176 0.000000 
-0.116563 -1.133907 0.000000 
-0.058945 -1.153553 0.000000 
-0.029568 -1.115433 0.000000 
-0.344206 -1.165808 0.000000 
-0.296791 -1.165801 0.000000 
-0.278030 -1.105858 0.000000 
-0.225992 -1.111725 0.000000 
-0.201664 -1.059607 0.000000 
-0.145749 -1.073081 0.000000 
-0.117890 -1.028739 0.000000 
-0.059328 -1.051445 0.000000 
-0.029759 -1.014379 0.000000 
-0.058559 -1.465001 0.000000 
-0.162226 -1.485844 0.000000 
-0.123292 -1.450226 0.000000 
-0.142917 -1.401243 0.000000 
-0.261851 -1.508000 0.000000 
-0.229092 -1.470973 0.000000 
-0.256854 -1.419742 0.000000 
-0.209613 -1.385629 0.000000 
-0.223062 -1.338055 0.000000 
-0.360414 -1.530301 0.000000 
-0.329787 -1.493178 0.000000 
-0.361761 -1.441376 0.000000 
-0.321587 -1.404967 0.000000 
-0.341985 -1.354733 0.000000 
-0.290702 -1.321934 0.000000 
-0.302189 -1.275199 0.000000 
-0.458977 -1.552601 0.000000 
-0.429420 -1.515526 0.000000 
-0.464588 -1.463484 0.000000 
-0.427556 -1.426457 0.000000 
-0.453135 -1.374942 0.000000 
-0.407738 -1.339627 0.000000 
-0.425037 -1.290199 0.000000 
-0.370772 -1.258569 0.000000 
-0.381315 -1.212342 0.000000 
-0.046960 -1.515817 0.000000 
-0.095301 -1.609863 0.000000 
-0.098873 -1.557215 0.000000 
-0.149405 -1.542018 0.000000 
-0.140093 -1.701567 0.000000 
-0.148617 -1.652868 0.000000 
-0.205981 -1.642631 0.000000 
-0.203197 -1.584428 0.000000 
-0.248777 -1.565281 0.000000 
-0.184111 -1.792530 0.000000 
-0.194039 -1.745439 0.000000 
-0.254475 -1.738140 0.000000 
-0.257893 -1.684030 0.000000 
-0.309886 -1.668657 0.000000 
-0.303554 -1.608112 0.000000 
-0.347255 -1.587954 0.000000 
-0.228129 -1.883494 0.000000 
-0.238687 -1.837269 0.000000 
-0.301302 -1.832317 0.000000 
-0.307162 -1.780279 0.000000 
-0.363386 -1.768158 0.000000 
-0.362692 -1.710646 0.000000 
-0.412122 -1.693353 0.000000 
-0.403017 -1.631206 0.000000 
-0.445733 -1.610627 0.000000 
-0.000000 -1.538432 0.000000 
0.043388 -1.634862 0.000000 
-0.000000 -1.604830 0.000000 
-0.043388 -1.634862 0.000000 
0.087158 -1.727059 0.000000 
0.043769 -1.703360 0.000000 
-0.000000 -1.741826 0.000000 
-0.043769 -1.703360 0.000000 
-0.087158 -1.727059 0.000000 
0.130831 -1.818188 0.000000 
0.087824 -1.796590 0.000000 
0.044436 -1.839289 0.000000 
-0.000000 -1.808224 0.000000 
-0.044436 -1.839289 0.000000 
-0.087824 -1.796590 0.000000 
-0.130831 -1.818188 0.000000 
0.174505 -1.909318 0.000000 
0.131782 -1.888752 0.000000 
0.088871 -1.934619 0.000000 
0.044532 -1.906755 0.000000 
-0.000000 -1.943155 0.000000 
-0.044532 -1.906755 0.000000 
-0.088871 -1.934619 0.000000 
-0.131782 -1.888752 0.000000 
-0.174505 -1.909318 0.000000 
0.046960 -1.515817 0.000000 
0.149405 -1.542018 0.000000 
0.098873 -1.557215 0.000000 
0.095301 -1.609863 0.000000 
0.248777 -1.565281 0.000000 
0.203197 -1.584428 0.000000 
0.205981 -1.642631 0.000000 
0.148617 -1.652868 0.000000 
0.140093 -1.701567 0.000000 
0.347255 -1.587954 0.000000 
0.303554 -1.608112 0.000000 
0.309886 -1.668657 0.000000 
0.257893 -1.684030 0.000000 
0.254475 -1.738140 0.000000 
0.194039 -1.745439 0.000000 
0.184111 -1.792530 0.000000 
0.445733 -1.610627 0.000000 
0.403017 -1.631206 0.000000 
0.412122 -1.693353 0.000000 
0.362692 -1.710646 0.000000 
0.363386 -1.768158 0.000000 
0.307162 -1.780279 0.000000 
0.301302 -1.832317 0.000000 
0.238687 -1.837269 0.000000 
0.228129 -1.883494 0.000000 
0.058559 -1.465001 0.000000 
0.142917 -1.401243 0.000000 
0.123292 -1.450226 0.000000 
0.162226 -1.485844 0.000000 
0.223062 -1.338055 0.000000 
0.209613 -1.385629 0.000000 
0.256854 -1.419742 0.000000 
0.229092 -1.470973 0.000000 
0.261851 -1.508000 0.000000 
0.302189 -1.275199 0.000000 
0.290702 -1.321934 0.000000 
0.341985 -1.354733 0.000000 
0.321587 -1.404967 0.000000 
0.361761 -1.441376 0.000000 
0.329787 -1.493178 0.000000 
0.360414 -1.530301 0.000000 
0.381315 -1.212342 0.000000 
0.370772 -1.258569 0.000000 
0.425037 -1.290199 0.000000 
0.407738 -1.339627 0.000000 
0.453135 -1.374942 0.000000 
0.427556 -1.426457 0.000000 
0.464588 -1.463484 0.000000 
0.429420 -1.515526 0.000000 
0.458977 -1.552601 0.000000 
0.026061 -1.424251 0.000000 
0.028809 -1.318544 0.000000 
0.054870 -1.364428 0.000000 
0.106992 -1.356195 0.000000 
0.029377 -1.216487 0.000000 
0.058186 -1.256664 0.000000 
0.114311 -1.240999 0.000000 
0.137056 -1.294646 0.000000 
0.186430 -1.292120 0.000000 
0.029568 -1.115433 0.000000 
0.058945 -1.153553 0.000000 
0.116563 -1.133907 0.000000 
0.143120 -1.181176 0.000000 
0.196633 -1.172467 0.000000 
0.217198 -1.229764 0.000000 
0.265318 -1.228964 0.000000 
0.029759 -1.014379 0.000000 
0.059328 -1.051445 0.000000 
0.117890 -1.028739 0.000000 
0.145749 -1.073081 0.000000 
0.201664 -1.059607 0.000000 
0.225992 -1.111725 0.000000 
0.278030 -1.105858 0.000000 
0.296791 -1.165801 0.000000 
0.344206 -1.165808 0.000000 
VECTORS X_EC float 
0.338794 -0.272616 0.000000 
-0.609100 0.808636 0.000000 
0.713312 0.919776 0.000000 
0.374519 0.300347 0.000000 
0.423588 -0.056384 0.000000 
-0.218274 -0.022280 0.000000 
-0.513962 -0.746519 0.000000 
0.756418 -0.535033 0.000000 
0.381900 0.922575 0.000000 
-0.550868 -0.908987 0.000000 
0.823577 -0.898191 0.000000 
0.556234 0.328305 0.000000 
-0.139443 0.445873 0.000000 
-0.484677 -0.192251 0.000000 
0.766286 0.072964 0.000000 
0.384386 -0.441656 0.000000 
0.474677 0.238410 0.000000 
-0.141715 0.238314 0.000000 
-0.385608 -0.570914 0.000000 
0.937896 -0.491719 0.000000 
0.621631 0.804701 0.000000 
-0.105264 0.986600 0.000000 
-0.467428 0.387974 0.000000 
0.771260 0.694502 0.000000 
0.386873 0.194113 0.000000 
0.761262 0.277518 0.000000 
0.108942 0.558895 0.000000 
-0.397202 0.078056 0.000000 
-0.142083 -0.583219 0.000000 
-0.595936 0.858006 0.000000 
0.978194 0.358140 0.000000 
-0.660903 -0.333485 0.000000 
0.724964 -0.794005 0.000000 
0.899809 0.563746 0.000000 
0.685384 -0.840942 0.000000 
0.287229 0.657900 0.000000 
0.702895 -0.041429 0.000000 
0.180633 -0.532948 0.000000 
0.445811 0.788893 0.000000 
-0.220880 0.346107 0.000000 
-0.071546 -0.284819 0.000000 
-0.033296 -0.539890 0.000000 
-0.417537 0.959601 0.000000 
0.039645 0.257038 0.000000 
-0.441768 -0.242833 0.000000 
-0.109248 -0.938284 0.000000 
-0.699407 0.584961 0.000000 
-0.474522 -0.082319 0.000000 
0.820030 -0.509312 0.000000 
0.957100 0.866616 0.000000 
0.610485 0.963525 0.000000 
-0.761092 0.233144 0.000000 
-0.714655 -0.477593 0.000000 
-0.057734 -0.682760 0.000000 
-0.178789 -0.528852 0.000000 
-0.067979 0.813722 0.000000 
0.677748 0.675519 0.000000 
0.641556 -0.110226 0.000000 
-0.765897 -0.368705 0.000000 
0.393446 0.699158 0.000000 
0.522510 0.063428 0.000000 
-0.691820 -0.035117 0.000000 
-0.647393 -0.765599 0.000000 
0.028512 -0.973126 0.000000 
-0.053800 0.209514 0.000000 
0.514316 -0.062617 0.000000 
0.965681 -0.072833 0.000000 
-0.897068 -0.696862 0.000000 
-0.083078 -0.763715 0.000000 
-0.006893 0.533760 0.000000 
0.724017 0.370127 0.000000 
0.714996 -0.406276 0.000000 
-0.642413 -0.639734 0.000000 
-0.760780 0.521286 0.000000 
-0.205471 0.243471 0.000000 
0.000000 -0.731174 0.000000 
-0.564049 0.570639 0.000000 
0.000000 0.165203 0.000000 
0.564049 0.570639 0.000000 
0.866949 -0.184705 0.000000 
-0.569003 -0.504637 0.000000 
0.000000 0.014652 0.000000 
0.569003 -0.504637 0.000000 
-0.866949 -0.184705 0.000000 
0.299194 -0.954455 0.000000 
0.858290 0.753961 0.000000 
-0.577662 -0.669593 0.000000 
0.000000 0.911029 0.000000 
0.577662 -0.669593 0.000000 
-0.858290 0.753961 0.000000 
-0.299194 -0.954455 0.000000 
-0.268560 0.275795 0.000000 
0.286830 -0.001847 0.000000 
0.844677 0.617351 0.000000 
-0.578910 0.241189 0.000000 
0.000000 0.732593 0.000000 
0.578910 0.241189 0.000000 
-0.844677 0.617351 0.000000 
-0.286830 -0.001847 0.000000 
0.268560 0.275795 0.000000 
-0.610485 0.963525 0.000000 
0.057734 -0.682760 0.000000 
0.714655 -0.477593 0.000000 
0.761092 0.233144 0.000000 
0.765897 -0.368705 0.000000 
-0.641556 -0.110226 0.000000 
-0.677748 0.675519 0.000000 
0.067979 0.813722 0.000000 
0.178789 -0.528852 0.000000 
-0.514316 -0.062617 0.000000 
0.053800 0.209514 0.000000 
-0.028512 -0.973126 0.000000 
0.647393 -0.765599 0.000000 
0.691820 -0.035117 0.000000 
-0.522510 0.063428 0.000000 
-0.393446 0.699158 0.000000 
0.205471 0.243471 0.000000 
0.760780 0.521286 0.000000 
0.642413 -0.639734 0.000000 
-0.714996 -0.406276 0.000000 
-0.724017 0.370127 0.000000 
0.006894 0.533760 0.000000 
0.083078 -0.763715 0.000000 
0.897068 -0.696862 0.000000 
-0.965681 -0.072833 0.000000 
-0.761262 0.277518 0.000000 
0.142083 -0.583219 0.000000 
0.397202 0.078056 0.000000 
-0.108942 0.558895 0.000000 
-0.899809 0.563746 0.000000 
-0.724964 -0.794005 0.000000 
0.660903 -0.333485 0.000000 
-0.978194 0.358140 0.000000 
0.595936 0.858006 0.000000 
0.071546 -0.284819 0.000000 
0.220880 0.346107 0.000000 
-0.445811 0.788893 0.000000 
-0.180633 -0.532948 0.000000 
-0.702895 -0.041429 0.000000 
-0.287229 0.657900 0.000000 
-0.685384 -0.840942 0.000000 
-0.957100 0.866616 0.000000 
-0.820030 -0.509312 0.000000 
0.474522 -0.082319 0.000000 
0.699407 0.584961 0.000000 
0.109248 -0.938284 0.000000 
0.441768 -0.242833 0.000000 
-0.039645 0.257038 0.000000 
0.417537 0.959601 0.000000 
0.033296 -0.539890 0.000000 
-0.338794 -0.272616 0.000000 
-0.374519 0.300347 0.000000 
-0.713312 0.919776 0.000000 
0.609100 0.808636 0.000000 
-0.381900 0.922575 0.000000 
-0.756418 -0.535033 0.000000 
0.513962 -0.746519 0.000000 
0.218274 -0.022280 0.000000 
-0.423588 -0.056384 0.000000 
-0.384386 -0.441656 0.000000 
-0.766286 0.072964 0.000000 
0.484677 -0.192251 0.000000 
0.139443 0.445873 0.000000 
-0.556234 0.328305 0.000000 
-0.823577 -0.898191 0.000000 
0.550868 -0.908987 0.000000 
-0.386873 0.194113 0.000000 
-0.771260 0.694502 0.000000 
0.467428 0.387974 0.000000 
0.105264 0.986600 0.000000 
-0.621631 0.804701 0.000000 
-0.937896 -0.491719 0.000000 
0.385608 -0.570914 0.000000 
0.141715 0.238314 0.000000 
-0.474677 0.238410 0.000000 
CELL_DATA 175 
SCALARS MASS float 
LOOKUP_TABLE default 
0.781831 
0.864274 
0.946717 
0.864274 
0.881307 
0.921110 
0.858535 
0.921110 
0.881307 
0.887046 
0.910001 
0.869829 
0.915556 
0.869829 
0.910001 
0.887046 
0.892784 
0.915740 
0.892784 
0.927218 
0.892784 
0.927218 
0.892784 
0.915740 
0.892784 
0.781831 
0.864274 
0.946717 
0.864274 
0.881307 
0.921110 
0.858535 
0.921110 
0.881307 
0.887046 
0.910001 
0.869829 
0.915556 
0.869829 
0.910001 
0.887046 
0.892784 
0.915740 
0.892784 
0.927218 
0.892784 
0.927218 
0.892784 
0.915740 
0.892784 
0.781831 
0.864274 
0.946717 
0.864274 
0.881307 
0.921110 
0.858535 
0.921110 
0.881307 
0.887046 
0.910001 
0.869829 
0.915556 
0.869829 
0.910001 
0.887046 
0.892784 
0.915740 
0.892784 
0.927218 
0.892784 
0.927218 
0.892784 
0.915740 
0.892784 
0.781831 
0.864274 
0.946717 
0.864274 
0.881307 
0.921110 
0.858535 
0.921110 
0.881307 
0.887046 
0.910001 
0.869829 
0.915556 
0.869829 
0.910001 
0.887046 
0.892784 
0.915740 
0.892784 
0.927218 
0.892784 
0.927218 
0.892784 
0.915740 
0.892784 
0.781831 
0.864274 
0.946717 
0.864274 
0.881307 
0.921110 
0.858535 
0.921110 
0.881307 
0.887046 
0.910001 
0.869829 
0.915556 
0.869829 
0.910001 
0.887046 
0.892784 
0.915740 
0.892784 
0.927218 
0.892784 
0.927218 
0.892784 
0.915740 
0.892784 
0.781831 
0.864274 
0.946717 
0.864274 
0.881307 
0.921110 
0.858535 
0.921110 
0.881307 
0.887046 
0.910001 
0.869829 
0.915556 
0.869829 
0.910001 
0.887046 
0.892784 
0.915740 
0.892784 
0.927218 
0.892784 
0.927218 
0.892784 
0.915740 
0.892784 
0.781831 
0.864274 
0.946717 
0.864274 
0.881307 
0.921110 
0.858535 
0.921110 
0.881307 
0.887046 
0.910001 
0.869829 
0.915556 
0.869829 
0.910001 
0.887046 
0.892784 
0.915740 
0.892784 
0.927218 
0.892784 
0.927218 
0.892784 
0.915740 
0.892784 
SCALARS MASS float 
LOOKUP_TABLE default 
0.781831 
0.864274 
0.946717 
0.864274 
0.881307 
0.921110 
0.858535 
0.921110 
0.881307 
0.887046 
0.910001 
0.869829 
0.915556 
0.869829 
0.910001 
0.887046 
0.892784 
0.915740 
0.892784 
0.927218 
0.892784 
0.927218 
0.892784 
0.915740 
0.892784 
0.781831 
0.864274 
0.946717 
0.864274 
0.881307 
0.921110 
0.858535 
0.921110 
0.881307 
0.887046 
0.910001 
0.869829 
0.915556 
0.869829 
0.910001 
0.887046 
0.892784 
0.915740 
0.892784 
0.927218 
0.892784 
0.927218 
0.892784 
0.915740 
0.892784 
0.781831 
0.864274 
0.946717 
0.864274 
0.881307 
0.921110 
0.858535 
0.921110 
0.881307 
0.887046 
0.910001 
0.869829 
0.915556 
0.869829 
0.910001 
0.887046 
0.892784 
0.915740 
0.892784 
0.927218 
0.892784 
0.927218 
0.892784 
0.915740 
0.892784 
0.781831 
0.864274 
0.946717 
0.864274 
0.881307 
0.921110 
0.858535 
0.921110 
0.881307 
0.887046 
0.910001 
0.869829 
0.915556 
0.869829 
0.910001 
0.887046 
0.892784 
0.915740 
0.892784 
0.927218 
0.892784 
0.927218 
0.892784 
0.915740 
0.892784 
0.781831 
0.864274 
0.946717 
0.864274 
0.881307 
0.921110 
0.858535 
0.921110 
0.881307 
0.887046 
0.910001 
0.869829 
0.915556 
0.869829 
0.910001 
0.887046 
0.892784 
0.915740 
0.892784 
0.927218 
0.892784 
0.927218 
0.892784 
0.915740 
0.892784 
0.781831 
0.864274 
0.946717 
0.864274 
0.881307 
0.921110 
0.858535 
0.921110 
0.881307 
0.887046 
0.910001 
0.869829 
0.915556 
0.869829 
0.910001 
0.887046 
0.892784 
0.915740 
0.892784 
0.927218 
0.892784 
0.927218 
0.892784 
0.915740 
0.892784 
0.781831 
0.864274 
0.946717 
0.864274 
0.881307 
0.921110 
0.858535 
0.921110 
0.881307 
0.887046 
0.910001 
0.869829 
0.915556 
0.869829 
0.910001 
0.887046 
0.892784 
0.915740 
0.892784 
0.927218 
0.892784 
0.927218 
0.892784 
0.915740 
0.892784 
SCALARS DENSITY float 
LOOKUP_TABLE default 
200.000000 
200.000000 
200.000000 
200.000000 
200.000000 
200.000000 
200.000000 
200.000000 
200.000000 
200.000000 
200.000000 
200.000000 
200.000000 
200.000000 
200.000000 
200.000000 
200.000000 
200.000000 
200.000000 
200.000000 
200.000000 
200.000000 
200.000000 
200.000000 
200.000000 
200.000000 
200.000000 
200.000000 
200.000000 
200.000000 
200.000000 
200.000000 
200.000000 
200.000000 
200.000000 
200.000000 
200.000000 
200.000000 
200.000000 
200.000000 
200.000000 
200.000000 
200.000000 
200.000000 
200.000000 
200.000000 
200.000000 
200.000000 
200.000000 
200.000000 
200.000000 
200.000000 
200.000000 
200.000000 
200.000000 
200.000000 
200.000000 
200.000000 
200.000000 
200.000000 
200.000000 
200.000000 
200.000000 
200.000000 
200.000000 
200.000000 
200.000000 
200.000000 
200.000000 
200.000000 
200.000000 
200.000000 
200.000000 
200.000000 
200.000000 
200.000000 
200.000000 
200.000000 
200.000000 
200.000000 
200.000000 
200.000000 
200.000000 
200.000000 
200.000000 
200.000000 
200.000000 
200.000000 
200.000000 
200.000000 
200.000000 
200.000000 
200.000000 
200.000000 
200.000000 
200.000000 
200.000000 
200.000000 
200.000000 
200.000000 
200.000000 
200.000000 
200.000000 
200.000000 
200.000000 
200.000000 
200.000000 
200.000000 
200.000000 
200.000000 
200.000000 
200.000000 
200.000000 
200.000000 
200.000000 
200.000000 
200.000000 
200.000000 
200.000000 
200.000000 
200.000000 
200.000000 
200.000000 
200.000000 
200.000000 
200.000000 
200.000000 
200.000000 
200.000000 
200.000000 
200.000000 
200.000000 
200.000000 
200.000000 
200.000000 
200.000000 
200.000000 
200.000000 
200.000000 
200.000000 
200.000000 
200.000000 
200.000000 
200.000000 
200.000000 
200.000000 
200.000000 
200.000000 
200.000000 
200.000000 
200.000000 
200.000000 
200.000000 
200.000000 
200.000000 
200.000000 
200.000000 
200.000000 
200.000000 
200.000000 
200.000000 
200.000000 
200.000000 
200.000000 
200.000000 
200.000000 
200.000000 
200.000000 
200.000000 
200.000000 
200.000000 
200.000000 
200.000000 
200.000000 
200.000000 
SCALARS ELEM_i float 
LOOKUP_TABLE default 
172 
200 
173 
173 
200 
200 
200 
173 
174 
227 
200 
201 
201 
201 
174 
174 
228 
228 
228 
201 
202 
202 
202 
175 
175 
172 
199 
199 
199 
226 
199 
226 
199 
200 
225 
226 
226 
226 
227 
227 
227 
252 
253 
253 
253 
253 
254 
254 
227 
228 
172 
198 
198 
198 
197 
198 
198 
198 
225 
197 
197 
224 
224 
224 
225 
225 
196 
223 
223 
224 
224 
224 
251 
252 
252 
171 
171 
171 
171 
143 
170 
170 
170 
197 
142 
143 
169 
170 
169 
197 
196 
142 
142 
142 
169 
169 
169 
196 
196 
196 
172 
144 
144 
144 
117 
144 
144 
144 
143 
117 
117 
116 
116 
116 
143 
143 
90 
90 
89 
116 
116 
116 
115 
115 
142 
172 
145 
145 
145 
146 
145 
118 
145 
118 
119 
119 
119 
118 
118 
118 
117 
120 
119 
92 
92 
91 
91 
91 
91 
90 
172 
173 
173 
146 
174 
173 
146 
146 
146 
174 
174 
147 
147 
147 
146 
119 
175 
175 
148 
148 
148 
147 
120 
120 
120 
VECTORS VELOCITY float 
-0.000000 -5.375880 0.000000 
-0.000000 -5.375880 0.000000 
-0.000000 -5.375880 0.000000 
-0.000000 -5.375880 0.000000 
-0.000000 -5.375880 0.000000 
-0.000000 -5.375880 0.000000 
-0.000000 -5.375880 0.000000 
-0.000000 -5.375880 0.000000 
0.000000 -5.375880 0.000000 
-0.000000 -5.375880 0.000000 
-0.000000 -5.375880 0.000000 
0.000000 -5.375880 0.000000 
-0.000000 -5.375880 0.000000 
-0.000000 -5.375880 0.000000 
-0.000000 -5.375880 0.000000 
-0.000000 -5.375880 0.000000 
-0.000000 -5.375880 0.000000 
-0.000000 -5.375880 0.000000 
0.000000 -5.375880 0.000000 
0.000000 -5.375880 0.000000 
0.000000 -5.375880 0.000000 
-0.000000 -5.375880 0.000000 
0.000000 -5.375880 0.000000 
0.000000 -5.375880 0.000000 
0.000000 -5.375880 0.000000 
-0.000000 -5.375880 0.000000 
0.000000 -5.375880 0.000000 
0.000000 -5.375880 0.000000 
-0.000000 -5.375880 0.000000 
0.000000 -5.375880 0.000000 
0.000000 -5.375880 0.000000 
0.000000 -5.375880 0.000000 
-0.000000 -5.375880 0.000000 
0.000000 -5.375880 0.000000 
0.000000 -5.375880 0.000000 
0.000000 -5.375880 0.000000 
-0.000000 -5.375880 0.000000 
-0.000000 -5.375880 0.000000 
0.000000 -5.375880 0.000000 
0.000000 -5.375880 0.000000 
-0.000000 -5.375880 0.000000 
-0.000000 -5.375880 0.000000 
0.000000 -5.375880 0.000000 
0.000000 -5.375880 0.000000 
0.000000 -5.375880 0.000000 
0.000000 -5.375880 0.000000 
-0.000000 -5.375880 0.000000 
0.000000 -5.375880 0.000000 
-0.000000 -5.375880 0.000000 
-0.000000 -5.375880 0.000000 
-0.000000 -5.375880 0.000000 
-0.000000 -5.375880 0.000000 
-0.000000 -5.375880 0.000000 
0.000000 -5.375880 0.000000 
0.000000 -5.375880 0.000000 
0.000000 -5.375880 0.000000 
0.000000 -5.375880 0.000000 
0.000000 -5.375880 0.000000 
0.000000 -5.375880 0.000000 
-0.000000 -5.375880 0.000000 
0.000000 -5.375880 0.000000 
0.000000 -5.375880 0.000000 
0.000000 -5.375880 0.000000 
0.000000 -5.375880 0.000000 
0.000000 -5.375880 0.000000 
0.000000 -5.375880 0.000000 
-0.000000 -5.375880 0.000000 
-0.000000 -5.375880 0.000000 
0.000000 -5.375880 0.000000 
0.000000 -5.375880 0.000000 
0.000000 -5.375880 0.000000 
0.000000 -5.375880 0.000000 
-0.000000 -5.375880 0.000000 
0.000000 -5.375880 0.000000 
-0.000000 -5.375880 0.000000 
-0.000000 -5.375880 0.000000 
-0.000000 -5.375880 0.000000 
-0.000000 -5.375880 0.000000 
-0.000000 -5.375880 0.000000 
-0.000000 -5.375880 0.000000 
-0.000000 -5.375880 0.000000 
-0.000000 -5.375880 0.000000 
0.000000 -5.375880 0.000000 
0.000000 -5.375880 0.000000 
0.000000 -5.375880 0.000000 
-0.000000 -5.375880 0.000000 
0.000000 -5.375880 0.000000 
-0.000000 -5.375880 0.000000 
0.000000 -5.375880 0.000000 
0.000000 -5.375880 0.000000 
-0.000000 -5.375880 0.000000 
-0.000000 -5.375880 0.000000 
0.000000 -5.375880 0.000000 
0.000000 -5.375880 0.000000 
0.000000 -5.375880 0.000000 
-0.000000 -5.375880 0.000000 
-0.000000 -5.375880 0.000000 
-0.000000 -5.375880 0.000000 
-0.000000 -5.375880 0.000000 
-0.000000 -5.375880 0.000000 
-0.000000 -5.375880 0.000000 
0.000000 -5.375880 0.000000 
0.000000 -5.375880 0.000000 
0.000000 -5.375880 0.000000 
-0.000000 -5.375880 0.000000 
0.000000 -5.375880 0.000000 
0.000000 -5.375880 0.000000 
-0.000000 -5.375880 0.000000 
-0.000000 -5.375880 0.000000 
0.000000 -5.375880 0.000000 
0.000000 -5.375880 0.000000 
0.000000 -5.375880 0.000000 
0.000000 -5.375880 0.000000 
0.000000 -5.375880 0.000000 
-0.000000 -5.375880 0.000000 
-0.000000 -5.375880 0.000000 
0.000000 -5.375880 0.000000 
-0.000000 -5.375880 0.000000 
-0.000000 -5.375880 0.000000 
-0.000000 -5.375880 0.000000 
0.000000 -5.375880 0.000000 
0.000000 -5.375880 0.000000 
-0.000000 -5.375880 0.000000 
0.000000 -5.375880 0.000000 
0.000000 -5.375880 0.000000 
-0.000000 -5.375880 0.000000 
-0.000000 -5.375880 0.000000 
-0.000000 -5.375880 0.000000 
-0.000000 -5.375880 0.000000 
-0.000000 -5.375880 0.000000 
0.000000 -5.375880 0.000000 
0.000000 -5.375880 0.000000 
0.000000 -5.375880 0.000000 
-0.000000 -5.375880 0.000000 
0.000000 -5.375880 0.000000 
0.000000 -5.375880 0.000000 
0.000000 -5.375880 0.000000 
0.000000 -5.375880 0.000000 
0.000000 -5.375880 0.000000 
-0.000000 -5.375880 0.000000 
-0.000000 -5.375880 0.000000 
-0.000000 -5.375880 0.000000 
0.000000 -5.375880 0.000000 
-0.000000 -5.375880 0.000000 
0.000000 -5.375880 0.000000 
0.000000 -5.375880 0.000000 
-0.000000 -5.375880 0.000000 
-0.000000 -5.375880 0.000000 
0.000000 -5.375880 0.000000 
0.000000 -5.375880 0.000000 
-0.000000 -5.375880 0.000000 
0.000000 -5.375880 0.000000 
0.000000 -5.375880 0.000000 
0.000000 -5.375880 0.000000 
0.000000 -5.375880 0.000000 
0.000000 -5.375880 0.000000 
0.000000 -5.375880 0.000000 
0.000000 -5.375880 0.000000 
0.000000 -5.375880 0.000000 
-0.000000 -5.375880 0.000000 
0.000000 -5.375880 0.000000 
0.000000 -5.375880 0.000000 
0.000000 -5.375880 0.000000 
-0.000000 -5.375880 0.000000 
-0.000000 -5.375880 0.000000 
-0.000000 -5.375880 0.000000 
0.000000 -5.375880 0.000000 
0.000000 -5.375880 0.000000 
-0.000000 -5.375880 0.000000 
0.000000 -5.375880 0.000000 
-0.000000 -5.375880 0.000000 
0.000000 -5.375880 0.000000 
-0.000000 -5.375880 0.000000 
-0.000000 -5.375880 0.000000 
-0.000000 -5.375880 0.000000 
TENSORS STRESS float 
0.000000 0.000000 0.000000 
0.000000 0.000000 0.000000 
0.000000 0.000000 0.000000 

-0.000000 0.000000 0.000000 
0.000000 -0.000000 0.000000 
0.000000 0.000000 0.000000 

0.000000 -0.000000 0.000000 
0.000000 0.000000 0.000000 
0.000000 0.000000 0.000000 

-0.000000 -0.000000 0.000000 
0.000000 -0.000000 0.000000 
0.000000 0.000000 0.000000 

-0.000000 0.000000 0.000000 
0.000000 -0.000000 0.000000 
0.000000 0.000000 0.000000 

-0.000000 0.000000 0.000000 
0.000000 -0.000000 0.000000 
0.000000 0.000000 0.000000 

-0.000000 0.000000 0.000000 
0.000000 0.000000 0.000000 
0.000000 0.000000 0.000000 

-0.000000 -0.000000 0.000000 
0.000000 -0.000000 0.000000 
0.000000 0.000000 0.000000 

0.000000 -0.000000 0.000000 
0.000000 0.000000 0.000000 
0.000000 0.000000 0.000000 

-0.000000 -0.000000 0.000000 
0.000000 0.000000 0.000000 
0.000000 0.000000 0.000000 

-0.000000 -0.000000 0.000000 