# vtk DataFile Version 3.0 
vtk output 
ASCII 
DATASET UNSTRUCTURED_GRID 
POINTS 184 float 
-0.028811 -0.929998 0.000000 
-0.337228 -1.741604 0.000000 
0.473826 -1.432378 0.000000 
-0.447224 -1.237621 0.000000 
0.165656 -1.848071 0.000000 
0.222713 -0.984740 0.000000 
-0.284076 -1.024448 0.000000 
-0.100762 -1.867126 0.000000 
0.418839 -1.180576 0.000000 
-0.462804 -1.510882 0.000000 
0.379480 -1.688004 0.000000 
-0.166786 -0.957486 0.000000 
-0.227178 -1.819975 0.000000 
0.463197 -1.303166 0.000000 
-0.473871 -1.375480 0.000000 
0.286252 -1.785784 0.000000 
0.100762 -0.940732 0.000000 
-0.377333 -1.115759 0.000000 
0.039274 -1.876981 0.000000 
0.337021 -1.066332 0.000000 
-0.416046 -1.631107 0.000000 
0.444142 -1.569585 0.000000 
-0.121270 -0.944121 0.000000 
-0.301377 -1.772670 0.000000 
0.473826 -1.384939 0.000000 
-0.460589 -1.283138 0.000000 
0.246344 -1.811431 0.000000 
0.179561 -0.965033 0.000000 
-0.346268 -1.079907 0.000000 
-0.053807 -1.873877 0.000000 
0.368087 -1.102184 0.000000 
-0.449439 -1.556399 0.000000 
0.424436 -1.612737 0.000000 
-0.209938 -0.977192 0.000000 
-0.146279 -1.853761 0.000000 
0.438546 -1.223727 0.000000 
-0.473871 -1.422919 0.000000 
0.322103 -1.754718 0.000000 
0.018627 -0.929998 0.000000 
-0.427517 -1.194470 0.000000 
0.086229 -1.870230 0.000000 
0.301170 -1.035267 0.000000 
-0.368294 -1.705753 0.000000 
0.457507 -1.524068 0.000000 
-0.079407 -0.961743 0.000000 
0.369154 -1.147317 0.000000 
0.048715 -0.958354 0.000000 
0.205703 -1.803843 0.000000 
-0.167159 -1.818077 0.000000 
-0.366567 -1.664445 0.000000 
0.386144 -1.628326 0.000000 
-0.305135 -1.075737 0.000000 
-0.387078 -1.174786 0.000000 
0.425252 -1.262875 0.000000 
0.140413 -0.978327 0.000000 
0.111975 -1.837881 0.000000 
-0.260069 -1.770943 0.000000 
-0.413756 -1.577279 0.000000 
0.439780 -1.481843 0.000000 
0.326273 -1.713585 0.000000 
-0.014533 -1.850322 0.000000 
-0.225527 -1.015484 0.000000 
-0.442908 -1.325364 0.000000 
-0.445123 -1.459197 0.000000 
0.255396 -1.033851 0.000000 
0.445470 -1.354852 0.000000 
-0.079333 -1.018017 0.000000 
-0.130417 -1.060827 0.000000 
-0.191597 -1.056209 0.000000 
-0.111867 -1.119435 0.000000 
-0.224051 -1.110730 0.000000 
-0.171272 -1.147729 0.000000 
-0.055594 -1.133663 0.000000 
-0.279041 -1.121294 0.000000 
-0.040187 -1.189385 0.000000 
-0.015041 -1.092459 0.000000 
-0.296573 -1.180558 0.000000 
-0.349226 -1.210843 0.000000 
-0.351226 -1.276547 0.000000 
-0.254824 -1.219313 0.000000 
-0.391103 -1.325868 0.000000 
-0.370336 -1.385472 0.000000 
-0.284940 -1.276499 0.000000 
-0.395089 -1.444966 0.000000 
-0.360392 -1.491140 0.000000 
-0.313327 -1.384897 0.000000 
-0.369688 -1.549488 0.000000 
-0.323258 -1.583283 0.000000 
-0.307698 -1.449558 0.000000 
-0.317847 -1.644412 0.000000 
-0.261652 -1.669607 0.000000 
-0.273358 -1.557091 0.000000 
-0.237999 -1.723766 0.000000 
-0.174943 -1.729637 0.000000 
-0.233858 -1.608677 0.000000 
-0.136993 -1.774917 0.000000 
-0.076092 -1.765749 0.000000 
-0.147100 -1.680659 0.000000 
-0.021468 -1.798719 0.000000 
0.034383 -1.772766 0.000000 
-0.085997 -1.702692 0.000000 
0.090783 -1.790323 0.000000 
0.131601 -1.749455 0.000000 
0.025861 -1.716292 0.000000 
0.192839 -1.752786 0.000000 
0.225790 -1.700757 0.000000 
0.089168 -1.701776 0.000000 
0.282731 -1.685034 0.000000 
0.297512 -1.623455 0.000000 
0.190626 -1.652725 0.000000 
0.347718 -1.592328 0.000000 
0.347308 -1.530744 0.000000 
0.236036 -1.606285 0.000000 
0.387714 -1.481365 0.000000 
0.369971 -1.422391 0.000000 
0.294872 -1.510168 0.000000 
0.395378 -1.369062 0.000000 
0.360736 -1.322843 0.000000 
0.307967 -1.446551 0.000000 
0.372882 -1.268342 0.000000 
0.326072 -1.228322 0.000000 
0.305499 -1.333883 0.000000 
0.320446 -1.167316 0.000000 
0.261463 -1.138280 0.000000 
0.282122 -1.273284 0.000000 
0.233332 -1.081013 0.000000 
0.170485 -1.075060 0.000000 
0.219133 -1.179837 0.000000 
0.132530 -1.029795 0.000000 
0.077667 -1.039652 0.000000 
0.033502 -1.005806 0.000000 
-0.020231 -1.035421 0.000000 
0.166704 -1.141497 0.000000 
0.047676 -1.092707 0.000000 
-0.184513 -1.197048 0.000000 
-0.267808 -1.325245 0.000000 
-0.039895 -1.679189 0.000000 
0.233804 -1.554583 0.000000 
0.278138 -1.404262 0.000000 
0.115242 -1.657074 0.000000 
0.234165 -1.253836 0.000000 
-0.267095 -1.481713 0.000000 
-0.182363 -1.613857 0.000000 
-0.080635 -1.230611 0.000000 
0.015739 -1.203801 0.000000 
-0.141814 -1.233420 0.000000 
-0.170613 -1.290882 0.000000 
-0.215488 -1.329608 0.000000 
-0.205084 -1.392928 0.000000 
-0.129406 -1.327828 0.000000 
-0.218571 -1.453423 0.000000 
-0.148068 -1.385014 0.000000 
-0.174593 -1.499798 0.000000 
-0.076799 -1.293707 0.000000 
-0.155573 -1.561897 0.000000 
-0.126037 -1.469770 0.000000 
-0.074980 -1.496380 0.000000 
-0.112999 -1.415481 0.000000 
-0.052249 -1.398708 0.000000 
-0.031995 -1.451692 0.000000 
-0.034711 -1.334120 0.000000 
0.031192 -1.259435 0.000000 
0.063050 -1.148327 0.000000 
-0.089197 -1.560020 0.000000 
0.009049 -1.317716 0.000000 
0.051424 -1.367612 0.000000 
0.053332 -1.422750 0.000000 
0.098177 -1.338320 0.000000 
0.011239 -1.465594 0.000000 
0.028372 -1.527031 0.000000 
0.017947 -1.586457 0.000000 
0.077740 -1.614347 0.000000 
0.083331 -1.527672 0.000000 
0.117710 -1.569812 0.000000 
0.179025 -1.540881 0.000000 
0.098599 -1.466774 0.000000 
0.165702 -1.348894 0.000000 
0.087920 -1.279500 0.000000 
0.161326 -1.470147 0.000000 
0.191154 -1.291035 0.000000 
0.131959 -1.248184 0.000000 
0.122542 -1.172646 0.000000 
-0.040916 -1.603891 0.000000 
0.197397 -1.410693 0.000000 
CELLS 184 368 
1 0 
1 1 
1 2 
1 3 
1 4 
1 5 
1 6 
1 7 
1 8 
1 9 
1 10 
1 11 
1 12 
1 13 
1 14 
1 15 
1 16 
1 17 
1 18 
1 19 
1 20 
1 21 
1 22 
1 23 
1 24 
1 25 
1 26 
1 27 
1 28 
1 29 
1 30 
1 31 
1 32 
1 33 
1 34 
1 35 
1 36 
1 37 
1 38 
1 39 
1 40 
1 41 
1 42 
1 43 
1 44 
1 45 
1 46 
1 47 
1 48 
1 49 
1 50 
1 51 
1 52 
1 53 
1 54 
1 55 
1 56 
1 57 
1 58 
1 59 
1 60 
1 61 
1 62 
1 63 
1 64 
1 65 
1 66 
1 67 
1 68 
1 69 
1 70 
1 71 
1 72 
1 73 
1 74 
1 75 
1 76 
1 77 
1 78 
1 79 
1 80 
1 81 
1 82 
1 83 
1 84 
1 85 
1 86 
1 87 
1 88 
1 89 
1 90 
1 91 
1 92 
1 93 
1 94 
1 95 
1 96 
1 97 
1 98 
1 99 
1 100 
1 101 
1 102 
1 103 
1 104 
1 105 
1 106 
1 107 
1 108 
1 109 
1 110 
1 111 
1 112 
1 113 
1 114 
1 115 
1 116 
1 117 
1 118 
1 119 
1 120 
1 121 
1 122 
1 123 
1 124 
1 125 
1 126 
1 127 
1 128 
1 129 
1 130 
1 131 
1 132 
1 133 
1 134 
1 135 
1 136 
1 137 
1 138 
1 139 
1 140 
1 141 
1 142 
1 143 
1 144 
1 145 
1 146 
1 147 
1 148 
1 149 
1 150 
1 151 
1 152 
1 153 
1 154 
1 155 
1 156 
1 157 
1 158 
1 159 
1 160 
1 161 
1 162 
1 163 
1 164 
1 165 
1 166 
1 167 
1 168 
1 169 
1 170 
1 171 
1 172 
1 173 
1 174 
1 175 
1 176 
1 177 
1 178 
1 179 
1 180 
1 181 
1 182 
1 183 
CELL_TYPES 184 
1 
1 
1 
1 
1 
1 
1 
1 
1 
1 
1 
1 
1 
1 
1 
1 
1 
1 
1 
1 
1 
1 
1 
1 
1 
1 
1 
1 
1 
1 
1 
1 
1 
1 
1 
1 
1 
1 
1 
1 
1 
1 
1 
1 
1 
1 
1 
1 
1 
1 
1 
1 
1 
1 
1 
1 
1 
1 
1 
1 
1 
1 
1 
1 
1 
1 
1 
1 
1 
1 
1 
1 
1 
1 
1 
1 
1 
1 
1 
1 
1 
1 
1 
1 
1 
1 
1 
1 
1 
1 
1 
1 
1 
1 
1 
1 
1 
1 
1 
1 
1 
1 
1 
1 
1 
1 
1 
1 
1 
1 
1 
1 
1 
1 
1 
1 
1 
1 
1 
1 
1 
1 
1 
1 
1 
1 
1 
1 
1 
1 
1 
1 
1 
1 
1 
1 
1 
1 
1 
1 
1 
1 
1 
1 
1 
1 
1 
1 
1 
1 
1 
1 
1 
1 
1 
1 
1 
1 
1 
1 
1 
1 
1 
1 
1 
1 
1 
1 
1 
1 
1 
1 
1 
1 
1 
1 
1 
1 
1 
1 
1 
1 
1 
1 
POINT_DATA 184 
VECTORS X_GC float 
-0.028811 -0.929998 0.000000 
-0.337228 -1.741604 0.000000 
0.473826 -1.432378 0.000000 
-0.447224 -1.237621 0.000000 
0.165656 -1.848071 0.000000 
0.222713 -0.984740 0.000000 
-0.284076 -1.024448 0.000000 
-0.100762 -1.867126 0.000000 
0.418839 -1.180576 0.000000 
-0.462804 -1.510882 0.000000 
0.379480 -1.688004 0.000000 
-0.166786 -0.957486 0.000000 
-0.227178 -1.819975 0.000000 
0.463197 -1.303166 0.000000 
-0.473871 -1.375480 0.000000 
0.286252 -1.785784 0.000000 
0.100762 -0.940732 0.000000 
-0.377333 -1.115759 0.000000 
0.039274 -1.876981 0.000000 
0.337021 -1.066332 0.000000 
-0.416046 -1.631107 0.000000 
0.444142 -1.569585 0.000000 
-0.121270 -0.944121 0.000000 
-0.301377 -1.772670 0.000000 
0.473826 -1.384939 0.000000 
-0.460589 -1.283138 0.000000 
0.246344 -1.811431 0.000000 
0.179561 -0.965033 0.000000 
-0.346268 -1.079907 0.000000 
-0.053807 -1.873877 0.000000 
0.368087 -1.102184 0.000000 
-0.449439 -1.556399 0.000000 
0.424436 -1.612737 0.000000 
-0.209938 -0.977192 0.000000 
-0.146279 -1.853761 0.000000 
0.438546 -1.223727 0.000000 
-0.473871 -1.422919 0.000000 
0.322103 -1.754718 0.000000 
0.018627 -0.929998 0.000000 
-0.427517 -1.194470 0.000000 
0.086229 -1.870230 0.000000 
0.301170 -1.035267 0.000000 
-0.368294 -1.705753 0.000000 
0.457507 -1.524068 0.000000 
-0.079407 -0.961743 0.000000 
0.369154 -1.147317 0.000000 
0.048715 -0.958354 0.000000 
0.205703 -1.803843 0.000000 
-0.167159 -1.818077 0.000000 
-0.366567 -1.664445 0.000000 
0.386144 -1.628326 0.000000 
-0.305135 -1.075737 0.000000 
-0.387078 -1.174786 0.000000 
0.425252 -1.262875 0.000000 
0.140413 -0.978327 0.000000 
0.111975 -1.837881 0.000000 
-0.260069 -1.770943 0.000000 
-0.413756 -1.577279 0.000000 
0.439780 -1.481843 0.000000 
0.326273 -1.713585 0.000000 
-0.014533 -1.850322 0.000000 
-0.225527 -1.015484 0.000000 
-0.442908 -1.325364 0.000000 
-0.445123 -1.459197 0.000000 
0.255396 -1.033851 0.000000 
0.445470 -1.354852 0.000000 
-0.079333 -1.018017 0.000000 
-0.130417 -1.060827 0.000000 
-0.191597 -1.056209 0.000000 
-0.111867 -1.119435 0.000000 
-0.224051 -1.110730 0.000000 
-0.171272 -1.147729 0.000000 
-0.055594 -1.133663 0.000000 
-0.279041 -1.121294 0.000000 
-0.040187 -1.189385 0.000000 
-0.015041 -1.092459 0.000000 
-0.296573 -1.180558 0.000000 
-0.349226 -1.210843 0.000000 
-0.351226 -1.276547 0.000000 
-0.254824 -1.219313 0.000000 
-0.391103 -1.325868 0.000000 
-0.370336 -1.385472 0.000000 
-0.284940 -1.276499 0.000000 
-0.395089 -1.444966 0.000000 
-0.360392 -1.491140 0.000000 
-0.313327 -1.384897 0.000000 
-0.369688 -1.549488 0.000000 
-0.323258 -1.583283 0.000000 
-0.307698 -1.449558 0.000000 
-0.317847 -1.644412 0.000000 
-0.261652 -1.669607 0.000000 
-0.273358 -1.557091 0.000000 
-0.237999 -1.723766 0.000000 
-0.174943 -1.729637 0.000000 
-0.233858 -1.608677 0.000000 
-0.136993 -1.774917 0.000000 
-0.076092 -1.765749 0.000000 
-0.147100 -1.680659 0.000000 
-0.021468 -1.798719 0.000000 
0.034383 -1.772766 0.000000 
-0.085997 -1.702692 0.000000 
0.090783 -1.790323 0.000000 
0.131601 -1.749455 0.000000 
0.025861 -1.716292 0.000000 
0.192839 -1.752786 0.000000 
0.225790 -1.700757 0.000000 
0.089168 -1.701776 0.000000 
0.282731 -1.685034 0.000000 
0.297512 -1.623455 0.000000 
0.190626 -1.652725 0.000000 
0.347718 -1.592328 0.000000 
0.347308 -1.530744 0.000000 
0.236036 -1.606285 0.000000 
0.387714 -1.481365 0.000000 
0.369971 -1.422391 0.000000 
0.294872 -1.510168 0.000000 
0.395378 -1.369062 0.000000 
0.360736 -1.322843 0.000000 
0.307967 -1.446551 0.000000 
0.372882 -1.268342 0.000000 
0.326072 -1.228322 0.000000 
0.305499 -1.333883 0.000000 
0.320446 -1.167316 0.000000 
0.261463 -1.138280 0.000000 
0.282122 -1.273284 0.000000 
0.233332 -1.081013 0.000000 
0.170485 -1.075060 0.000000 
0.219133 -1.179837 0.000000 
0.132530 -1.029795 0.000000 
0.077667 -1.039652 0.000000 
0.033502 -1.005806 0.000000 
-0.020231 -1.035421 0.000000 
0.166704 -1.141497 0.000000 
0.047676 -1.092707 0.000000 
-0.184513 -1.197048 0.000000 
-0.267808 -1.325245 0.000000 
-0.039895 -1.679189 0.000000 
0.233804 -1.554583 0.000000 
0.278138 -1.404262 0.000000 
0.115242 -1.657074 0.000000 
0.234165 -1.253836 0.000000 
-0.267095 -1.481713 0.000000 
-0.182363 -1.613857 0.000000 
-0.080635 -1.230611 0.000000 
0.015739 -1.203801 0.000000 
-0.141814 -1.233420 0.000000 
-0.170613 -1.290882 0.000000 
-0.215488 -1.329608 0.000000 
-0.205084 -1.392928 0.000000 
-0.129406 -1.327828 0.000000 
-0.218571 -1.453423 0.000000 
-0.148068 -1.385014 0.000000 
-0.174593 -1.499798 0.000000 
-0.076799 -1.293707 0.000000 
-0.155573 -1.561897 0.000000 
-0.126037 -1.469770 0.000000 
-0.074980 -1.496380 0.000000 
-0.112999 -1.415481 0.000000 
-0.052249 -1.398708 0.000000 
-0.031995 -1.451692 0.000000 
-0.034711 -1.334120 0.000000 
0.031192 -1.259435 0.000000 
0.063050 -1.148327 0.000000 
-0.089197 -1.560020 0.000000 
0.009049 -1.317716 0.000000 
0.051424 -1.367612 0.000000 
0.053332 -1.422750 0.000000 
0.098177 -1.338320 0.000000 
0.011239 -1.465594 0.000000 
0.028372 -1.527031 0.000000 
0.017947 -1.586457 0.000000 
0.077740 -1.614347 0.000000 
0.083331 -1.527672 0.000000 
0.117710 -1.569812 0.000000 
0.179025 -1.540881 0.000000 
0.098599 -1.466774 0.000000 
0.165702 -1.348894 0.000000 
0.087920 -1.279500 0.000000 
0.161326 -1.470147 0.000000 
0.191154 -1.291035 0.000000 
0.131959 -1.248184 0.000000 
0.122542 -1.172646 0.000000 
-0.040916 -1.603891 0.000000 
0.197397 -1.410693 0.000000 
VECTORS X_EC float 
-0.807924 -0.800011 0.000000 
-0.751813 0.610695 0.000000 
-0.158839 0.549185 0.000000 
-0.018508 -0.749193 0.000000 
-0.104376 -0.679527 0.000000 
-0.484750 -0.435068 0.000000 
0.893837 -0.170345 0.000000 
-0.328251 -0.552496 0.000000 
0.207737 0.870507 0.000000 
0.085362 -0.927455 0.000000 
0.470130 0.253362 0.000000 
0.111910 -0.616763 0.000000 
0.514522 -0.866835 0.000000 
-0.087979 -0.312224 0.000000 
0.159142 0.169868 0.000000 
-0.908345 0.905225 0.000000 
0.328251 -0.728454 0.000000 
-0.484444 0.438392 0.000000 
0.738177 -0.486794 0.000000 
0.753192 0.108883 0.000000 
-0.226359 -0.125953 0.000000 
0.039052 -0.536099 0.000000 
-0.191535 -0.705862 0.000000 
-0.990822 0.817798 0.000000 
-0.158839 0.232930 0.000000 
0.070591 -0.445748 0.000000 
-0.642294 -0.923795 0.000000 
-0.197074 -0.566445 0.000000 
-0.691547 0.199382 0.000000 
-0.641287 -0.507488 0.000000 
0.546089 0.347893 0.000000 
-0.003737 -0.624010 0.000000 
0.170429 -0.248423 0.000000 
0.399586 -0.485385 0.000000 
-0.024807 -0.641596 0.000000 
0.076360 -0.841817 0.000000 
0.159142 0.486124 0.000000 
0.852645 0.698122 0.000000 
0.875821 -0.800011 0.000000 
-0.149885 0.963131 0.000000 
0.425140 -0.531802 0.000000 
0.992201 -0.098220 0.000000 
-0.544710 0.371685 0.000000 
-0.050047 -0.839543 0.000000 
-0.470623 -0.588382 0.000000 
0.538976 0.648782 0.000000 
0.675236 -0.610974 0.000000 
-0.371350 -0.974378 0.000000 
0.114395 -0.879487 0.000000 
-0.556219 0.096300 0.000000 
0.425709 -0.144493 0.000000 
-0.965767 0.171583 0.000000 
-0.419479 0.831905 0.000000 
0.164988 -0.580830 0.000000 
0.063913 -0.477817 0.000000 
0.253500 -0.747461 0.000000 
0.733793 0.806288 0.000000 
-0.241628 -0.484808 0.000000 
0.068130 0.878953 0.000000 
0.824846 0.423902 0.000000 
-0.903111 -0.664522 0.000000 
0.503515 -0.230105 0.000000 
-0.047282 -0.164241 0.000000 
-0.032511 0.727981 0.000000 
-0.702641 -0.107663 0.000000 
0.030198 0.032345 0.000000 
-0.471115 -0.213217 0.000000 
-0.130555 0.072179 0.000000 
0.277311 0.041393 0.000000 
-0.254217 0.462898 0.000000 
0.493676 0.404865 0.000000 
0.141813 0.651525 0.000000 
-0.629371 0.557754 0.000000 
0.860276 0.475294 0.000000 
-0.732087 0.929234 0.000000 
-0.899724 0.283060 0.000000 
0.977153 0.870387 0.000000 
-0.671826 -0.927712 0.000000 
-0.658496 -0.489683 0.000000 
0.698824 -0.871245 0.000000 
-0.392645 -0.160882 0.000000 
-0.531093 0.236478 0.000000 
0.899598 -0.490004 0.000000 
-0.366074 0.633104 0.000000 
-0.597389 0.940935 0.000000 
-0.911153 0.232648 0.000000 
-0.535415 -0.670079 0.000000 
-0.844949 -0.444780 0.000000 
-0.948677 0.663719 0.000000 
-0.881021 -0.037257 0.000000 
0.744349 0.130716 0.000000 
0.822387 -0.619396 0.000000 
0.586663 0.491772 0.000000 
0.166285 0.530915 0.000000 
0.559054 -0.275488 0.000000 
-0.086713 0.832779 0.000000 
-0.492723 0.771662 0.000000 
-0.019331 0.204396 0.000000 
-0.856883 0.991463 0.000000 
0.770780 0.818439 0.000000 
-0.426685 0.351281 0.000000 
0.394783 0.935486 0.000000 
0.122661 0.663035 0.000000 
0.827591 0.441950 0.000000 
-0.285596 0.685237 0.000000 
-0.505268 0.338378 0.000000 
0.405544 0.345172 0.000000 
-0.884872 0.233562 0.000000 
-0.983414 -0.176967 0.000000 
-0.270837 0.018164 0.000000 
0.681883 -0.384482 0.000000 
0.684612 -0.795043 0.000000 
-0.573571 -0.291430 0.000000 
0.415238 0.875766 0.000000 
0.533524 0.482604 0.000000 
-0.965812 -0.932212 0.000000 
0.364144 0.127078 0.000000 
0.595096 -0.181048 0.000000 
0.946884 0.643670 0.000000 
0.514118 -0.544387 0.000000 
0.826186 -0.811187 0.000000 
0.963337 -0.107447 0.000000 
0.863696 0.782110 0.000000 
-0.743089 0.588533 0.000000 
-0.880813 -0.511437 0.000000 
-0.555549 0.206753 0.000000 
-0.136568 0.167067 0.000000 
-0.460886 0.865579 0.000000 
0.116466 -0.134697 0.000000 
0.482219 -0.068989 0.000000 
0.776650 -0.294629 0.000000 
-0.865130 -0.097192 0.000000 
-0.111363 0.609981 0.000000 
0.682158 0.284714 0.000000 
0.230085 0.980322 0.000000 
0.785388 -0.165033 0.000000 
-0.734034 0.194592 0.000000 
-0.558696 -0.636114 0.000000 
-0.854255 0.361745 0.000000 
0.231718 0.047160 0.000000 
-0.561100 -0.641095 0.000000 
0.780632 0.878090 0.000000 
0.215752 -0.240950 0.000000 
-0.462433 -0.795930 0.000000 
0.895071 -0.974658 0.000000 
-0.054573 -0.777203 0.000000 
0.137421 -0.394121 0.000000 
0.436584 -0.135944 0.000000 
0.367225 0.286187 0.000000 
-0.137294 -0.147810 0.000000 
0.457138 0.689489 0.000000 
-0.012881 0.233427 0.000000 
0.163955 0.998655 0.000000 
-0.488009 -0.375287 0.000000 
0.037156 -0.587354 0.000000 
-0.159751 0.798463 0.000000 
-0.500136 0.975869 0.000000 
-0.246673 0.436537 0.000000 
-0.651673 0.324723 0.000000 
-0.786702 0.677950 0.000000 
-0.768596 -0.105864 0.000000 
0.792053 -0.603767 0.000000 
0.579669 0.655516 0.000000 
-0.405356 -0.599868 0.000000 
0.939676 -0.215225 0.000000 
0.657172 0.117411 0.000000 
0.644454 0.484998 0.000000 
0.345486 -0.077869 0.000000 
0.925074 0.770626 0.000000 
0.810853 -0.819793 0.000000 
0.880351 -0.423621 0.000000 
0.481737 -0.237690 0.000000 
0.444460 -0.815522 0.000000 
0.215264 -0.534590 0.000000 
-0.193502 -0.727459 0.000000 
0.342676 0.778490 0.000000 
-0.104683 -0.007373 0.000000 
0.413868 -0.470002 0.000000 
-0.075508 0.800982 0.000000 
-0.274359 -0.393103 0.000000 
0.120271 -0.678772 0.000000 
0.183054 0.817637 0.000000 
-0.727227 -0.307396 0.000000 
-0.315983 0.404618 0.000000 
CELL_DATA 184 
SCALARS MASS float 
LOOKUP_TABLE default 
0.051252 
0.046008 
0.051531 
0.046188 
0.052854 
0.051531 
0.052854 
0.052854 
0.051531 
0.050859 
0.052854 
0.047395 
0.052854 
0.052854 
0.051434 
0.045995 
0.052854 
0.051281 
0.051530 
0.046441 
0.052854 
0.052854 
0.050612 
0.049065 
0.052975 
0.049197 
0.049245 
0.052975 
0.052990 
0.055938 
0.049713 
0.052094 
0.055938 
0.050456 
0.055938 
0.053198 
0.052878 
0.049051 
0.052807 
0.049481 
0.052974 
0.049465 
0.049257 
0.055938 
0.105225 
0.104629 
0.082126 
0.094264 
0.094771 
0.094259 
0.094771 
0.083366 
0.104047 
0.083092 
0.081316 
0.081315 
0.092719 
0.079469 
0.108073 
0.092710 
0.108073 
0.093129 
0.104035 
0.094961 
0.104398 
0.081316 
0.125285 
0.099128 
0.098320 
0.087841 
0.082650 
0.097481 
0.086914 
0.081921 
0.086680 
0.086680 
0.081485 
0.107769 
0.088711 
0.084874 
0.107874 
0.082612 
0.095190 
0.095229 
0.083942 
0.085089 
0.079923 
0.081132 
0.095301 
0.097917 
0.090576 
0.085268 
0.095896 
0.081062 
0.095454 
0.090083 
0.081027 
0.085251 
0.101961 
0.083022 
0.095445 
0.080604 
0.081018 
0.085240 
0.097826 
0.090495 
0.095435 
0.095845 
0.081023 
0.085241 
0.090072 
0.081024 
0.095436 
0.101966 
0.083028 
0.085242 
0.080610 
0.081024 
0.095437 
0.082345 
0.082694 
0.085242 
0.109264 
0.089885 
0.095437 
0.108636 
0.083028 
0.085242 
0.080610 
0.074817 
0.073569 
0.082490 
0.095437 
0.095617 
0.133784 
0.138292 
0.139667 
0.139695 
0.139694 
0.139689 
0.139693 
0.140105 
0.139774 
0.086622 
0.086622 
0.089038 
0.077179 
0.079159 
0.072465 
0.084345 
0.092656 
0.093083 
0.084037 
0.098826 
0.101847 
0.085968 
0.086444 
0.074619 
0.064825 
0.094138 
0.124406 
0.086607 
0.131576 
0.102571 
0.084703 
0.076503 
0.084191 
0.084191 
0.086793 
0.075696 
0.084714 
0.090949 
0.084009 
0.076569 
0.086383 
0.098391 
0.110757 
0.093222 
0.143196 
0.101090 
0.091038 
0.150913 
0.178131 
0.206980 
SCALARS MASS float 
LOOKUP_TABLE default 
0.051252 
0.046008 
0.051531 
0.046188 
0.052854 
0.051531 
0.052854 
0.052854 
0.051531 
0.050859 
0.052854 
0.047395 
0.052854 
0.052854 
0.051434 
0.045995 
0.052854 
0.051281 
0.051530 
0.046441 
0.052854 
0.052854 
0.050612 
0.049065 
0.052975 
0.049197 
0.049245 
0.052975 
0.052990 
0.055938 
0.049713 
0.052094 
0.055938 
0.050456 
0.055938 
0.053198 
0.052878 
0.049051 
0.052807 
0.049481 
0.052974 
0.049465 
0.049257 
0.055938 
0.105225 
0.104629 
0.082126 
0.094264 
0.094771 
0.094259 
0.094771 
0.083366 
0.104047 
0.083092 
0.081316 
0.081315 
0.092719 
0.079469 
0.108073 
0.092710 
0.108073 
0.093129 
0.104035 
0.094961 
0.104398 
0.081316 
0.125285 
0.099128 
0.098320 
0.087841 
0.082650 
0.097481 
0.086914 
0.081921 
0.086680 
0.086680 
0.081485 
0.107769 
0.088711 
0.084874 
0.107874 
0.082612 
0.095190 
0.095229 
0.083942 
0.085089 
0.079923 
0.081132 
0.095301 
0.097917 
0.090576 
0.085268 
0.095896 
0.081062 
0.095454 
0.090083 
0.081027 
0.085251 
0.101961 
0.083022 
0.095445 
0.080604 
0.081018 
0.085240 
0.097826 
0.090495 
0.095435 
0.095845 
0.081023 
0.085241 
0.090072 
0.081024 
0.095436 
0.101966 
0.083028 
0.085242 
0.080610 
0.081024 
0.095437 
0.082345 
0.082694 
0.085242 
0.109264 
0.089885 
0.095437 
0.108636 
0.083028 
0.085242 
0.080610 
0.074817 
0.073569 
0.082490 
0.095437 
0.095617 
0.133784 
0.138292 
0.139667 
0.139695 
0.139694 
0.139689 
0.139693 
0.140105 
0.139774 
0.086622 
0.086622 
0.089038 
0.077179 
0.079159 
0.072465 
0.084345 
0.092656 
0.093083 
0.084037 
0.098826 
0.101847 
0.085968 
0.086444 
0.074619 
0.064825 
0.094138 
0.124406 
0.086607 
0.131576 
0.102571 
0.084703 
0.076503 
0.084191 
0.084191 
0.086793 
0.075696 
0.084714 
0.090949 
0.084009 
0.076569 
0.086383 
0.098391 
0.110757 
0.093222 
0.143196 
0.101090 
0.091038 
0.150913 
0.178131 
0.206980 
SCALARS DENSITY float 
LOOKUP_TABLE default 
20.000000 
20.000000 
20.000000 
20.000000 
20.000000 
20.000000 
20.000000 
20.000000 
20.000000 
20.000000 
20.000000 
20.000000 
20.000000 
20.000000 
20.000000 
20.000000 
20.000000 
20.000000 
20.000000 
20.000000 
20.000000 
20.000000 
20.000000 
20.000000 
20.000000 
20.000000 
20.000000 
20.000000 
20.000000 
20.000000 
20.000000 
20.000000 
20.000000 
20.000000 
20.000000 
20.000000 
20.000000 
20.000000 
20.000000 
20.000000 
20.000000 
20.000000 
20.000000 
20.000000 
20.000000 
20.000000 
20.000000 
20.000000 
20.000000 
20.000000 
20.000000 
20.000000 
20.000000 
20.000000 
20.000000 
20.000000 
20.000000 
20.000000 
20.000000 
20.000000 
20.000000 
20.000000 
20.000000 
20.000000 
20.000000 
20.000000 
20.000000 
20.000000 
20.000000 
20.000000 
20.000000 
20.000000 
20.000000 
20.000000 
20.000000 
20.000000 
20.000000 
20.000000 
20.000000 
20.000000 
20.000000 
20.000000 
20.000000 
20.000000 
20.000000 
20.000000 
20.000000 
20.000000 
20.000000 
20.000000 
20.000000 
20.000000 
20.000000 
20.000000 
20.000000 
20.000000 
20.000000 
20.000000 
20.000000 
20.000000 
20.000000 
20.000000 
20.000000 
20.000000 
20.000000 
20.000000 
20.000000 
20.000000 
20.000000 
20.000000 
20.000000 
20.000000 
20.000000 
20.000000 
20.000000 
20.000000 
20.000000 
20.000000 
20.000000 
20.000000 
20.000000 
20.000000 
20.000000 
20.000000 
20.000000 
20.000000 
20.000000 
20.000000 
20.000000 
20.000000 
20.000000 
20.000000 
20.000000 
20.000000 
20.000000 
20.000000 
20.000000 
20.000000 
20.000000 
20.000000 
20.000000 
20.000000 
20.000000 
20.000000 
20.000000 
20.000000 
20.000000 
20.000000 
20.000000 
20.000000 
20.000000 
20.000000 
20.000000 
20.000000 
20.000000 
20.000000 
20.000000 
20.000000 
20.000000 
20.000000 
20.000000 
20.000000 
20.000000 
20.000000 
20.000000 
20.000000 
20.000000 
20.000000 
20.000000 
20.000000 
20.000000 
20.000000 
20.000000 
20.000000 
20.000000 
20.000000 
20.000000 
20.000000 
20.000000 
20.000000 
20.000000 
20.000000 
20.000000 
20.000000 
SCALARS ELEM_i float 
LOOKUP_TABLE default 
206 
224 
165 
225 
183 
186 
206 
203 
166 
224 
164 
206 
203 
165 
225 
184 
186 
226 
183 
166 
224 
164 
206 
224 
165 
225 
183 
186 
226 
203 
166 
224 
164 
206 
203 
165 
225 
164 
186 
226 
183 
166 
224 
164 
206 
166 
186 
183 
203 
224 
164 
226 
226 
165 
186 
183 
204 
224 
165 
164 
203 
206 
225 
225 
186 
165 
206 
206 
206 
206 
206 
206 
206 
206 
206 
206 
206 
225 
225 
205 
225 
225 
205 
225 
225 
225 
224 
224 
225 
224 
204 
204 
204 
204 
204 
204 
204 
204 
204 
184 
204 
184 
184 
184 
184 
184 
184 
184 
184 
184 
164 
164 
184 
165 
165 
184 
165 
165 
165 
165 
165 
165 
166 
186 
185 
186 
186 
186 
186 
186 
186 
206 
186 
186 
206 
205 
204 
184 
185 
184 
185 
205 
204 
205 
185 
205 
205 
205 
205 
205 
205 
205 
205 
205 
204 
205 
205 
205 
205 
205 
205 
185 
186 
204 
185 
185 
185 
185 
185 
184 
184 
184 
184 
184 
184 
185 
185 
185 
185 
185 
185 
186 
204 
185 
VECTORS VELOCITY float 
0.000000 -5.238540 0.000000 
0.000000 -5.238540 0.000000 
-0.000000 -5.238540 0.000000 
0.000000 -5.238540 0.000000 
0.000000 -5.238540 0.000000 
0.000000 -5.238540 0.000000 
0.000000 -5.238540 0.000000 
0.000000 -5.238540 0.000000 
0.000000 -5.238540 0.000000 
0.000000 -5.238540 0.000000 
-0.000000 -5.238540 0.000000 
-0.000000 -5.238540 0.000000 
0.000000 -5.238540 0.000000 
0.000000 -5.238540 0.000000 
0.000000 -5.238540 0.000000 
-0.000000 -5.238540 0.000000 
0.000000 -5.238540 0.000000 
0.000000 -5.238540 0.000000 
-0.000000 -5.238540 0.000000 
0.000000 -5.238540 0.000000 
0.000000 -5.238540 0.000000 
-0.000000 -5.238540 0.000000 
-0.000000 -5.238540 0.000000 
0.000000 -5.238540 0.000000 
-0.000000 -5.238540 0.000000 
0.000000 -5.238540 0.000000 
0.000000 -5.238540 0.000000 
0.000000 -5.238540 0.000000 
0.000000 -5.238540 0.000000 
-0.000000 -5.238540 0.000000 
-0.000000 -5.238540 0.000000 
0.000000 -5.238540 0.000000 
-0.000000 -5.238540 0.000000 
-0.000000 -5.238540 0.000000 
0.000000 -5.238540 0.000000 
0.000000 -5.238540 0.000000 
0.000000 -5.238540 0.000000 
-0.000000 -5.238540 0.000000 
0.000000 -5.238540 0.000000 
0.000000 -5.238540 0.000000 
-0.000000 -5.238540 0.000000 
0.000000 -5.238540 0.000000 
0.000000 -5.238540 0.000000 
-0.000000 -5.238540 0.000000 
-0.000000 -5.238540 0.000000 
-0.000000 -5.238540 0.000000 
0.000000 -5.238540 0.000000 
0.000000 -5.238540 0.000000 
0.000000 -5.238540 0.000000 
0.000000 -5.238540 0.000000 
-0.000000 -5.238540 0.000000 
-0.000000 -5.238540 0.000000 
0.000000 -5.238540 0.000000 
0.000000 -5.238540 0.000000 
0.000000 -5.238540 0.000000 
0.000000 -5.238540 0.000000 
0.000000 -5.238540 0.000000 
0.000000 -5.238540 0.000000 
-0.000000 -5.238540 0.000000 
-0.000000 -5.238540 0.000000 
-0.000000 -5.238540 0.000000 
0.000000 -5.238540 0.000000 
0.000000 -5.238540 0.000000 
0.000000 -5.238540 0.000000 
-0.000000 -5.238540 0.000000 
-0.000000 -5.238540 0.000000 
-0.000000 -5.238540 0.000000 
-0.000000 -5.238540 0.000000 
-0.000000 -5.238540 0.000000 
-0.000000 -5.238540 0.000000 
-0.000000 -5.238540 0.000000 
-0.000000 -5.238540 0.000000 
-0.000000 -5.238540 0.000000 
-0.000000 -5.238540 0.000000 
-0.000000 -5.238540 0.000000 
-0.000000 -5.238540 0.000000 
-0.000000 -5.238540 0.000000 
-0.000000 -5.238540 0.000000 
-0.000000 -5.238540 0.000000 
-0.000000 -5.238540 0.000000 
0.000000 -5.238540 0.000000 
0.000000 -5.238540 0.000000 
-0.000000 -5.238540 0.000000 
0.000000 -5.238540 0.000000 
0.000000 -5.238540 0.000000 
-0.000000 -5.238540 0.000000 
0.000000 -5.238540 0.000000 
0.000000 -5.238540 0.000000 
0.000000 -5.238540 0.000000 
0.000000 -5.238540 0.000000 
0.000000 -5.238540 0.000000 
0.000000 -5.238540 0.000000 
0.000000 -5.238540 0.000000 
0.000000 -5.238540 0.000000 
0.000000 -5.238540 0.000000 
0.000000 -5.238540 0.000000 
-0.000000 -5.238540 0.000000 
0.000000 -5.238540 0.000000 
-0.000000 -5.238540 0.000000 
-0.000000 -5.238540 0.000000 
0.000000 -5.238540 0.000000 
-0.000000 -5.238540 0.000000 
-0.000000 -5.238540 0.000000 
-0.000000 -5.238540 0.000000 
-0.000000 -5.238540 0.000000 
-0.000000 -5.238540 0.000000 
-0.000000 -5.238540 0.000000 
-0.000000 -5.238540 0.000000 
-0.000000 -5.238540 0.000000 
-0.000000 -5.238540 0.000000 
-0.000000 -5.238540 0.000000 
-0.000000 -5.238540 0.000000 
-0.000000 -5.238540 0.000000 
-0.000000 -5.238540 0.000000 
-0.000000 -5.238540 0.000000 
-0.000000 -5.238540 0.000000 
-0.000000 -5.238540 0.000000 
0.000000 -5.238540 0.000000 
-0.000000 -5.238540 0.000000 
0.000000 -5.238540 0.000000 
0.000000 -5.238540 0.000000 
-0.000000 -5.238540 0.000000 
-0.000000 -5.238540 0.000000 
-0.000000 -5.238540 0.000000 
0.000000 -5.238540 0.000000 
-0.000000 -5.238540 0.000000 
-0.000000 -5.238540 0.000000 
0.000000 -5.238540 0.000000 
-0.000000 -5.238540 0.000000 
-0.000000 -5.238540 0.000000 
-0.000000 -5.238540 0.000000 
-0.000000 -5.238540 0.000000 
-0.000000 -5.238540 0.000000 
-0.000000 -5.238540 0.000000 
-0.000000 -5.238540 0.000000 
-0.000000 -5.238540 0.000000 
-0.000000 -5.238540 0.000000 
-0.000000 -5.238540 0.000000 
0.000000 -5.238540 0.000000 
-0.000000 -5.238540 0.000000 
0.000000 -5.238540 0.000000 
0.000000 -5.238540 0.000000 
0.000000 -5.238540 0.000000 
-0.000000 -5.238540 0.000000 
-0.000000 -5.238540 0.000000 
-0.000000 -5.238540 0.000000 
-0.000000 -5.238540 0.000000 
-0.000000 -5.238540 0.000000 
0.000000 -5.238540 0.000000 
0.000000 -5.238540 0.000000 
0.000000 -5.238540 0.000000 
0.000000 -5.238540 0.000000 
0.000000 -5.238540 0.000000 
0.000000 -5.238540 0.000000 
0.000000 -5.238540 0.000000 
0.000000 -5.238540 0.000000 
0.000000 -5.238540 0.000000 
0.000000 -5.238540 0.000000 
0.000000 -5.238540 0.000000 
0.000000 -5.238540 0.000000 
0.000000 -5.238540 0.000000 
0.000000 -5.238540 0.000000 
-0.000000 -5.238540 0.000000 
0.000000 -5.238540 0.000000 
0.000000 -5.238540 0.000000 
0.000000 -5.238540 0.000000 
0.000000 -5.238540 0.000000 
0.000000 -5.238540 0.000000 
0.000000 -5.238540 0.000000 
-0.000000 -5.238540 0.000000 
-0.000000 -5.238540 0.000000 