# vtk DataFile Version 3.0 
vtk output 
ASCII 
DATASET UNSTRUCTURED_GRID 
POINTS 175 float 
-0.028103 -2.511350 0.000000 
-0.110731 -2.445847 0.000000 
-0.057116 -2.453480 0.000000 
-0.029408 -2.408927 0.000000 
-0.191451 -2.383520 0.000000 
-0.140521 -2.385835 0.000000 
-0.116485 -2.333109 0.000000 
-0.059142 -2.348549 0.000000 
-0.029867 -2.309031 0.000000 
-0.270703 -2.320434 0.000000 
-0.221735 -2.321776 0.000000 
-0.199828 -2.265101 0.000000 
-0.145619 -2.273941 0.000000 
-0.118372 -2.227256 0.000000 
-0.060036 -2.246864 0.000000 
-0.030060 -2.209051 0.000000 
-0.349348 -2.257011 0.000000 
-0.301287 -2.257573 0.000000 
-0.281358 -2.198681 0.000000 
-0.228801 -2.205017 0.000000 
-0.203630 -2.153531 0.000000 
-0.147423 -2.166929 0.000000 
-0.119043 -2.123046 0.000000 
-0.060145 -2.145446 0.000000 
-0.030078 -2.109100 0.000000 
-0.064177 -2.550746 0.000000 
-0.172753 -2.571455 0.000000 
-0.131282 -2.536993 0.000000 
-0.149704 -2.489991 0.000000 
-0.278910 -2.590335 0.000000 
-0.241294 -2.557479 0.000000 
-0.267778 -2.507534 0.000000 
-0.217578 -2.475760 0.000000 
-0.230431 -2.429137 0.000000 
-0.386964 -2.609250 0.000000 
-0.349367 -2.574061 0.000000 
-0.378841 -2.523702 0.000000 
-0.334282 -2.490897 0.000000 
-0.352889 -2.442047 0.000000 
-0.299319 -2.411668 0.000000 
-0.309550 -2.365463 0.000000 
-0.496551 -2.622385 0.000000 
-0.459223 -2.591307 0.000000 
-0.491508 -2.538734 0.000000 
-0.447577 -2.506089 0.000000 
-0.469759 -2.455406 0.000000 
-0.420031 -2.424894 0.000000 
-0.435735 -2.376304 0.000000 
-0.378864 -2.347874 0.000000 
-0.388072 -2.302480 0.000000 
-0.050823 -2.599300 0.000000 
-0.101355 -2.684396 0.000000 
-0.104539 -2.637488 0.000000 
-0.160554 -2.622733 0.000000 
-0.163306 -2.767820 0.000000 
-0.168632 -2.724137 0.000000 
-0.238162 -2.715133 0.000000 
-0.225259 -2.661296 0.000000 
-0.272462 -2.643176 0.000000 
-0.224630 -2.833420 0.000000 
-0.231401 -2.800579 0.000000 
-0.299180 -2.795831 0.000000 
-0.298556 -2.754153 0.000000 
-0.353052 -2.738389 0.000000 
-0.337753 -2.683203 0.000000 
-0.380973 -2.663359 0.000000 
-0.339475 -2.951613 0.000000 
-0.301431 -2.867747 0.000000 
-0.388093 -2.877012 0.000000 
-0.370836 -2.829280 0.000000 
-0.434416 -2.818384 0.000000 
-0.412081 -2.772333 0.000000 
-0.474090 -2.748836 0.000000 
-0.448947 -2.697855 0.000000 
-0.495184 -2.674119 0.000000 
-0.000000 -2.620549 0.000000 
0.044506 -2.706900 0.000000 
-0.000000 -2.679990 0.000000 
-0.044506 -2.706900 0.000000 
0.102827 -2.789075 0.000000 
0.048427 -2.768296 0.000000 
-0.000000 -2.802722 0.000000 
-0.048427 -2.768296 0.000000 
-0.102827 -2.789075 0.000000 
0.164009 -2.854152 0.000000 
0.110467 -2.842161 0.000000 
0.058847 -2.874656 0.000000 
-0.000000 -2.852329 0.000000 
-0.058847 -2.874656 0.000000 
-0.110467 -2.842161 0.000000 
-0.164009 -2.854152 0.000000 
0.259708 -3.004036 0.000000 
0.175411 -2.916063 0.000000 
0.148331 -3.048815 0.000000 
0.062371 -2.934911 0.000000 
-0.000000 -3.114798 0.000000 
-0.062371 -2.934911 0.000000 
-0.148331 -3.048815 0.000000 
-0.175411 -2.916063 0.000000 
-0.259708 -3.004036 0.000000 
0.050823 -2.599300 0.000000 
0.160554 -2.622733 0.000000 
0.104539 -2.637488 0.000000 
0.101355 -2.684396 0.000000 
0.272462 -2.643176 0.000000 
0.225259 -2.661296 0.000000 
0.238162 -2.715133 0.000000 
0.168632 -2.724137 0.000000 
0.163306 -2.767820 0.000000 
0.380973 -2.663359 0.000000 
0.337753 -2.683203 0.000000 
0.353052 -2.738389 0.000000 
0.298556 -2.754153 0.000000 
0.299180 -2.795831 0.000000 
0.231401 -2.800579 0.000000 
0.224630 -2.833420 0.000000 
0.495184 -2.674119 0.000000 
0.448947 -2.697855 0.000000 
0.474090 -2.748836 0.000000 
0.412081 -2.772333 0.000000 
0.434416 -2.818384 0.000000 
0.370836 -2.829280 0.000000 
0.388093 -2.877012 0.000000 
0.301431 -2.867747 0.000000 
0.339475 -2.951613 0.000000 
0.064177 -2.550746 0.000000 
0.149704 -2.489991 0.000000 
0.131282 -2.536993 0.000000 
0.172753 -2.571455 0.000000 
0.230431 -2.429137 0.000000 
0.217578 -2.475760 0.000000 
0.267778 -2.507534 0.000000 
0.241294 -2.557479 0.000000 
0.278910 -2.590335 0.000000 
0.309550 -2.365463 0.000000 
0.299319 -2.411668 0.000000 
0.352889 -2.442047 0.000000 
0.334282 -2.490897 0.000000 
0.378841 -2.523702 0.000000 
0.349367 -2.574061 0.000000 
0.386964 -2.609250 0.000000 
0.388072 -2.302480 0.000000 
0.378864 -2.347874 0.000000 
0.435735 -2.376304 0.000000 
0.420031 -2.424894 0.000000 
0.469759 -2.455406 0.000000 
0.447577 -2.506089 0.000000 
0.491508 -2.538734 0.000000 
0.459223 -2.591307 0.000000 
0.496551 -2.622385 0.000000 
0.028103 -2.511350 0.000000 
0.029408 -2.408927 0.000000 
0.057116 -2.453480 0.000000 
0.110731 -2.445847 0.000000 
0.029867 -2.309031 0.000000 
0.059142 -2.348549 0.000000 
0.116485 -2.333109 0.000000 
0.140521 -2.385835 0.000000 
0.191451 -2.383520 0.000000 
0.030060 -2.209051 0.000000 
0.060036 -2.246864 0.000000 
0.118372 -2.227256 0.000000 
0.145619 -2.273941 0.000000 
0.199828 -2.265101 0.000000 
0.221735 -2.321776 0.000000 
0.270703 -2.320434 0.000000 
0.030078 -2.109100 0.000000 
0.060145 -2.145446 0.000000 
0.119043 -2.123046 0.000000 
0.147423 -2.166929 0.000000 
0.203630 -2.153531 0.000000 
0.228801 -2.205017 0.000000 
0.281358 -2.198681 0.000000 
0.301287 -2.257573 0.000000 
0.349348 -2.257011 0.000000 
CELLS 175 350 
1 0 
1 1 
1 2 
1 3 
1 4 
1 5 
1 6 
1 7 
1 8 
1 9 
1 10 
1 11 
1 12 
1 13 
1 14 
1 15 
1 16 
1 17 
1 18 
1 19 
1 20 
1 21 
1 22 
1 23 
1 24 
1 25 
1 26 
1 27 
1 28 
1 29 
1 30 
1 31 
1 32 
1 33 
1 34 
1 35 
1 36 
1 37 
1 38 
1 39 
1 40 
1 41 
1 42 
1 43 
1 44 
1 45 
1 46 
1 47 
1 48 
1 49 
1 50 
1 51 
1 52 
1 53 
1 54 
1 55 
1 56 
1 57 
1 58 
1 59 
1 60 
1 61 
1 62 
1 63 
1 64 
1 65 
1 66 
1 67 
1 68 
1 69 
1 70 
1 71 
1 72 
1 73 
1 74 
1 75 
1 76 
1 77 
1 78 
1 79 
1 80 
1 81 
1 82 
1 83 
1 84 
1 85 
1 86 
1 87 
1 88 
1 89 
1 90 
1 91 
1 92 
1 93 
1 94 
1 95 
1 96 
1 97 
1 98 
1 99 
1 100 
1 101 
1 102 
1 103 
1 104 
1 105 
1 106 
1 107 
1 108 
1 109 
1 110 
1 111 
1 112 
1 113 
1 114 
1 115 
1 116 
1 117 
1 118 
1 119 
1 120 
1 121 
1 122 
1 123 
1 124 
1 125 
1 126 
1 127 
1 128 
1 129 
1 130 
1 131 
1 132 
1 133 
1 134 
1 135 
1 136 
1 137 
1 138 
1 139 
1 140 
1 141 
1 142 
1 143 
1 144 
1 145 
1 146 
1 147 
1 148 
1 149 
1 150 
1 151 
1 152 
1 153 
1 154 
1 155 
1 156 
1 157 
1 158 
1 159 
1 160 
1 161 
1 162 
1 163 
1 164 
1 165 
1 166 
1 167 
1 168 
1 169 
1 170 
1 171 
1 172 
1 173 
1 174 
CELL_TYPES 175 
1 
1 
1 
1 
1 
1 
1 
1 
1 
1 
1 
1 
1 
1 
1 
1 
1 
1 
1 
1 
1 
1 
1 
1 
1 
1 
1 
1 
1 
1 
1 
1 
1 
1 
1 
1 
1 
1 
1 
1 
1 
1 
1 
1 
1 
1 
1 
1 
1 
1 
1 
1 
1 
1 
1 
1 
1 
1 
1 
1 
1 
1 
1 
1 
1 
1 
1 
1 
1 
1 
1 
1 
1 
1 
1 
1 
1 
1 
1 
1 
1 
1 
1 
1 
1 
1 
1 
1 
1 
1 
1 
1 
1 
1 
1 
1 
1 
1 
1 
1 
1 
1 
1 
1 
1 
1 
1 
1 
1 
1 
1 
1 
1 
1 
1 
1 
1 
1 
1 
1 
1 
1 
1 
1 
1 
1 
1 
1 
1 
1 
1 
1 
1 
1 
1 
1 
1 
1 
1 
1 
1 
1 
1 
1 
1 
1 
1 
1 
1 
1 
1 
1 
1 
1 
1 
1 
1 
1 
1 
1 
1 
1 
1 
1 
1 
1 
1 
1 
1 
1 
1 
1 
1 
1 
1 
POINT_DATA 175 
VECTORS X_GC float 
-0.028103 -2.511350 0.000000 
-0.110731 -2.445847 0.000000 
-0.057116 -2.453480 0.000000 
-0.029408 -2.408927 0.000000 
-0.191451 -2.383520 0.000000 
-0.140521 -2.385835 0.000000 
-0.116485 -2.333109 0.000000 
-0.059142 -2.348549 0.000000 
-0.029867 -2.309031 0.000000 
-0.270703 -2.320434 0.000000 
-0.221735 -2.321776 0.000000 
-0.199828 -2.265101 0.000000 
-0.145619 -2.273941 0.000000 
-0.118372 -2.227256 0.000000 
-0.060036 -2.246864 0.000000 
-0.030060 -2.209051 0.000000 
-0.349348 -2.257011 0.000000 
-0.301287 -2.257573 0.000000 
-0.281358 -2.198681 0.000000 
-0.228801 -2.205017 0.000000 
-0.203630 -2.153531 0.000000 
-0.147423 -2.166929 0.000000 
-0.119043 -2.123046 0.000000 
-0.060145 -2.145446 0.000000 
-0.030078 -2.109100 0.000000 
-0.064177 -2.550746 0.000000 
-0.172753 -2.571455 0.000000 
-0.131282 -2.536993 0.000000 
-0.149704 -2.489991 0.000000 
-0.278910 -2.590335 0.000000 
-0.241294 -2.557479 0.000000 
-0.267778 -2.507534 0.000000 
-0.217578 -2.475760 0.000000 
-0.230431 -2.429137 0.000000 
-0.386964 -2.609250 0.000000 
-0.349367 -2.574061 0.000000 
-0.378841 -2.523702 0.000000 
-0.334282 -2.490897 0.000000 
-0.352889 -2.442047 0.000000 
-0.299319 -2.411668 0.000000 
-0.309550 -2.365463 0.000000 
-0.496551 -2.622385 0.000000 
-0.459223 -2.591307 0.000000 
-0.491508 -2.538734 0.000000 
-0.447577 -2.506089 0.000000 
-0.469759 -2.455406 0.000000 
-0.420031 -2.424894 0.000000 
-0.435735 -2.376304 0.000000 
-0.378864 -2.347874 0.000000 
-0.388072 -2.302480 0.000000 
-0.050823 -2.599300 0.000000 
-0.101355 -2.684396 0.000000 
-0.104539 -2.637488 0.000000 
-0.160554 -2.622733 0.000000 
-0.163306 -2.767820 0.000000 
-0.168632 -2.724137 0.000000 
-0.238162 -2.715133 0.000000 
-0.225259 -2.661296 0.000000 
-0.272462 -2.643176 0.000000 
-0.224630 -2.833420 0.000000 
-0.231401 -2.800579 0.000000 
-0.299180 -2.795831 0.000000 
-0.298556 -2.754153 0.000000 
-0.353052 -2.738389 0.000000 
-0.337753 -2.683203 0.000000 
-0.380973 -2.663359 0.000000 
-0.339475 -2.951613 0.000000 
-0.301431 -2.867747 0.000000 
-0.388093 -2.877012 0.000000 
-0.370836 -2.829280 0.000000 
-0.434416 -2.818384 0.000000 
-0.412081 -2.772333 0.000000 
-0.474090 -2.748836 0.000000 
-0.448947 -2.697855 0.000000 
-0.495184 -2.674119 0.000000 
-0.000000 -2.620549 0.000000 
0.044506 -2.706900 0.000000 
-0.000000 -2.679990 0.000000 
-0.044506 -2.706900 0.000000 
0.102827 -2.789075 0.000000 
0.048427 -2.768296 0.000000 
-0.000000 -2.802722 0.000000 
-0.048427 -2.768296 0.000000 
-0.102827 -2.789075 0.000000 
0.164009 -2.854152 0.000000 
0.110467 -2.842161 0.000000 
0.058847 -2.874656 0.000000 
-0.000000 -2.852329 0.000000 
-0.058847 -2.874656 0.000000 
-0.110467 -2.842161 0.000000 
-0.164009 -2.854152 0.000000 
0.259708 -3.004036 0.000000 
0.175411 -2.916063 0.000000 
0.148331 -3.048815 0.000000 
0.062371 -2.934911 0.000000 
-0.000000 -3.114798 0.000000 
-0.062371 -2.934911 0.000000 
-0.148331 -3.048815 0.000000 
-0.175411 -2.916063 0.000000 
-0.259708 -3.004036 0.000000 
0.050823 -2.599300 0.000000 
0.160554 -2.622733 0.000000 
0.104539 -2.637488 0.000000 
0.101355 -2.684396 0.000000 
0.272462 -2.643176 0.000000 
0.225259 -2.661296 0.000000 
0.238162 -2.715133 0.000000 
0.168632 -2.724137 0.000000 
0.163306 -2.767820 0.000000 
0.380973 -2.663359 0.000000 
0.337753 -2.683203 0.000000 
0.353052 -2.738389 0.000000 
0.298556 -2.754153 0.000000 
0.299180 -2.795831 0.000000 
0.231401 -2.800579 0.000000 
0.224630 -2.833420 0.000000 
0.495184 -2.674119 0.000000 
0.448947 -2.697855 0.000000 
0.474090 -2.748836 0.000000 
0.412081 -2.772333 0.000000 
0.434416 -2.818384 0.000000 
0.370836 -2.829280 0.000000 
0.388093 -2.877012 0.000000 
0.301431 -2.867747 0.000000 
0.339475 -2.951613 0.000000 
0.064177 -2.550746 0.000000 
0.149704 -2.489991 0.000000 
0.131282 -2.536993 0.000000 
0.172753 -2.571455 0.000000 
0.230431 -2.429137 0.000000 
0.217578 -2.475760 0.000000 
0.267778 -2.507534 0.000000 
0.241294 -2.557479 0.000000 
0.278910 -2.590335 0.000000 
0.309550 -2.365463 0.000000 
0.299319 -2.411668 0.000000 
0.352889 -2.442047 0.000000 
0.334282 -2.490897 0.000000 
0.378841 -2.523702 0.000000 
0.349367 -2.574061 0.000000 
0.386964 -2.609250 0.000000 
0.388072 -2.302480 0.000000 
0.378864 -2.347874 0.000000 
0.435735 -2.376304 0.000000 
0.420031 -2.424894 0.000000 
0.469759 -2.455406 0.000000 
0.447577 -2.506089 0.000000 
0.491508 -2.538734 0.000000 
0.459223 -2.591307 0.000000 
0.496551 -2.622385 0.000000 
0.028103 -2.511350 0.000000 
0.029408 -2.408927 0.000000 
0.057116 -2.453480 0.000000 
0.110731 -2.445847 0.000000 
0.029867 -2.309031 0.000000 
0.059142 -2.348549 0.000000 
0.116485 -2.333109 0.000000 
0.140521 -2.385835 0.000000 
0.191451 -2.383520 0.000000 
0.030060 -2.209051 0.000000 
0.060036 -2.246864 0.000000 
0.118372 -2.227256 0.000000 
0.145619 -2.273941 0.000000 
0.199828 -2.265101 0.000000 
0.221735 -2.321776 0.000000 
0.270703 -2.320434 0.000000 
0.030078 -2.109100 0.000000 
0.060145 -2.145446 0.000000 
0.119043 -2.123046 0.000000 
0.147423 -2.166929 0.000000 
0.203630 -2.153531 0.000000 
0.228801 -2.205017 0.000000 
0.281358 -2.198681 0.000000 
0.301287 -2.257573 0.000000 
0.349348 -2.257011 0.000000 
VECTORS X_EC float 
0.365338 0.403229 0.000000 
-0.560500 -0.481069 0.000000 
0.742506 -0.378024 0.000000 
0.382305 -0.979485 0.000000 
0.488864 0.677527 0.000000 
-0.173221 0.708769 0.000000 
-0.485700 -0.003034 0.000000 
0.768848 0.205412 0.000000 
0.388270 -0.328079 0.000000 
-0.480867 -0.174140 0.000000 
0.882558 -0.156018 0.000000 
0.597760 -0.921141 0.000000 
-0.106954 -0.801801 0.000000 
-0.461165 0.567957 0.000000 
0.780464 0.832663 0.000000 
0.390782 0.322187 0.000000 
0.541526 0.969651 0.000000 
-0.083269 0.977231 0.000000 
-0.342347 0.182193 0.000000 
0.974409 0.267729 0.000000 
0.647191 -0.427326 0.000000 
-0.083497 -0.246453 0.000000 
-0.452447 -0.838883 0.000000 
0.781886 -0.536474 0.000000 
0.391008 0.972852 0.000000 
0.834306 0.935072 0.000000 
0.245793 -0.785357 0.000000 
-0.293328 0.749405 0.000000 
-0.053850 0.114879 0.000000 
-0.374174 -0.530472 0.000000 
-0.863177 -0.974037 0.000000 
-0.518885 0.351714 0.000000 
0.828511 -0.077235 0.000000 
0.995597 -0.706655 0.000000 
-0.969469 -0.275128 0.000000 
0.541773 -0.750174 0.000000 
0.924928 0.569983 0.000000 
0.345672 0.127112 0.000000 
0.587563 -0.532361 0.000000 
-0.108854 -0.942477 0.000000 
0.024153 0.433746 0.000000 
0.455160 -0.097800 0.000000 
-0.030099 -0.517358 0.000000 
0.389608 0.772906 0.000000 
-0.181501 0.332203 0.000000 
0.106867 -0.352021 0.000000 
-0.539601 -0.763932 0.000000 
-0.335444 0.580108 0.000000 
0.925227 0.196304 0.000000 
-0.955063 -0.416522 0.000000 
0.660696 -0.409451 0.000000 
-0.682382 0.739340 0.000000 
-0.640992 0.106095 0.000000 
0.087206 -0.093100 0.000000 
0.122975 -0.134435 0.000000 
0.192215 -0.724149 0.000000 
-0.903899 -0.845701 0.000000 
0.928361 0.427494 0.000000 
-0.457994 0.182877 0.000000 
0.920190 0.751168 0.000000 
-0.991791 0.307814 0.000000 
-0.110654 0.243725 0.000000 
-0.118771 -0.318940 0.000000 
0.589674 -0.531745 0.000000 
0.390793 0.723234 0.000000 
0.952649 0.455350 0.000000 
0.413181 0.346776 0.000000 
-0.081402 -0.785412 0.000000 
-0.954795 -0.660336 0.000000 
0.820862 0.695277 0.000000 
-0.352596 0.548182 0.000000 
-0.642951 -0.073500 0.000000 
0.163165 -0.390717 0.000000 
-0.163690 0.921038 0.000000 
0.437392 0.600605 0.000000 
0.000000 -0.122586 0.000000 
-0.578581 -0.956857 0.000000 
0.000000 0.679861 0.000000 
0.578581 -0.956857 0.000000 
0.663248 0.152515 0.000000 
-0.629547 -0.127999 0.000000 
0.000000 0.336750 0.000000 
0.629547 -0.127999 0.000000 
-0.663248 0.152515 0.000000 
-0.132118 -0.968953 0.000000 
0.563933 0.869170 0.000000 
-0.765015 -0.692142 0.000000 
0.000000 -0.993558 0.000000 
0.765015 -0.692142 0.000000 
-0.563933 0.869170 0.000000 
0.132118 -0.968953 0.000000 
0.704269 0.937207 0.000000 
-0.280345 -0.133146 0.000000 
0.412755 0.887080 0.000000 
-0.810824 0.121294 0.000000 
0.000000 0.760633 0.000000 
0.810824 0.121294 0.000000 
-0.412755 0.887080 0.000000 
0.280345 -0.133146 0.000000 
-0.704269 0.937207 0.000000 
-0.660696 -0.409451 0.000000 
-0.087206 -0.093100 0.000000 
0.640992 0.106095 0.000000 
0.682382 0.739340 0.000000 
0.457994 0.182877 0.000000 
-0.928361 0.427494 0.000000 
0.903899 -0.845701 0.000000 
-0.192215 -0.724149 0.000000 
-0.122975 -0.134435 0.000000 
-0.952649 0.455350 0.000000 
-0.390793 0.723234 0.000000 
-0.589674 -0.531745 0.000000 
0.118771 -0.318940 0.000000 
0.110654 0.243725 0.000000 
0.991791 0.307814 0.000000 
-0.920190 0.751168 0.000000 
-0.437392 0.600605 0.000000 
0.163690 0.921038 0.000000 
-0.163165 -0.390717 0.000000 
0.642951 -0.073500 0.000000 
0.352596 0.548182 0.000000 
-0.820862 0.695277 0.000000 
0.954795 -0.660336 0.000000 
0.081402 -0.785412 0.000000 
-0.413181 0.346776 0.000000 
-0.834306 0.935072 0.000000 
0.053850 0.114879 0.000000 
0.293328 0.749405 0.000000 
-0.245793 -0.785357 0.000000 
-0.995597 -0.706655 0.000000 
-0.828511 -0.077235 0.000000 
0.518885 0.351714 0.000000 
0.863177 -0.974037 0.000000 
0.374174 -0.530472 0.000000 
-0.024153 0.433746 0.000000 
0.108854 -0.942477 0.000000 
-0.587563 -0.532361 0.000000 
-0.345672 0.127112 0.000000 
-0.924928 0.569983 0.000000 
-0.541773 -0.750174 0.000000 
0.969469 -0.275128 0.000000 
0.955063 -0.416522 0.000000 
-0.925227 0.196304 0.000000 
0.335444 0.580108 0.000000 
0.539601 -0.763932 0.000000 
-0.106867 -0.352021 0.000000 
0.181501 0.332203 0.000000 
-0.389608 0.772906 0.000000 
0.030099 -0.517358 0.000000 
-0.455160 -0.097800 0.000000 
-0.365338 0.403229 0.000000 
-0.382305 -0.979485 0.000000 
-0.742506 -0.378024 0.000000 
0.560500 -0.481069 0.000000 
-0.388270 -0.328079 0.000000 
-0.768848 0.205412 0.000000 
0.485700 -0.003034 0.000000 
0.173221 0.708769 0.000000 
-0.488864 0.677527 0.000000 
-0.390782 0.322187 0.000000 
-0.780464 0.832663 0.000000 
0.461165 0.567957 0.000000 
0.106954 -0.801801 0.000000 
-0.597760 -0.921141 0.000000 
-0.882558 -0.156018 0.000000 
0.480867 -0.174140 0.000000 
-0.391008 0.972852 0.000000 
-0.781886 -0.536474 0.000000 
0.452447 -0.838883 0.000000 
0.083497 -0.246453 0.000000 
-0.647191 -0.427326 0.000000 
-0.974409 0.267729 0.000000 
0.342347 0.182193 0.000000 
0.083269 0.977231 0.000000 
-0.541526 0.969652 0.000000 
CELL_DATA 175 
SCALARS MASS float 
LOOKUP_TABLE default 
0.781831 
0.864274 
0.946717 
0.864274 
0.881307 
0.921110 
0.858535 
0.921110 
0.881307 
0.887046 
0.910001 
0.869829 
0.915556 
0.869829 
0.910001 
0.887046 
0.892784 
0.915740 
0.892784 
0.927218 
0.892784 
0.927218 
0.892784 
0.915740 
0.892784 
0.781831 
0.864274 
0.946717 
0.864274 
0.881307 
0.921110 
0.858535 
0.921110 
0.881307 
0.887046 
0.910001 
0.869829 
0.915556 
0.869829 
0.910001 
0.887046 
0.892784 
0.915740 
0.892784 
0.927218 
0.892784 
0.927218 
0.892784 
0.915740 
0.892784 
0.781831 
0.864274 
0.946717 
0.864274 
0.881307 
0.921110 
0.858535 
0.921110 
0.881307 
0.887046 
0.910001 
0.869829 
0.915556 
0.869829 
0.910001 
0.887046 
0.892784 
0.915740 
0.892784 
0.927218 
0.892784 
0.927218 
0.892784 
0.915740 
0.892784 
0.781831 
0.864274 
0.946717 
0.864274 
0.881307 
0.921110 
0.858535 
0.921110 
0.881307 
0.887046 
0.910001 
0.869829 
0.915556 
0.869829 
0.910001 
0.887046 
0.892784 
0.915740 
0.892784 
0.927218 
0.892784 
0.927218 
0.892784 
0.915740 
0.892784 
0.781831 
0.864274 
0.946717 
0.864274 
0.881307 
0.921110 
0.858535 
0.921110 
0.881307 
0.887046 
0.910001 
0.869829 
0.915556 
0.869829 
0.910001 
0.887046 
0.892784 
0.915740 
0.892784 
0.927218 
0.892784 
0.927218 
0.892784 
0.915740 
0.892784 
0.781831 
0.864274 
0.946717 
0.864274 
0.881307 
0.921110 
0.858535 
0.921110 
0.881307 
0.887046 
0.910001 
0.869829 
0.915556 
0.869829 
0.910001 
0.887046 
0.892784 
0.915740 
0.892784 
0.927218 
0.892784 
0.927218 
0.892784 
0.915740 
0.892784 
0.781831 
0.864274 
0.946717 
0.864274 
0.881307 
0.921110 
0.858535 
0.921110 
0.881307 
0.887046 
0.910001 
0.869829 
0.915556 
0.869829 
0.910001 
0.887046 
0.892784 
0.915740 
0.892784 
0.927218 
0.892784 
0.927218 
0.892784 
0.915740 
0.892784 
SCALARS MASS float 
LOOKUP_TABLE default 
0.781831 
0.864274 
0.946717 
0.864274 
0.881307 
0.921110 
0.858535 
0.921110 
0.881307 
0.887046 
0.910001 
0.869829 
0.915556 
0.869829 
0.910001 
0.887046 
0.892784 
0.915740 
0.892784 
0.927218 
0.892784 
0.927218 
0.892784 
0.915740 
0.892784 
0.781831 
0.864274 
0.946717 
0.864274 
0.881307 
0.921110 
0.858535 
0.921110 
0.881307 
0.887046 
0.910001 
0.869829 
0.915556 
0.869829 
0.910001 
0.887046 
0.892784 
0.915740 
0.892784 
0.927218 
0.892784 
0.927218 
0.892784 
0.915740 
0.892784 
0.781831 
0.864274 
0.946717 
0.864274 
0.881307 
0.921110 
0.858535 
0.921110 
0.881307 
0.887046 
0.910001 
0.869829 
0.915556 
0.869829 
0.910001 
0.887046 
0.892784 
0.915740 
0.892784 
0.927218 
0.892784 
0.927218 
0.892784 
0.915740 
0.892784 
0.781831 
0.864274 
0.946717 
0.864274 
0.881307 
0.921110 
0.858535 
0.921110 
0.881307 
0.887046 
0.910001 
0.869829 
0.915556 
0.869829 
0.910001 
0.887046 
0.892784 
0.915740 
0.892784 
0.927218 
0.892784 
0.927218 
0.892784 
0.915740 
0.892784 
0.781831 
0.864274 
0.946717 
0.864274 
0.881307 
0.921110 
0.858535 
0.921110 
0.881307 
0.887046 
0.910001 
0.869829 
0.915556 
0.869829 
0.910001 
0.887046 
0.892784 
0.915740 
0.892784 
0.927218 
0.892784 
0.927218 
0.892784 
0.915740 
0.892784 
0.781831 
0.864274 
0.946717 
0.864274 
0.881307 
0.921110 
0.858535 
0.921110 
0.881307 
0.887046 
0.910001 
0.869829 
0.915556 
0.869829 
0.910001 
0.887046 
0.892784 
0.915740 
0.892784 
0.927218 
0.892784 
0.927218 
0.892784 
0.915740 
0.892784 
0.781831 
0.864274 
0.946717 
0.864274 
0.881307 
0.921110 
0.858535 
0.921110 
0.881307 
0.887046 
0.910001 
0.869829 
0.915556 
0.869829 
0.910001 
0.887046 
0.892784 
0.915740 
0.892784 
0.927218 
0.892784 
0.927218 
0.892784 
0.915740 
0.892784 
SCALARS DENSITY float 
LOOKUP_TABLE default 
214.894905 
207.816158 
199.647184 
202.079918 
205.992807 
207.093634 
205.071076 
204.539332 
201.181814 
199.809219 
200.207833 
200.930130 
201.379611 
202.523940 
203.300791 
203.549024 
200.686064 
200.546996 
200.453978 
200.744103 
199.560455 
200.572913 
199.427691 
199.717172 
199.718491 
214.908833 
197.247339 
204.874331 
206.280479 
205.334304 
200.568967 
205.472256 
208.036347 
205.201448 
223.404743 
204.626105 
206.570054 
207.703524 
201.727676 
202.820630 
204.727285 
204.400833 
224.555906 
208.075542 
208.509805 
201.782176 
199.629690 
199.773098 
205.312566 
201.703364 
218.798944 
221.796541 
227.702469 
192.825456 
249.300356 
222.596392 
208.403776 
211.615652 
207.732161 
176.910422 
222.664056 
185.951338 
240.071838 
198.449813 
216.022702 
220.098012 
5735.531613 
222.790802 
242.250158 
195.087695 
236.417096 
230.883115 
225.171151 
206.071265 
202.398725 
227.424251 
197.457905 
203.018581 
197.457906 
271.434265 
178.254492 
289.890040 
178.254491 
271.434262 
186.842593 
262.855582 
267.028770 
249.597216 
267.028769 
262.855581 
186.842593 
1866.704400 
518.481671 
71338.594397 
543.190025 
8653.859994 
543.190039 
71338.599786 
518.481684 
1866.704490 
218.798944 
192.825456 
227.702469 
221.796540 
207.732161 
211.615652 
208.403775 
222.596391 
249.300356 
220.098012 
216.022702 
198.449813 
240.071837 
185.951338 
222.664054 
176.910421 
202.398724 
206.071264 
225.171147 
230.883114 
236.417099 
195.087695 
242.250159 
222.790804 
5735.531640 
214.908833 
206.280479 
204.874331 
197.247339 
205.201448 
208.036346 
205.472256 
200.568966 
205.334304 
204.727285 
202.820630 
201.727676 
207.703523 
206.570054 
204.626105 
223.404744 
201.703364 
205.312566 
199.773098 
199.629690 
201.782176 
208.509805 
208.075542 
224.555907 
204.400833 
214.894905 
202.079918 
199.647184 
207.816157 
201.181814 
204.539332 
205.071076 
207.093633 
205.992807 
203.549024 
203.300791 
202.523940 
201.379611 
200.930130 
200.207833 
199.809219 
199.718491 
199.717172 
199.427691 
200.572913 
199.560455 
200.744103 
200.453978 
200.546996 
200.686064 
SCALARS ELEM_i float 
LOOKUP_TABLE default 
165 
192 
165 
165 
193 
193 
193 
166 
166 
220 
193 
193 
193 
194 
167 
167 
221 
221 
221 
194 
194 
194 
194 
167 
168 
165 
191 
192 
192 
218 
218 
219 
192 
192 
245 
218 
219 
219 
219 
219 
220 
245 
245 
246 
246 
246 
246 
247 
220 
247 
164 
191 
191 
191 
190 
190 
217 
191 
218 
190 
217 
217 
217 
217 
218 
218 
216 
216 
243 
217 
244 
244 
244 
245 
245 
164 
163 
164 
163 
136 
163 
163 
163 
190 
135 
136 
162 
162 
162 
190 
189 
108 
135 
135 
162 
162 
162 
189 
189 
216 
164 
137 
137 
137 
110 
137 
109 
136 
136 
110 
110 
109 
109 
109 
109 
136 
83 
83 
82 
82 
82 
109 
81 
108 
108 
165 
138 
138 
137 
138 
138 
111 
110 
110 
112 
111 
111 
111 
111 
110 
83 
85 
112 
85 
84 
84 
84 
84 
83 
83 
165 
165 
165 
138 
166 
166 
139 
139 
139 
167 
167 
140 
139 
139 
139 
112 
168 
167 
140 
140 
140 
140 
113 
113 
113 
VECTORS VELOCITY float 
-0.522821 -6.051261 0.000000 
-0.188001 -6.320942 0.000000 
-0.129189 -6.215180 0.000000 
0.123917 -6.371891 0.000000 
-0.527007 -6.369453 0.000000 
-0.183415 -6.396632 0.000000 
-0.091138 -6.450433 0.000000 
0.118920 -6.519576 0.000000 
-0.027751 -6.526838 0.000000 
-0.636490 -6.163878 0.000000 
-0.546709 -6.239510 0.000000 
-0.344087 -6.352956 0.000000 
-0.332019 -6.444366 0.000000 
-0.268335 -6.469910 0.000000 
-0.219650 -6.537119 0.000000 
-0.100835 -6.468892 0.000000 
-0.483715 -6.039522 0.000000 
-0.426946 -6.150508 0.000000 
-0.241682 -6.333587 0.000000 
-0.214271 -6.425666 0.000000 
-0.111975 -6.514874 0.000000 
-0.181696 -6.451929 0.000000 
-0.119265 -6.505128 0.000000 
-0.163123 -6.358299 0.000000 
-0.048648 -6.623024 0.000000 
-1.620142 -6.085047 0.000000 
-1.240909 -6.273762 0.000000 
-1.407648 -6.259422 0.000000 
-0.897305 -6.387468 0.000000 
-1.133971 -5.330034 0.000000 
-0.567375 -6.376114 0.000000 
-0.690461 -6.311803 0.000000 
-0.695688 -6.690639 0.000000 
-0.925327 -6.454919 0.000000 
-2.412597 -5.344008 0.000000 
-1.277833 -4.751421 0.000000 
-1.197482 -4.768969 0.000000 
-0.918691 -5.643613 0.000000 
-1.100519 -5.802644 0.000000 
-1.026881 -6.199745 0.000000 
-0.847461 -6.139307 0.000000 
-3.494141 -3.644072 0.000000 
-2.920081 -4.261587 0.000000 
-3.259367 -2.979717 0.000000 
-2.070551 -3.955367 0.000000 
-1.982181 -3.793675 0.000000 
-1.312679 -5.282116 0.000000 
-1.085157 -5.345651 0.000000 
-0.868715 -5.963954 0.000000 
-0.711131 -5.992133 0.000000 
-1.000403 -6.025801 0.000000 
1.445778 -4.851330 0.000000 
0.206283 -5.648453 0.000000 
-0.908537 -5.140006 0.000000 
-1.186680 -5.046989 0.000000 
-0.997016 -4.354970 0.000000 
-4.136816 -3.753984 0.000000 
-2.254650 -4.116819 0.000000 
-2.452027 -4.367788 0.000000 
-1.256065 1.075811 0.000000 
-2.560374 -2.472551 0.000000 
-2.610158 -2.665174 0.000000 
-4.315010 -5.718829 0.000000 
-4.240452 -5.178040 0.000000 
-3.608477 -5.369167 0.000000 
-3.278277 -5.469155 0.000000 
-11.354170 -25.404261 0.000000 
-1.144132 5.236999 0.000000 
-5.753668 -1.341859 0.000000 
-3.014033 -0.167650 0.000000 
-3.994970 -0.643115 0.000000 
-1.394892 -3.471975 0.000000 
-6.396556 -0.953538 0.000000 
-3.919309 -4.220726 0.000000 
-5.281981 -2.878056 0.000000 
-0.000000 -6.012800 0.000000 
-1.798545 -4.910249 0.000000 
0.000000 -5.168377 0.000000 
1.798545 -4.910249 0.000000 
-0.197836 -4.697284 0.000000 
-1.596408 -4.539203 0.000000 
0.000000 -5.371803 0.000000 
1.596408 -4.539203 0.000000 
0.197836 -4.697284 0.000000 
1.119929 0.913484 0.000000 
0.977922 -2.631325 0.000000 
0.603944 -1.089913 0.000000 
0.000000 -2.494034 0.000000 
-0.603944 -1.089912 0.000000 
-0.977922 -2.631325 0.000000 
-1.119929 0.913485 0.000000 
1.302573 -51.799028 0.000000 
0.214202 -4.165800 0.000000 
3.687061 -75.338106 0.000000 
0.538527 -9.354550 0.000000 
-0.000000 -113.098083 0.000000 
-0.538527 -9.354550 0.000000 
-3.687061 -75.338105 0.000000 
-0.214202 -4.165800 0.000000 
-1.302573 -51.799029 0.000000 
1.000403 -6.025801 0.000000 
0.908537 -5.140006 0.000000 
-0.206283 -5.648453 0.000000 
-1.445778 -4.851330 0.000000 
2.452028 -4.367788 0.000000 
2.254650 -4.116819 0.000000 
4.136816 -3.753984 0.000000 
0.997016 -4.354970 0.000000 
1.186680 -5.046989 0.000000 
3.278277 -5.469155 0.000000 
3.608477 -5.369168 0.000000 
4.240452 -5.178040 0.000000 
4.315010 -5.718829 0.000000 
2.610158 -2.665174 0.000000 
2.560374 -2.472551 0.000000 
1.256065 1.075811 0.000000 
5.281980 -2.878056 0.000000 
3.919308 -4.220726 0.000000 
6.396556 -0.953538 0.000000 
1.394892 -3.471975 0.000000 
3.994970 -0.643115 0.000000 
3.014033 -0.167650 0.000000 
5.753668 -1.341859 0.000000 
1.144132 5.236999 0.000000 
11.354170 -25.404262 0.000000 
1.620142 -6.085047 0.000000 
0.897305 -6.387468 0.000000 
1.407648 -6.259422 0.000000 
1.240909 -6.273762 0.000000 
0.925327 -6.454919 0.000000 
0.695688 -6.690639 0.000000 
0.690461 -6.311803 0.000000 
0.567376 -6.376114 0.000000 
1.133971 -5.330034 0.000000 
0.847461 -6.139307 0.000000 
1.026881 -6.199745 0.000000 
1.100519 -5.802644 0.000000 
0.918691 -5.643613 0.000000 
1.197482 -4.768969 0.000000 
1.277833 -4.751421 0.000000 
2.412597 -5.344008 0.000000 
0.711131 -5.992133 0.000000 
0.868715 -5.963954 0.000000 
1.085157 -5.345651 0.000000 
1.312679 -5.282116 0.000000 
1.982181 -3.793675 0.000000 
2.070551 -3.955367 0.000000 
3.259367 -2.979716 0.000000 
2.920081 -4.261587 0.000000 
3.494141 -3.644072 0.000000 
0.522821 -6.051261 0.000000 
-0.123917 -6.371891 0.000000 
0.129189 -6.215180 0.000000 
0.188001 -6.320942 0.000000 
0.027751 -6.526838 0.000000 
-0.118920 -6.519576 0.000000 
0.091138 -6.450433 0.000000 
0.183415 -6.396632 0.000000 
0.527007 -6.369453 0.000000 
0.100835 -6.468892 0.000000 
0.219650 -6.537119 0.000000 
0.268335 -6.469911 0.000000 
0.332019 -6.444366 0.000000 
0.344087 -6.352956 0.000000 
0.546709 -6.239510 0.000000 
0.636490 -6.163878 0.000000 
0.048648 -6.623024 0.000000 
0.163123 -6.358299 0.000000 
0.119265 -6.505128 0.000000 
0.181696 -6.451929 0.000000 
0.111975 -6.514874 0.000000 
0.214271 -6.425666 0.000000 
0.241682 -6.333587 0.000000 
0.426946 -6.150508 0.000000 
0.483715 -6.039522 0.000000 
TENSORS STRESS float 
16.920909 0.287440 0.000000 
0.000000 -0.563646 0.000000 
0.000000 0.000000 0.000000 

-4.462440 5.315253 0.000000 
0.000000 -17.669109 0.000000 
0.000000 0.000000 0.000000 

55.461135 1.852527 0.000000 
0.000000 36.517065 0.000000 
0.000000 0.000000 0.000000 

38.314545 1.188919 0.000000 
0.000000 24.122968 0.000000 
0.000000 0.000000 0.000000 

17.372534 6.096424 0.000000 
0.000000 7.967808 0.000000 
0.000000 0.000000 0.000000 

10.010848 5.581388 0.000000 
0.000000 -0.514147 0.000000 
0.000000 0.000000 0.000000 

7.629009 4.158995 0.000000 
0.000000 -0.954750 0.000000 
0.000000 0.000000 0.000000 

12.092494 2.635531 0.000000 
0.000000 0.209329 0.000000 
0.000000 0.000000 0.000000 

13.628504 0.968696 0.000000 
0.000000 5.701048 0.000000 
0.000000 0.000000 0.000000 

18.605901 1.760288 0.000000 
0.000000 11.501095 0.000000 
0.000000 0.000000 0.000000 

34.210615 4.928020 0.000000 