# vtk DataFile Version 3.0 
vtk output 
ASCII 
DATASET UNSTRUCTURED_GRID 
POINTS 184 float 
-0.028072 -2.039996 0.000000 
-0.361673 -2.908246 0.000000 
0.473180 -2.537377 0.000000 
-0.445862 -2.349033 0.000000 
0.183049 -3.095246 0.000000 
0.220221 -2.090653 0.000000 
-0.286602 -2.131106 0.000000 
-0.112193 -3.134612 0.000000 
0.416954 -2.287475 0.000000 
-0.465331 -2.612792 0.000000 
0.393060 -2.825372 0.000000 
-0.165272 -2.065058 0.000000 
-0.235652 -3.035463 0.000000 
0.464099 -2.410133 0.000000 
-0.474312 -2.483755 0.000000 
0.293661 -2.963922 0.000000 
0.098065 -2.047867 0.000000 
-0.375343 -2.224384 0.000000 
0.052042 -3.158085 0.000000 
0.335889 -2.170915 0.000000 
-0.426505 -2.735783 0.000000 
0.446215 -2.669761 0.000000 
-0.119751 -2.052090 0.000000 
-0.313296 -2.953465 0.000000 
0.472936 -2.490793 0.000000 
-0.460707 -2.395437 0.000000 
0.256550 -3.017701 0.000000 
0.175171 -2.071194 0.000000 
-0.345858 -2.187370 0.000000 
-0.058963 -3.143824 0.000000 
0.366174 -2.207546 0.000000 
-0.453226 -2.655353 0.000000 
0.428531 -2.718155 0.000000 
-0.209235 -2.084958 0.000000 
-0.159533 -3.105222 0.000000 
0.437207 -2.331284 0.000000 
-0.474308 -2.529444 0.000000 
0.338551 -2.933615 0.000000 
0.018538 -2.040275 0.000000 
-0.425291 -2.304928 0.000000 
0.103881 -3.144558 0.000000 
0.300465 -2.139843 0.000000 
-0.391161 -2.846053 0.000000 
0.458499 -2.626457 0.000000 
-0.079289 -2.070895 0.000000 
0.367356 -2.254471 0.000000 
0.047426 -2.067794 0.000000 
0.213949 -2.981686 0.000000 
-0.171234 -3.005626 0.000000 
-0.377702 -2.775287 0.000000 
0.391121 -2.732946 0.000000 
-0.306766 -2.183723 0.000000 
-0.385433 -2.285134 0.000000 
0.424611 -2.371841 0.000000 
0.137418 -2.086236 0.000000 
0.122626 -3.036303 0.000000 
-0.262628 -2.925321 0.000000 
-0.417608 -2.673664 0.000000 
0.440295 -2.584998 0.000000 
0.336115 -2.845720 0.000000 
-0.010402 -3.029565 0.000000 
-0.227737 -2.122948 0.000000 
-0.444539 -2.435022 0.000000 
-0.446254 -2.563808 0.000000 
0.254312 -2.139698 0.000000 
0.445454 -2.461305 0.000000 
-0.080792 -2.127979 0.000000 
-0.131944 -2.170743 0.000000 
-0.193399 -2.165170 0.000000 
-0.112903 -2.230147 0.000000 
-0.225122 -2.220742 0.000000 
-0.172116 -2.258423 0.000000 
-0.056626 -2.244454 0.000000 
-0.279965 -2.231294 0.000000 
-0.041154 -2.299495 0.000000 
-0.016173 -2.203876 0.000000 
-0.297032 -2.292031 0.000000 
-0.348774 -2.322460 0.000000 
-0.350950 -2.389931 0.000000 
-0.255122 -2.331401 0.000000 
-0.391894 -2.437122 0.000000 
-0.370480 -2.495404 0.000000 
-0.284542 -2.390415 0.000000 
-0.395828 -2.550564 0.000000 
-0.361418 -2.593290 0.000000 
-0.313402 -2.495884 0.000000 
-0.371921 -2.646786 0.000000 
-0.325430 -2.675844 0.000000 
-0.308201 -2.555043 0.000000 
-0.321068 -2.740106 0.000000 
-0.262905 -2.766395 0.000000 
-0.274238 -2.651597 0.000000 
-0.239028 -2.838859 0.000000 
-0.175189 -2.841172 0.000000 
-0.235360 -2.698134 0.000000 
-0.136797 -2.904821 0.000000 
-0.074665 -2.879436 0.000000 
-0.147350 -2.777358 0.000000 
-0.018364 -2.918195 0.000000 
0.037709 -2.882252 0.000000 
-0.085461 -2.800895 0.000000 
0.095600 -2.920083 0.000000 
0.135149 -2.863357 0.000000 
0.027775 -2.812856 0.000000 
0.197001 -2.876892 0.000000 
0.229450 -2.803601 0.000000 
0.091481 -2.799290 0.000000 
0.287083 -2.784104 0.000000 
0.301699 -2.711419 0.000000 
0.193750 -2.743419 0.000000 
0.351239 -2.684085 0.000000 
0.349408 -2.628032 0.000000 
0.239396 -2.693213 0.000000 
0.388768 -2.583536 0.000000 
0.370537 -2.528298 0.000000 
0.296970 -2.607490 0.000000 
0.395248 -2.477162 0.000000 
0.361138 -2.433024 0.000000 
0.309532 -2.550488 0.000000 
0.372507 -2.378860 0.000000 
0.325553 -2.338900 0.000000 
0.305340 -2.446346 0.000000 
0.319393 -2.276333 0.000000 
0.260330 -2.247347 0.000000 
0.281958 -2.385755 0.000000 
0.232249 -2.188819 0.000000 
0.169410 -2.183810 0.000000 
0.218315 -2.289840 0.000000 
0.131413 -2.138314 0.000000 
0.076601 -2.149559 0.000000 
0.032346 -2.116574 0.000000 
-0.021409 -2.146562 0.000000 
0.165596 -2.251266 0.000000 
0.046543 -2.203600 0.000000 
-0.185163 -2.308180 0.000000 
-0.267332 -2.439019 0.000000 
-0.039253 -2.772883 0.000000 
0.236039 -2.647450 0.000000 
0.279212 -2.512193 0.000000 
0.117393 -2.748391 0.000000 
0.233775 -2.365416 0.000000 
-0.267440 -2.584387 0.000000 
-0.183436 -2.703496 0.000000 
-0.081438 -2.341124 0.000000 
0.014749 -2.313620 0.000000 
-0.142416 -2.344635 0.000000 
-0.170690 -2.403133 0.000000 
-0.215271 -2.442236 0.000000 
-0.205377 -2.502382 0.000000 
-0.129648 -2.438780 0.000000 
-0.219011 -2.558688 0.000000 
-0.148417 -2.494036 0.000000 
-0.174960 -2.601235 0.000000 
-0.077433 -2.404172 0.000000 
-0.156247 -2.656165 0.000000 
-0.126473 -2.574074 0.000000 
-0.075425 -2.598702 0.000000 
-0.113465 -2.522810 0.000000 
-0.052787 -2.505996 0.000000 
-0.032515 -2.557345 0.000000 
-0.035487 -2.442887 0.000000 
0.030290 -2.369413 0.000000 
0.061977 -2.258626 0.000000 
-0.089712 -2.654714 0.000000 
0.008048 -2.426639 0.000000 
0.050862 -2.475324 0.000000 
0.053146 -2.529187 0.000000 
0.097507 -2.447834 0.000000 
0.010788 -2.570549 0.000000 
0.028194 -2.625992 0.000000 
0.017950 -2.677543 0.000000 
0.078766 -2.703178 0.000000 
0.083677 -2.625824 0.000000 
0.118835 -2.662093 0.000000 
0.180450 -2.636142 0.000000 
0.098838 -2.570707 0.000000 
0.165329 -2.459004 0.000000 
0.087138 -2.390140 0.000000 
0.162066 -2.573135 0.000000 
0.190599 -2.402884 0.000000 
0.131286 -2.358917 0.000000 
0.121587 -2.282673 0.000000 
-0.041296 -2.693569 0.000000 
0.198071 -2.517816 0.000000 
CELLS 184 368 
1 0 
1 1 
1 2 
1 3 
1 4 
1 5 
1 6 
1 7 
1 8 
1 9 
1 10 
1 11 
1 12 
1 13 
1 14 
1 15 
1 16 
1 17 
1 18 
1 19 
1 20 
1 21 
1 22 
1 23 
1 24 
1 25 
1 26 
1 27 
1 28 
1 29 
1 30 
1 31 
1 32 
1 33 
1 34 
1 35 
1 36 
1 37 
1 38 
1 39 
1 40 
1 41 
1 42 
1 43 
1 44 
1 45 
1 46 
1 47 
1 48 
1 49 
1 50 
1 51 
1 52 
1 53 
1 54 
1 55 
1 56 
1 57 
1 58 
1 59 
1 60 
1 61 
1 62 
1 63 
1 64 
1 65 
1 66 
1 67 
1 68 
1 69 
1 70 
1 71 
1 72 
1 73 
1 74 
1 75 
1 76 
1 77 
1 78 
1 79 
1 80 
1 81 
1 82 
1 83 
1 84 
1 85 
1 86 
1 87 
1 88 
1 89 
1 90 
1 91 
1 92 
1 93 
1 94 
1 95 
1 96 
1 97 
1 98 
1 99 
1 100 
1 101 
1 102 
1 103 
1 104 
1 105 
1 106 
1 107 
1 108 
1 109 
1 110 
1 111 
1 112 
1 113 
1 114 
1 115 
1 116 
1 117 
1 118 
1 119 
1 120 
1 121 
1 122 
1 123 
1 124 
1 125 
1 126 
1 127 
1 128 
1 129 
1 130 
1 131 
1 132 
1 133 
1 134 
1 135 
1 136 
1 137 
1 138 
1 139 
1 140 
1 141 
1 142 
1 143 
1 144 
1 145 
1 146 
1 147 
1 148 
1 149 
1 150 
1 151 
1 152 
1 153 
1 154 
1 155 
1 156 
1 157 
1 158 
1 159 
1 160 
1 161 
1 162 
1 163 
1 164 
1 165 
1 166 
1 167 
1 168 
1 169 
1 170 
1 171 
1 172 
1 173 
1 174 
1 175 
1 176 
1 177 
1 178 
1 179 
1 180 
1 181 
1 182 
1 183 
CELL_TYPES 184 
1 
1 
1 
1 
1 
1 
1 
1 
1 
1 
1 
1 
1 
1 
1 
1 
1 
1 
1 
1 
1 
1 
1 
1 
1 
1 
1 
1 
1 
1 
1 
1 
1 
1 
1 
1 
1 
1 
1 
1 
1 
1 
1 
1 
1 
1 
1 
1 
1 
1 
1 
1 
1 
1 
1 
1 
1 
1 
1 
1 
1 
1 
1 
1 
1 
1 
1 
1 
1 
1 
1 
1 
1 
1 
1 
1 
1 
1 
1 
1 
1 
1 
1 
1 
1 
1 
1 
1 
1 
1 
1 
1 
1 
1 
1 
1 
1 
1 
1 
1 
1 
1 
1 
1 
1 
1 
1 
1 
1 
1 
1 
1 
1 
1 
1 
1 
1 
1 
1 
1 
1 
1 
1 
1 
1 
1 
1 
1 
1 
1 
1 
1 
1 
1 
1 
1 
1 
1 
1 
1 
1 
1 
1 
1 
1 
1 
1 
1 
1 
1 
1 
1 
1 
1 
1 
1 
1 
1 
1 
1 
1 
1 
1 
1 
1 
1 
1 
1 
1 
1 
1 
1 
1 
1 
1 
1 
1 
1 
1 
1 
1 
1 
1 
1 
POINT_DATA 184 
VECTORS X_GC float 
-0.028072 -2.039996 0.000000 
-0.361673 -2.908246 0.000000 
0.473180 -2.537377 0.000000 
-0.445862 -2.349033 0.000000 
0.183049 -3.095246 0.000000 
0.220221 -2.090653 0.000000 
-0.286602 -2.131106 0.000000 
-0.112193 -3.134612 0.000000 
0.416954 -2.287475 0.000000 
-0.465331 -2.612792 0.000000 
0.393060 -2.825372 0.000000 
-0.165272 -2.065058 0.000000 
-0.235652 -3.035463 0.000000 
0.464099 -2.410133 0.000000 
-0.474312 -2.483755 0.000000 
0.293661 -2.963922 0.000000 
0.098065 -2.047867 0.000000 
-0.375343 -2.224384 0.000000 
0.052042 -3.158085 0.000000 
0.335889 -2.170915 0.000000 
-0.426505 -2.735783 0.000000 
0.446215 -2.669761 0.000000 
-0.119751 -2.052090 0.000000 
-0.313296 -2.953465 0.000000 
0.472936 -2.490793 0.000000 
-0.460707 -2.395437 0.000000 
0.256550 -3.017701 0.000000 
0.175171 -2.071194 0.000000 
-0.345858 -2.187370 0.000000 
-0.058963 -3.143824 0.000000 
0.366174 -2.207546 0.000000 
-0.453226 -2.655353 0.000000 
0.428531 -2.718155 0.000000 
-0.209235 -2.084958 0.000000 
-0.159533 -3.105222 0.000000 
0.437207 -2.331284 0.000000 
-0.474308 -2.529444 0.000000 
0.338551 -2.933615 0.000000 
0.018538 -2.040275 0.000000 
-0.425291 -2.304928 0.000000 
0.103881 -3.144558 0.000000 
0.300465 -2.139843 0.000000 
-0.391161 -2.846053 0.000000 
0.458499 -2.626457 0.000000 
-0.079289 -2.070895 0.000000 
0.367356 -2.254471 0.000000 
0.047426 -2.067794 0.000000 
0.213949 -2.981686 0.000000 
-0.171234 -3.005626 0.000000 
-0.377702 -2.775287 0.000000 
0.391121 -2.732946 0.000000 
-0.306766 -2.183723 0.000000 
-0.385433 -2.285134 0.000000 
0.424611 -2.371841 0.000000 
0.137418 -2.086236 0.000000 
0.122626 -3.036303 0.000000 
-0.262628 -2.925321 0.000000 
-0.417608 -2.673664 0.000000 
0.440295 -2.584998 0.000000 
0.336115 -2.845720 0.000000 
-0.010402 -3.029565 0.000000 
-0.227737 -2.122948 0.000000 
-0.444539 -2.435022 0.000000 
-0.446254 -2.563808 0.000000 
0.254312 -2.139698 0.000000 
0.445454 -2.461305 0.000000 
-0.080792 -2.127979 0.000000 
-0.131944 -2.170743 0.000000 
-0.193399 -2.165170 0.000000 
-0.112903 -2.230147 0.000000 
-0.225122 -2.220742 0.000000 
-0.172116 -2.258423 0.000000 
-0.056626 -2.244454 0.000000 
-0.279965 -2.231294 0.000000 
-0.041154 -2.299495 0.000000 
-0.016173 -2.203876 0.000000 
-0.297032 -2.292031 0.000000 
-0.348774 -2.322460 0.000000 
-0.350950 -2.389931 0.000000 
-0.255122 -2.331401 0.000000 
-0.391894 -2.437122 0.000000 
-0.370480 -2.495404 0.000000 
-0.284542 -2.390415 0.000000 
-0.395828 -2.550564 0.000000 
-0.361418 -2.593290 0.000000 
-0.313402 -2.495884 0.000000 
-0.371921 -2.646786 0.000000 
-0.325430 -2.675844 0.000000 
-0.308201 -2.555043 0.000000 
-0.321068 -2.740106 0.000000 
-0.262905 -2.766395 0.000000 
-0.274238 -2.651597 0.000000 
-0.239028 -2.838859 0.000000 
-0.175189 -2.841172 0.000000 
-0.235360 -2.698134 0.000000 
-0.136797 -2.904821 0.000000 
-0.074665 -2.879436 0.000000 
-0.147350 -2.777358 0.000000 
-0.018364 -2.918195 0.000000 
0.037709 -2.882252 0.000000 
-0.085461 -2.800895 0.000000 
0.095600 -2.920083 0.000000 
0.135149 -2.863357 0.000000 
0.027775 -2.812856 0.000000 
0.197001 -2.876892 0.000000 
0.229450 -2.803601 0.000000 
0.091481 -2.799290 0.000000 
0.287083 -2.784104 0.000000 
0.301699 -2.711419 0.000000 
0.193750 -2.743419 0.000000 
0.351239 -2.684085 0.000000 
0.349408 -2.628032 0.000000 
0.239396 -2.693213 0.000000 
0.388768 -2.583536 0.000000 
0.370537 -2.528298 0.000000 
0.296970 -2.607490 0.000000 
0.395248 -2.477162 0.000000 
0.361138 -2.433024 0.000000 
0.309532 -2.550488 0.000000 
0.372507 -2.378860 0.000000 
0.325553 -2.338900 0.000000 
0.305340 -2.446346 0.000000 
0.319393 -2.276333 0.000000 
0.260330 -2.247347 0.000000 
0.281958 -2.385755 0.000000 
0.232249 -2.188819 0.000000 
0.169410 -2.183810 0.000000 
0.218315 -2.289840 0.000000 
0.131413 -2.138314 0.000000 
0.076601 -2.149559 0.000000 
0.032346 -2.116574 0.000000 
-0.021409 -2.146562 0.000000 
0.165596 -2.251266 0.000000 
0.046543 -2.203600 0.000000 
-0.185163 -2.308180 0.000000 
-0.267332 -2.439019 0.000000 
-0.039253 -2.772883 0.000000 
0.236039 -2.647450 0.000000 
0.279212 -2.512193 0.000000 
0.117393 -2.748391 0.000000 
0.233775 -2.365416 0.000000 
-0.267440 -2.584387 0.000000 
-0.183436 -2.703496 0.000000 
-0.081438 -2.341124 0.000000 
0.014749 -2.313620 0.000000 
-0.142416 -2.344635 0.000000 
-0.170690 -2.403133 0.000000 
-0.215271 -2.442236 0.000000 
-0.205377 -2.502382 0.000000 
-0.129648 -2.438780 0.000000 
-0.219011 -2.558688 0.000000 
-0.148417 -2.494036 0.000000 
-0.174960 -2.601235 0.000000 
-0.077433 -2.404172 0.000000 
-0.156247 -2.656165 0.000000 
-0.126473 -2.574074 0.000000 
-0.075425 -2.598702 0.000000 
-0.113465 -2.522810 0.000000 
-0.052787 -2.505996 0.000000 
-0.032515 -2.557345 0.000000 
-0.035487 -2.442887 0.000000 
0.030290 -2.369413 0.000000 
0.061977 -2.258626 0.000000 
-0.089712 -2.654714 0.000000 
0.008048 -2.426639 0.000000 
0.050862 -2.475324 0.000000 
0.053146 -2.529187 0.000000 
0.097507 -2.447834 0.000000 
0.010788 -2.570549 0.000000 
0.028194 -2.625992 0.000000 
0.017950 -2.677543 0.000000 
0.078766 -2.703178 0.000000 
0.083677 -2.625824 0.000000 
0.118835 -2.662093 0.000000 
0.180450 -2.636142 0.000000 
0.098838 -2.570707 0.000000 
0.165329 -2.459004 0.000000 
0.087138 -2.390140 0.000000 
0.162066 -2.573135 0.000000 
0.190599 -2.402884 0.000000 
0.131286 -2.358917 0.000000 
0.121587 -2.282673 0.000000 
-0.041296 -2.693569 0.000000 
0.198071 -2.517816 0.000000 
VECTORS X_EC float 
-0.812854 0.599970 0.000000 
-0.588849 0.388308 0.000000 
-0.154535 -0.084152 0.000000 
-0.027586 0.660217 0.000000 
-0.248183 0.946404 0.000000 
-0.468141 0.937689 0.000000 
0.910681 -0.792625 0.000000 
-0.208874 0.964511 0.000000 
0.220308 0.249834 0.000000 
0.102205 0.418614 0.000000 
0.379598 -0.164185 0.000000 
0.101814 0.767053 0.000000 
0.626334 0.986501 0.000000 
-0.093991 -0.932444 0.000000 
0.162080 -0.441631 0.000000 
-0.957738 0.759478 0.000000 
0.346235 0.652446 0.000000 
-0.497715 -0.170775 0.000000 
0.674495 0.937567 0.000000 
0.760737 -0.527234 0.000000 
-0.156631 -0.761449 0.000000 
0.025230 0.798407 0.000000 
-0.201659 0.680601 0.000000 
-0.911358 0.689769 0.000000 
-0.152904 -0.394717 0.000000 
0.071382 0.969581 0.000000 
-0.678778 0.992812 0.000000 
-0.167807 0.807961 0.000000 
-0.694283 -0.417536 0.000000 
-0.572427 0.921027 0.000000 
0.558840 -0.283028 0.000000 
0.021504 0.702353 0.000000 
0.143124 -0.878966 0.000000 
0.394899 0.899719 0.000000 
0.119212 0.951185 0.000000 
0.085284 0.541895 0.000000 
0.162056 -0.137043 0.000000 
0.742995 0.557432 0.000000 
0.876414 0.601833 0.000000 
-0.164730 0.366188 0.000000 
0.304228 0.957028 0.000000 
0.996899 -0.734379 0.000000 
-0.392258 -0.026315 0.000000 
-0.056660 0.509712 0.000000 
-0.471406 0.805964 0.000000 
0.550959 0.029809 0.000000 
0.683829 0.785292 0.000000 
-0.426327 0.877907 0.000000 
0.144528 0.997078 0.000000 
-0.481988 -0.498088 0.000000 
0.392529 -0.780363 0.000000 
-0.954896 -0.441847 0.000000 
-0.430443 0.234224 0.000000 
0.169263 0.812272 0.000000 
0.083880 0.908241 0.000000 
0.184510 0.990440 0.000000 
0.750851 0.502141 0.000000 
-0.215944 0.824426 0.000000 
0.064697 0.233321 0.000000 
0.759237 -0.028536 0.000000 
-0.895255 0.999530 0.000000 
0.518247 -0.847012 0.000000 
-0.036407 -0.766523 0.000000 
-0.024976 0.092050 0.000000 
-0.695412 -0.735348 0.000000 
0.030308 -0.591298 0.000000 
-0.461385 -0.813471 0.000000 
-0.120373 -0.528378 0.000000 
0.289327 -0.565530 0.000000 
-0.247312 -0.132356 0.000000 
0.500817 -0.195050 0.000000 
0.147442 0.056151 0.000000 
-0.622495 -0.036976 0.000000 
0.866437 -0.124709 0.000000 
-0.725641 0.329970 0.000000 
-0.892180 -0.307494 0.000000 
0.980215 0.280204 0.000000 
-0.674840 0.483068 0.000000 
-0.660333 0.932876 0.000000 
0.700811 0.542671 0.000000 
-0.387371 -0.752521 0.000000 
-0.530132 -0.363974 0.000000 
0.896945 0.936102 0.000000 
-0.361147 0.003763 0.000000 
-0.590550 0.288603 0.000000 
-0.910651 -0.360774 0.000000 
-0.520526 0.645240 0.000000 
-0.830466 0.838961 0.000000 
-0.945324 0.033621 0.000000 
-0.859545 -0.732626 0.000000 
0.752701 -0.557368 0.000000 
0.828255 0.677312 0.000000 
0.593519 -0.074276 0.000000 
0.167925 -0.058851 0.000000 
0.569069 0.987563 0.000000 
-0.088019 0.365476 0.000000 
-0.502233 0.196240 0.000000 
-0.017669 -0.484280 0.000000 
-0.877575 0.454636 0.000000 
0.748608 0.215011 0.000000 
-0.430257 -0.327365 0.000000 
0.362666 0.467221 0.000000 
0.099008 0.089044 0.000000 
0.814836 -0.247627 0.000000 
-0.313340 0.179282 0.000000 
-0.529669 -0.309329 0.000000 
0.390130 -0.338070 0.000000 
-0.913884 -0.439306 0.000000 
0.988675 -0.923875 0.000000 
-0.291665 -0.710539 0.000000 
0.658406 0.893901 0.000000 
0.670615 0.520212 0.000000 
-0.595972 0.954756 0.000000 
0.408215 0.223575 0.000000 
0.529750 -0.144680 0.000000 
-0.979797 0.383269 0.000000 
0.365016 -0.485589 0.000000 
0.592412 -0.779838 0.000000 
0.936457 0.003255 0.000000 
0.516620 0.859069 0.000000 
0.829649 0.592668 0.000000 
0.964401 -0.691029 0.000000 
0.870712 0.175557 0.000000 
-0.735534 -0.017685 0.000000 
-0.879722 0.905031 0.000000 
-0.548324 -0.407874 0.000000 
-0.129397 -0.441267 0.000000 
-0.455434 0.265597 0.000000 
0.123916 -0.744574 0.000000 
0.489327 -0.669604 0.000000 
0.784360 -0.889504 0.000000 
-0.857271 -0.689585 0.000000 
-0.103971 0.008442 0.000000 
0.689711 -0.309336 0.000000 
0.234417 0.387868 0.000000 
0.782214 -0.739872 0.000000 
-0.738314 -0.514113 0.000000 
-0.573590 0.649668 0.000000 
-0.861413 -0.252048 0.000000 
0.217380 -0.677391 0.000000 
-0.558503 0.769437 0.000000 
0.782935 0.229248 0.000000 
0.222908 -0.976693 0.000000 
-0.457083 0.607493 0.000000 
0.901675 0.424134 0.000000 
-0.050559 0.630901 0.000000 
0.137930 -0.979112 0.000000 
0.435141 -0.718429 0.000000 
0.369181 -0.317450 0.000000 
-0.135680 -0.741469 0.000000 
0.460071 0.057918 0.000000 
-0.010554 -0.373094 0.000000 
0.166401 0.341569 0.000000 
-0.483780 -0.972184 0.000000 
0.041649 0.707769 0.000000 
-0.156844 0.160497 0.000000 
-0.497168 0.324679 0.000000 
-0.243565 -0.181268 0.000000 
-0.648085 -0.293363 0.000000 
-0.783235 0.048967 0.000000 
-0.763422 -0.714087 0.000000 
0.798066 0.796089 0.000000 
0.586822 0.057506 0.000000 
-0.401921 0.698090 0.000000 
0.946348 -0.822406 0.000000 
0.660921 -0.497841 0.000000 
0.645691 -0.138753 0.000000 
0.349955 -0.681109 0.000000 
0.928078 0.136995 0.000000 
0.812043 0.506615 0.000000 
0.880331 0.850286 0.000000 
0.474892 -0.978812 0.000000 
0.442152 0.505495 0.000000 
0.207765 0.747283 0.000000 
-0.203003 0.574278 0.000000 
0.341083 0.138044 0.000000 
-0.102195 -0.606637 0.000000 
0.419083 0.934270 0.000000 
-0.080440 0.154232 0.000000 
-0.270662 -0.980772 0.000000 
0.124761 0.726111 0.000000 
0.189418 0.217818 0.000000 
-0.724694 0.957125 0.000000 
-0.320476 -0.214561 0.000000 
CELL_DATA 184 
SCALARS MASS float 
LOOKUP_TABLE default 
0.051252 
0.046008 
0.051531 
0.046188 
0.052854 
0.051531 
0.052854 
0.052854 
0.051531 
0.050859 
0.052854 
0.047395 
0.052854 
0.052854 
0.051434 
0.045995 
0.052854 
0.051281 
0.051530 
0.046441 
0.052854 
0.052854 
0.050612 
0.049065 
0.052975 
0.049197 
0.049245 
0.052975 
0.052990 
0.055938 
0.049713 
0.052094 
0.055938 
0.050456 
0.055938 
0.053198 
0.052878 
0.049051 
0.052807 
0.049481 
0.052974 
0.049465 
0.049257 
0.055938 
0.105225 
0.104629 
0.082126 
0.094264 
0.094771 
0.094259 
0.094771 
0.083366 
0.104047 
0.083092 
0.081316 
0.081315 
0.092719 
0.079469 
0.108073 
0.092710 
0.108073 
0.093129 
0.104035 
0.094961 
0.104398 
0.081316 
0.125285 
0.099128 
0.098320 
0.087841 
0.082650 
0.097481 
0.086914 
0.081921 
0.086680 
0.086680 
0.081485 
0.107769 
0.088711 
0.084874 
0.107874 
0.082612 
0.095190 
0.095229 
0.083942 
0.085089 
0.079923 
0.081132 
0.095301 
0.097917 
0.090576 
0.085268 
0.095896 
0.081062 
0.095454 
0.090083 
0.081027 
0.085251 
0.101961 
0.083022 
0.095445 
0.080604 
0.081018 
0.085240 
0.097826 
0.090495 
0.095435 
0.095845 
0.081023 
0.085241 
0.090072 
0.081024 
0.095436 
0.101966 
0.083028 
0.085242 
0.080610 
0.081024 
0.095437 
0.082345 
0.082694 
0.085242 
0.109264 
0.089885 
0.095437 
0.108636 
0.083028 
0.085242 
0.080610 
0.074817 
0.073569 
0.082490 
0.095437 
0.095617 
0.133784 
0.138292 
0.139667 
0.139695 
0.139694 
0.139689 
0.139693 
0.140105 
0.139774 
0.086622 
0.086622 
0.089038 
0.077179 
0.079159 
0.072465 
0.084345 
0.092656 
0.093083 
0.084037 
0.098826 
0.101847 
0.085968 
0.086444 
0.074619 
0.064825 
0.094138 
0.124406 
0.086607 
0.131576 
0.102571 
0.084703 
0.076503 
0.084191 
0.084191 
0.086793 
0.075696 
0.084714 
0.090949 
0.084009 
0.076569 
0.086383 
0.098391 
0.110757 
0.093222 
0.143196 
0.101090 
0.091038 
0.150913 
0.178131 
0.206980 
SCALARS MASS float 
LOOKUP_TABLE default 
0.051252 
0.046008 
0.051531 
0.046188 
0.052854 
0.051531 
0.052854 
0.052854 
0.051531 
0.050859 
0.052854 
0.047395 
0.052854 
0.052854 
0.051434 
0.045995 
0.052854 
0.051281 
0.051530 
0.046441 
0.052854 
0.052854 
0.050612 
0.049065 
0.052975 
0.049197 
0.049245 
0.052975 
0.052990 
0.055938 
0.049713 
0.052094 
0.055938 
0.050456 
0.055938 
0.053198 
0.052878 
0.049051 
0.052807 
0.049481 
0.052974 
0.049465 
0.049257 
0.055938 
0.105225 
0.104629 
0.082126 
0.094264 
0.094771 
0.094259 
0.094771 
0.083366 
0.104047 
0.083092 
0.081316 
0.081315 
0.092719 
0.079469 
0.108073 
0.092710 
0.108073 
0.093129 
0.104035 
0.094961 
0.104398 
0.081316 
0.125285 
0.099128 
0.098320 
0.087841 
0.082650 
0.097481 
0.086914 
0.081921 
0.086680 
0.086680 
0.081485 
0.107769 
0.088711 
0.084874 
0.107874 
0.082612 
0.095190 
0.095229 
0.083942 
0.085089 
0.079923 
0.081132 
0.095301 
0.097917 
0.090576 
0.085268 
0.095896 
0.081062 
0.095454 
0.090083 
0.081027 
0.085251 
0.101961 
0.083022 
0.095445 
0.080604 
0.081018 
0.085240 
0.097826 
0.090495 
0.095435 
0.095845 
0.081023 
0.085241 
0.090072 
0.081024 
0.095436 
0.101966 
0.083028 
0.085242 
0.080610 
0.081024 
0.095437 
0.082345 
0.082694 
0.085242 
0.109264 
0.089885 
0.095437 
0.108636 
0.083028 
0.085242 
0.080610 
0.074817 
0.073569 
0.082490 
0.095437 
0.095617 
0.133784 
0.138292 
0.139667 
0.139695 
0.139694 
0.139689 
0.139693 
0.140105 
0.139774 
0.086622 
0.086622 
0.089038 
0.077179 
0.079159 
0.072465 
0.084345 
0.092656 
0.093083 
0.084037 
0.098826 
0.101847 
0.085968 
0.086444 
0.074619 
0.064825 
0.094138 
0.124406 
0.086607 
0.131576 
0.102571 
0.084703 
0.076503 
0.084191 
0.084191 
0.086793 
0.075696 
0.084714 
0.090949 
0.084009 
0.076569 
0.086383 
0.098391 
0.110757 
0.093222 
0.143196 
0.101090 
0.091038 
0.150913 
0.178131 
0.206980 
SCALARS DENSITY float 
LOOKUP_TABLE default 
20.242799 
50699612541332.765625 
34.728885 
28.850275 
17427163899937428187379533556400755083814371328.000000 
17.595306 
18.038635 
4691315667217822582590603896005770437831163904.000000 
24.119915 
57.010981 
1590062322.780580 
22.415526 
59165799755405140322070612844478464.000000 
21.086195 
47.280758 
66761697450847179349426176.000000 
22.633085 
21.846069 
5432637509081199822491818772981215979366365828890622951424.000000 
14.245189 
30647.357468 
39.284888 
21.563392 
4802058860466173952.000000 
38.237766 
93.281189 
6098367311268077205229247997673472.000000 
24.551904 
14.472297 
4165209227247671918293886332284078635578610774179840.000000 
15.387851 
53.705391 
4834.647278 
23.447360 
238299208953618393740452470651623571456000.000000 
25.584621 
62.177534 
129733041395431216.000000 
21.214440 
27.142041 
565625484619404793585865142715124559635917770410113070268416.000000 
64.370719 
17301212591.793331 
39.297995 
20.980722 
23.353374 
21.105124 
1461827541425620535056005070848.000000 
7803880124790272138425202114560.000000 
3622604.388731 
18450.763213 
15.936312 
27.937386 
27.009417 
23.364025 
772237863283129022396461060781894851887104.000000 
2153347517198031931834368.000000 
41.606096 
26.823197 
6143398136680.872070 
25688264470997074070835053278039745339850752.000000 
14.079047 
9.167982 
34.290201 
17.397125 
17.375043 
14.071637 
19.324426 
18.993440 
25.713904 
24.145526 
27.251117 
25.250741 
27.130884 
20.793132 
23.190457 
28.840037 
28.810684 
30.500206 
28.265384 
15.947389 
46.647376 
28.063829 
23.606775 
28.473190 
35.495277 
33.689554 
23.890738 
11.287452 
16679.815116 
33453993.704849 
21.588664 
567179544558797.375000 
18523232433733428.000000 
95.071736 
1194015630428511666176.000000 
7986205591232348160.000000 
949076955.304508 
2995174376781504944537600.000000 
2159048713958306873344.000000 
188447091421.161438 
309847125572423312786587648.000000 
1802888735520637184.000000 
5589143585122.416016 
391279987126638018560.000000 
1596100574974.293213 
332937090676.698181 
3265599526.455082 
705.223039 
1234983.244537 
28.044814 
29.071092 
54.874860 
21.868528 
24.187574 
22.478675 
31.512115 
14.713094 
11.716723 
25.995136 
24.613607 
31.680989 
24.771982 
26.455513 
25.926947 
18.848057 
18.743546 
24.124355 
15.549319 
18.097698 
15.083415 
17.143645 
25.225774 
22.564771 
25.163231 
26.229140 
2930543686.572437 
22.722123 
18.608892 
14591586.571197 
26.148549 
20.293952 
162.837363 
26.306890 
22.741859 
27.040180 
21.501706 
24.402220 
16.090409 
20.307222 
17.056468 
12.791735 
34.902197 
20.743966 
20.689248 
35.930213 
53.726782 
17.120565 
12.050000 
46.700841 
12.504394 
25.893178 
23.842432 
20.606955 
23.993841 
6.516852 
24.759889 
15.889738 
69.155968 
36.360973 
18.669381 
296.816720 
33.283280 
20.418165 
25.297606 
41.559789 
14.274635 
34.730219 
28.812531 
22.889770 
26.096508 
22.521322 
51.624486 
17.714665 
SCALARS ELEM_i float 
LOOKUP_TABLE default 
203 
220 
161 
222 
180 
183 
202 
200 
162 
221 
160 
203 
200 
161 
221 
180 
183 
222 
180 
162 
220 
161 
203 
220 
161 
222 
180 
183 
222 
200 
162 
221 
160 
203 
200 
162 
221 
160 
183 
222 
180 
162 
220 
161 
203 
162 
183 
180 
200 
220 
160 
222 
222 
162 
183 
180 
200 
221 
161 
160 
200 
202 
221 
221 
182 
161 
202 
202 
202 
202 
202 
202 
202 
202 
202 
202 
202 
222 
222 
202 
221 
221 
202 
221 
221 
221 
221 
221 
221 
220 
200 
201 
200 
200 
201 
200 
200 
200 
200 
180 
200 
180 
180 
180 
180 
180 
180 
180 
160 
180 
161 
161 
181 
161 
161 
181 
161 
161 
161 
162 
162 
161 
162 
182 
182 
182 
182 
182 
182 
182 
182 
202 
182 
182 
202 
201 
200 
181 
181 
180 
182 
201 
200 
202 
182 
202 
201 
201 
201 
201 
201 
201 
201 
201 
201 
201 
201 
201 
201 
201 
201 
182 
182 
201 
181 
181 
181 
181 
181 
181 
181 
180 
181 
181 
181 
181 
181 
182 
181 
181 
182 
182 
201 
181 
VECTORS VELOCITY float 
1.094382 -0.098715 0.000000 
-2.503264 -51.196080 0.000000 
-0.586182 0.719430 0.000000 
0.924035 -1.069918 0.000000 
1.502505 -143.988420 0.000000 
-0.415705 0.600770 0.000000 
-0.880530 1.559151 0.000000 
-2.303222 -167.446151 0.000000 
-0.647046 -0.138292 0.000000 
-0.324245 2.376005 0.000000 
0.695325 -23.538798 0.000000 
1.440334 0.795159 0.000000 
0.705127 -109.298713 0.000000 
-0.096455 -1.049364 0.000000 
-0.195238 0.162940 0.000000 
-1.183157 -72.015756 0.000000 
-0.680117 0.782460 0.000000 
1.337736 0.788649 0.000000 
1.757885 -183.335588 0.000000 
0.116117 1.198016 0.000000 
-0.485415 -1.023779 0.000000 
-0.058861 3.103413 0.000000 
1.501823 0.644012 0.000000 
-0.243928 -68.700319 0.000000 
-0.531345 0.301108 0.000000 
0.123432 -1.926246 0.000000 
-0.660759 -99.532195 0.000000 
-1.491578 0.734375 0.000000 
0.568088 1.348706 0.000000 
-1.711732 -173.536311 0.000000 
-0.319431 0.838393 0.000000 
-0.480457 3.485217 0.000000 
-0.245734 -0.079146 0.000000 
0.899198 0.777453 0.000000 
-1.715595 -149.511082 0.000000 
-0.583883 -0.647322 0.000000 
0.104979 0.670589 0.000000 
1.902855 -61.658665 0.000000 
0.666987 -0.226857 0.000000 
1.423794 -0.399909 0.000000 
2.548789 -173.953391 0.000000 
0.387361 1.174462 0.000000 
-1.744944 -28.575292 0.000000 
-0.183580 2.103718 0.000000 
0.771642 0.284815 0.000000 
-0.388610 0.041105 0.000000 
0.108546 0.039288 0.000000 
-0.711379 -77.903178 0.000000 
0.491241 -89.460234 0.000000 
-0.312261 -6.324485 0.000000 
-0.301531 -0.221273 0.000000 
-0.645745 1.049990 0.000000 
1.075674 -0.224905 0.000000 
-0.399192 -1.327186 0.000000 
-0.727070 0.167439 0.000000 
0.521188 -106.952685 0.000000 
1.622323 -52.265142 0.000000 
-0.313832 4.882175 0.000000 
-0.256140 1.833256 0.000000 
0.676242 -24.871167 0.000000 
-0.064878 -101.148646 0.000000 
-0.647305 1.166639 0.000000 
-0.703190 -0.583817 0.000000 
-0.012638 1.523067 0.000000 
0.128111 0.731686 0.000000 
-0.068371 0.037198 0.000000 
-0.100393 -0.027488 0.000000 
-0.308676 0.066255 0.000000 
-0.506066 0.524283 0.000000 
-0.185239 -0.334395 0.000000 
-0.331941 0.054673 0.000000 
-0.190312 -0.351038 0.000000 
-0.144938 -0.422523 0.000000 
-0.338680 0.060962 0.000000 
-0.214247 -0.154520 0.000000 
-0.046299 -0.702534 0.000000 
-0.121003 -0.756704 0.000000 
0.353692 -0.922443 0.000000 
0.239862 -2.024931 0.000000 
-0.028280 -1.135721 0.000000 
-0.283767 -1.171393 0.000000 
0.191807 -0.556272 0.000000 
0.298771 -2.147519 0.000000 
0.123563 1.312363 0.000000 
0.205921 3.089418 0.000000 
0.326910 -0.996007 0.000000 
0.152000 5.059566 0.000000 
0.467729 7.655850 0.000000 
0.263226 1.769581 0.000000 
0.455671 4.482047 0.000000 
0.635031 2.153654 0.000000 
0.761119 7.060695 0.000000 
0.895549 -16.753328 0.000000 
0.658439 -15.958648 0.000000 
0.627630 9.255727 0.000000 
0.790335 -38.023013 0.000000 
0.357772 -25.531481 0.000000 
0.345022 0.545925 0.000000 
0.095095 -38.369358 0.000000 
-0.178888 -24.787230 0.000000 
0.207204 -3.678045 0.000000 
-0.384978 -42.532815 0.000000 
-0.416890 -22.019422 0.000000 
-0.079230 -5.249530 0.000000 
-0.640995 -29.066445 0.000000 
-0.161361 -6.102706 0.000000 
-0.084062 -3.368532 0.000000 
-0.016830 -1.611019 0.000000 
-0.112388 9.036064 0.000000 
0.039292 6.330941 0.000000 
-0.111755 7.437742 0.000000 
-0.171690 4.964960 0.000000 
-0.096954 9.986838 0.000000 
-0.151863 2.519892 0.000000 
-0.193940 0.687050 0.000000 
-0.148945 5.225752 0.000000 
-0.223265 -0.428878 0.000000 
0.119595 -1.346322 0.000000 
0.059817 1.942613 0.000000 
-0.185959 -1.666014 0.000000 
-0.008212 -1.316131 0.000000 
-0.147220 -2.014691 0.000000 
-0.054059 -0.600018 0.000000 
-0.018443 -0.473352 0.000000 
0.001817 -1.985753 0.000000 
0.121339 0.093132 0.000000 
0.110012 -0.103602 0.000000 
-0.027991 -0.735798 0.000000 
0.135815 0.067726 0.000000 
0.144927 -0.317058 0.000000 
0.189490 -0.642788 0.000000 
0.067436 -0.579654 0.000000 
-0.062995 -0.488399 0.000000 
-0.000209 -0.624544 0.000000 
-0.147149 -0.641067 0.000000 
0.417641 -2.142079 0.000000 
0.047468 2.058862 0.000000 
-0.212569 7.343765 0.000000 
-0.027491 0.055906 0.000000 
0.019507 5.709521 0.000000 
-0.051082 -1.484092 0.000000 
0.425260 3.279375 0.000000 