# vtk DataFile Version 3.0 
vtk output 
ASCII 
DATASET UNSTRUCTURED_GRID 
POINTS 175 float 
-0.026061 -1.813158 0.000000 
-0.106992 -1.745103 0.000000 
-0.054870 -1.753336 0.000000 
-0.028809 -1.707452 0.000000 
-0.186430 -1.681027 0.000000 
-0.137056 -1.683554 0.000000 
-0.114311 -1.629906 0.000000 
-0.058186 -1.645572 0.000000 
-0.029377 -1.605395 0.000000 
-0.265318 -1.617872 0.000000 
-0.217198 -1.618671 0.000000 
-0.196633 -1.561375 0.000000 
-0.143120 -1.570083 0.000000 
-0.116563 -1.522815 0.000000 
-0.058945 -1.542461 0.000000 
-0.029568 -1.504341 0.000000 
-0.344206 -1.554716 0.000000 
-0.296791 -1.554709 0.000000 
-0.278030 -1.494766 0.000000 
-0.225992 -1.500632 0.000000 
-0.201664 -1.448515 0.000000 
-0.145749 -1.461989 0.000000 
-0.117890 -1.417646 0.000000 
-0.059328 -1.440352 0.000000 
-0.029759 -1.403286 0.000000 
-0.058559 -1.853909 0.000000 
-0.162226 -1.874752 0.000000 
-0.123292 -1.839134 0.000000 
-0.142917 -1.790151 0.000000 
-0.261851 -1.896908 0.000000 
-0.229092 -1.859881 0.000000 
-0.256854 -1.808649 0.000000 
-0.209613 -1.774537 0.000000 
-0.223062 -1.726963 0.000000 
-0.360414 -1.919208 0.000000 
-0.329787 -1.882085 0.000000 
-0.361761 -1.830283 0.000000 
-0.321587 -1.793874 0.000000 
-0.341985 -1.743640 0.000000 
-0.290702 -1.710841 0.000000 
-0.302189 -1.664106 0.000000 
-0.458977 -1.941508 0.000000 
-0.429420 -1.904434 0.000000 
-0.464588 -1.852392 0.000000 
-0.427556 -1.815364 0.000000 
-0.453135 -1.763850 0.000000 
-0.407738 -1.728534 0.000000 
-0.425037 -1.679106 0.000000 
-0.370772 -1.647477 0.000000 
-0.381315 -1.601250 0.000000 
-0.046960 -1.904724 0.000000 
-0.095301 -1.998770 0.000000 
-0.098873 -1.946123 0.000000 
-0.149405 -1.930925 0.000000 
-0.140093 -2.090474 0.000000 
-0.148617 -2.041776 0.000000 
-0.205981 -2.031539 0.000000 
-0.203197 -1.973335 0.000000 
-0.248777 -1.954189 0.000000 
-0.184111 -2.181438 0.000000 
-0.194039 -2.134347 0.000000 
-0.254475 -2.127047 0.000000 
-0.257893 -2.072937 0.000000 
-0.309886 -2.057565 0.000000 
-0.303554 -1.997020 0.000000 
-0.347255 -1.976862 0.000000 
-0.228129 -2.272401 0.000000 
-0.238687 -2.226177 0.000000 
-0.301302 -2.221225 0.000000 
-0.307162 -2.169186 0.000000 
-0.363386 -2.157065 0.000000 
-0.362692 -2.099554 0.000000 
-0.412122 -2.082261 0.000000 
-0.403017 -2.020114 0.000000 
-0.445733 -1.999535 0.000000 
-0.000000 -1.927339 0.000000 
0.043388 -2.023770 0.000000 
-0.000000 -1.993738 0.000000 
-0.043388 -2.023770 0.000000 
0.087158 -2.115967 0.000000 
0.043769 -2.092268 0.000000 
-0.000000 -2.130734 0.000000 
-0.043769 -2.092268 0.000000 
-0.087158 -2.115966 0.000000 
0.130831 -2.207096 0.000000 
0.087824 -2.185497 0.000000 
0.044436 -2.228197 0.000000 
-0.000000 -2.197132 0.000000 
-0.044436 -2.228197 0.000000 
-0.087824 -2.185497 0.000000 
-0.130831 -2.207096 0.000000 
0.174505 -2.298226 0.000000 
0.131782 -2.277660 0.000000 
0.088871 -2.323526 0.000000 
0.044532 -2.295662 0.000000 
-0.000000 -2.332063 0.000000 
-0.044532 -2.295662 0.000000 
-0.088871 -2.323526 0.000000 
-0.131782 -2.277660 0.000000 
-0.174505 -2.298226 0.000000 
0.046960 -1.904724 0.000000 
0.149405 -1.930925 0.000000 
0.098873 -1.946123 0.000000 
0.095301 -1.998770 0.000000 
0.248777 -1.954189 0.000000 
0.203197 -1.973335 0.000000 
0.205981 -2.031539 0.000000 
0.148617 -2.041776 0.000000 
0.140093 -2.090474 0.000000 
0.347255 -1.976862 0.000000 
0.303554 -1.997020 0.000000 
0.309886 -2.057565 0.000000 
0.257893 -2.072937 0.000000 
0.254475 -2.127047 0.000000 
0.194039 -2.134347 0.000000 
0.184111 -2.181438 0.000000 
0.445733 -1.999535 0.000000 
0.403017 -2.020114 0.000000 
0.412122 -2.082261 0.000000 
0.362692 -2.099554 0.000000 
0.363386 -2.157065 0.000000 
0.307162 -2.169186 0.000000 
0.301302 -2.221225 0.000000 
0.238687 -2.226177 0.000000 
0.228129 -2.272401 0.000000 
0.058559 -1.853909 0.000000 
0.142917 -1.790151 0.000000 
0.123292 -1.839134 0.000000 
0.162226 -1.874752 0.000000 
0.223062 -1.726963 0.000000 
0.209613 -1.774537 0.000000 
0.256854 -1.808649 0.000000 
0.229092 -1.859881 0.000000 
0.261851 -1.896908 0.000000 
0.302189 -1.664106 0.000000 
0.290702 -1.710841 0.000000 
0.341985 -1.743640 0.000000 
0.321587 -1.793874 0.000000 
0.361761 -1.830283 0.000000 
0.329787 -1.882085 0.000000 
0.360414 -1.919208 0.000000 
0.381315 -1.601250 0.000000 
0.370772 -1.647477 0.000000 
0.425037 -1.679106 0.000000 
0.407738 -1.728534 0.000000 
0.453135 -1.763850 0.000000 
0.427556 -1.815364 0.000000 
0.464588 -1.852392 0.000000 
0.429420 -1.904434 0.000000 
0.458977 -1.941508 0.000000 
0.026061 -1.813158 0.000000 
0.028809 -1.707452 0.000000 
0.054870 -1.753336 0.000000 
0.106992 -1.745103 0.000000 
0.029377 -1.605395 0.000000 
0.058186 -1.645572 0.000000 
0.114311 -1.629906 0.000000 
0.137056 -1.683554 0.000000 
0.186430 -1.681027 0.000000 
0.029568 -1.504341 0.000000 
0.058945 -1.542461 0.000000 
0.116563 -1.522815 0.000000 
0.143120 -1.570083 0.000000 
0.196633 -1.561375 0.000000 
0.217198 -1.618671 0.000000 
0.265318 -1.617872 0.000000 
0.029759 -1.403286 0.000000 
0.059328 -1.440352 0.000000 
0.117890 -1.417646 0.000000 
0.145749 -1.461989 0.000000 
0.201664 -1.448515 0.000000 
0.225992 -1.500632 0.000000 
0.278030 -1.494766 0.000000 
0.296791 -1.554709 0.000000 
0.344206 -1.554716 0.000000 
CELLS 175 350 
1 0 
1 1 
1 2 
1 3 
1 4 
1 5 
1 6 
1 7 
1 8 
1 9 
1 10 
1 11 
1 12 
1 13 
1 14 
1 15 
1 16 
1 17 
1 18 
1 19 
1 20 
1 21 
1 22 
1 23 
1 24 
1 25 
1 26 
1 27 
1 28 
1 29 
1 30 
1 31 
1 32 
1 33 
1 34 
1 35 
1 36 
1 37 
1 38 
1 39 
1 40 
1 41 
1 42 
1 43 
1 44 
1 45 
1 46 
1 47 
1 48 
1 49 
1 50 
1 51 
1 52 
1 53 
1 54 
1 55 
1 56 
1 57 
1 58 
1 59 
1 60 
1 61 
1 62 
1 63 
1 64 
1 65 
1 66 
1 67 
1 68 
1 69 
1 70 
1 71 
1 72 
1 73 
1 74 
1 75 
1 76 
1 77 
1 78 
1 79 
1 80 
1 81 
1 82 
1 83 
1 84 
1 85 
1 86 
1 87 
1 88 
1 89 
1 90 
1 91 
1 92 
1 93 
1 94 
1 95 
1 96 
1 97 
1 98 
1 99 
1 100 
1 101 
1 102 
1 103 
1 104 
1 105 
1 106 
1 107 
1 108 
1 109 
1 110 
1 111 
1 112 
1 113 
1 114 
1 115 
1 116 
1 117 
1 118 
1 119 
1 120 
1 121 
1 122 
1 123 
1 124 
1 125 
1 126 
1 127 
1 128 
1 129 
1 130 
1 131 
1 132 
1 133 
1 134 
1 135 
1 136 
1 137 
1 138 
1 139 
1 140 
1 141 
1 142 
1 143 
1 144 
1 145 
1 146 
1 147 
1 148 
1 149 
1 150 
1 151 
1 152 
1 153 
1 154 
1 155 
1 156 
1 157 
1 158 
1 159 
1 160 
1 161 
1 162 
1 163 
1 164 
1 165 
1 166 
1 167 
1 168 
1 169 
1 170 
1 171 
1 172 
1 173 
1 174 
CELL_TYPES 175 
1 
1 
1 
1 
1 
1 
1 
1 
1 
1 
1 
1 
1 
1 
1 
1 
1 
1 
1 
1 
1 
1 
1 
1 
1 
1 
1 
1 
1 
1 
1 
1 
1 
1 
1 
1 
1 
1 
1 
1 
1 
1 
1 
1 
1 
1 
1 
1 
1 
1 
1 
1 
1 
1 
1 
1 
1 
1 
1 
1 
1 
1 
1 
1 
1 
1 
1 
1 
1 
1 
1 
1 
1 
1 
1 
1 
1 
1 
1 
1 
1 
1 
1 
1 
1 
1 
1 
1 
1 
1 
1 
1 
1 
1 
1 
1 
1 
1 
1 
1 
1 
1 
1 
1 
1 
1 
1 
1 
1 
1 
1 
1 
1 
1 
1 
1 
1 
1 
1 
1 
1 
1 
1 
1 
1 
1 
1 
1 
1 
1 
1 
1 
1 
1 
1 
1 
1 
1 
1 
1 
1 
1 
1 
1 
1 
1 
1 
1 
1 
1 
1 
1 
1 
1 
1 
1 
1 
1 
1 
1 
1 
1 
1 
1 
1 
1 
1 
1 
1 
1 
1 
1 
1 
1 
1 
POINT_DATA 175 
VECTORS X_GC float 
-0.026061 -1.813158 0.000000 
-0.106992 -1.745103 0.000000 
-0.054870 -1.753336 0.000000 
-0.028809 -1.707452 0.000000 
-0.186430 -1.681027 0.000000 
-0.137056 -1.683554 0.000000 
-0.114311 -1.629906 0.000000 
-0.058186 -1.645572 0.000000 
-0.029377 -1.605395 0.000000 
-0.265318 -1.617872 0.000000 
-0.217198 -1.618671 0.000000 
-0.196633 -1.561375 0.000000 
-0.143120 -1.570083 0.000000 
-0.116563 -1.522815 0.000000 
-0.058945 -1.542461 0.000000 
-0.029568 -1.504341 0.000000 
-0.344206 -1.554716 0.000000 
-0.296791 -1.554709 0.000000 
-0.278030 -1.494766 0.000000 
-0.225992 -1.500632 0.000000 
-0.201664 -1.448515 0.000000 
-0.145749 -1.461989 0.000000 
-0.117890 -1.417646 0.000000 
-0.059328 -1.440352 0.000000 
-0.029759 -1.403286 0.000000 
-0.058559 -1.853909 0.000000 
-0.162226 -1.874752 0.000000 
-0.123292 -1.839134 0.000000 
-0.142917 -1.790151 0.000000 
-0.261851 -1.896908 0.000000 
-0.229092 -1.859881 0.000000 
-0.256854 -1.808649 0.000000 
-0.209613 -1.774537 0.000000 
-0.223062 -1.726963 0.000000 
-0.360414 -1.919208 0.000000 
-0.329787 -1.882085 0.000000 
-0.361761 -1.830283 0.000000 
-0.321587 -1.793874 0.000000 
-0.341985 -1.743640 0.000000 
-0.290702 -1.710841 0.000000 
-0.302189 -1.664106 0.000000 
-0.458977 -1.941508 0.000000 
-0.429420 -1.904434 0.000000 
-0.464588 -1.852392 0.000000 
-0.427556 -1.815364 0.000000 
-0.453135 -1.763850 0.000000 
-0.407738 -1.728534 0.000000 
-0.425037 -1.679106 0.000000 
-0.370772 -1.647477 0.000000 
-0.381315 -1.601250 0.000000 
-0.046960 -1.904724 0.000000 
-0.095301 -1.998770 0.000000 
-0.098873 -1.946123 0.000000 
-0.149405 -1.930925 0.000000 
-0.140093 -2.090474 0.000000 
-0.148617 -2.041776 0.000000 
-0.205981 -2.031539 0.000000 
-0.203197 -1.973335 0.000000 
-0.248777 -1.954189 0.000000 
-0.184111 -2.181438 0.000000 
-0.194039 -2.134347 0.000000 
-0.254475 -2.127047 0.000000 
-0.257893 -2.072937 0.000000 
-0.309886 -2.057565 0.000000 
-0.303554 -1.997020 0.000000 
-0.347255 -1.976862 0.000000 
-0.228129 -2.272401 0.000000 
-0.238687 -2.226177 0.000000 
-0.301302 -2.221225 0.000000 
-0.307162 -2.169186 0.000000 
-0.363386 -2.157065 0.000000 
-0.362692 -2.099554 0.000000 
-0.412122 -2.082261 0.000000 
-0.403017 -2.020114 0.000000 
-0.445733 -1.999535 0.000000 
-0.000000 -1.927339 0.000000 
0.043388 -2.023770 0.000000 
-0.000000 -1.993738 0.000000 
-0.043388 -2.023770 0.000000 
0.087158 -2.115967 0.000000 
0.043769 -2.092268 0.000000 
-0.000000 -2.130734 0.000000 
-0.043769 -2.092268 0.000000 
-0.087158 -2.115966 0.000000 
0.130831 -2.207096 0.000000 
0.087824 -2.185497 0.000000 
0.044436 -2.228197 0.000000 
-0.000000 -2.197132 0.000000 
-0.044436 -2.228197 0.000000 
-0.087824 -2.185497 0.000000 
-0.130831 -2.207096 0.000000 
0.174505 -2.298226 0.000000 
0.131782 -2.277660 0.000000 
0.088871 -2.323526 0.000000 
0.044532 -2.295662 0.000000 
-0.000000 -2.332063 0.000000 
-0.044532 -2.295662 0.000000 
-0.088871 -2.323526 0.000000 
-0.131782 -2.277660 0.000000 
-0.174505 -2.298226 0.000000 
0.046960 -1.904724 0.000000 
0.149405 -1.930925 0.000000 
0.098873 -1.946123 0.000000 
0.095301 -1.998770 0.000000 
0.248777 -1.954189 0.000000 
0.203197 -1.973335 0.000000 
0.205981 -2.031539 0.000000 
0.148617 -2.041776 0.000000 
0.140093 -2.090474 0.000000 
0.347255 -1.976862 0.000000 
0.303554 -1.997020 0.000000 
0.309886 -2.057565 0.000000 
0.257893 -2.072937 0.000000 
0.254475 -2.127047 0.000000 
0.194039 -2.134347 0.000000 
0.184111 -2.181438 0.000000 
0.445733 -1.999535 0.000000 
0.403017 -2.020114 0.000000 
0.412122 -2.082261 0.000000 
0.362692 -2.099554 0.000000 
0.363386 -2.157065 0.000000 
0.307162 -2.169186 0.000000 
0.301302 -2.221225 0.000000 
0.238687 -2.226177 0.000000 
0.228129 -2.272401 0.000000 
0.058559 -1.853909 0.000000 
0.142917 -1.790151 0.000000 
0.123292 -1.839134 0.000000 
0.162226 -1.874752 0.000000 
0.223062 -1.726963 0.000000 
0.209613 -1.774537 0.000000 
0.256854 -1.808649 0.000000 
0.229092 -1.859881 0.000000 
0.261851 -1.896908 0.000000 
0.302189 -1.664106 0.000000 
0.290702 -1.710841 0.000000 
0.341985 -1.743640 0.000000 
0.321587 -1.793874 0.000000 
0.361761 -1.830283 0.000000 
0.329787 -1.882085 0.000000 
0.360414 -1.919208 0.000000 
0.381315 -1.601250 0.000000 
0.370772 -1.647477 0.000000 
0.425037 -1.679106 0.000000 
0.407738 -1.728534 0.000000 
0.453135 -1.763850 0.000000 
0.427556 -1.815364 0.000000 
0.464588 -1.852392 0.000000 
0.429420 -1.904434 0.000000 
0.458977 -1.941508 0.000000 
0.026061 -1.813158 0.000000 
0.028809 -1.707452 0.000000 
0.054870 -1.753336 0.000000 
0.106992 -1.745103 0.000000 
0.029377 -1.605395 0.000000 
0.058186 -1.645572 0.000000 
0.114311 -1.629906 0.000000 
0.137056 -1.683554 0.000000 
0.186430 -1.681027 0.000000 
0.029568 -1.504341 0.000000 
0.058945 -1.542461 0.000000 
0.116563 -1.522815 0.000000 
0.143120 -1.570083 0.000000 
0.196633 -1.561375 0.000000 
0.217198 -1.618671 0.000000 
0.265318 -1.617872 0.000000 
0.029759 -1.403286 0.000000 
0.059328 -1.440352 0.000000 
0.117890 -1.417646 0.000000 
0.145749 -1.461989 0.000000 
0.201664 -1.448515 0.000000 
0.225992 -1.500632 0.000000 
0.278030 -1.494766 0.000000 
0.296791 -1.554709 0.000000 
0.344206 -1.554716 0.000000 
VECTORS X_EC float 
0.338794 0.977637 0.000000 
-0.609100 0.058889 0.000000 
0.713312 0.170030 0.000000 
0.374519 -0.449400 0.000000 
0.423588 -0.806131 0.000000 
-0.218274 -0.772027 0.000000 
-0.513962 0.503734 0.000000 
0.756418 0.715220 0.000000 
0.381900 0.172828 0.000000 
-0.550868 0.341266 0.000000 
0.823577 0.352062 0.000000 
0.556234 -0.421442 0.000000 
-0.139443 -0.303873 0.000000 
-0.484677 -0.941998 0.000000 
0.766286 -0.676783 0.000000 
0.384386 0.808597 0.000000 
0.474677 -0.511337 0.000000 
-0.141715 -0.511433 0.000000 
-0.385608 0.679339 0.000000 
0.937896 0.758534 0.000000 
0.621631 0.054954 0.000000 
-0.105264 0.236853 0.000000 
-0.467428 -0.361773 0.000000 
0.771260 -0.055245 0.000000 
0.386873 -0.555634 0.000000 
0.761262 -0.472228 0.000000 
0.108942 -0.190852 0.000000 
-0.397202 -0.671691 0.000000 
-0.142083 0.667034 0.000000 
-0.595936 0.108259 0.000000 
0.978194 -0.391607 0.000000 
-0.660903 0.916768 0.000000 
0.724964 0.456248 0.000000 
0.899809 -0.186001 0.000000 
0.685384 0.409311 0.000000 
0.287229 -0.091847 0.000000 
0.702895 -0.791176 0.000000 
0.180633 0.717305 0.000000 
0.445811 0.039146 0.000000 
-0.220880 -0.403640 0.000000 
-0.071546 0.965434 0.000000 
-0.033296 0.710363 0.000000 
-0.417537 0.209854 0.000000 
0.039645 -0.492709 0.000000 
-0.441768 -0.992580 0.000000 
-0.109248 0.311969 0.000000 
-0.699407 -0.164786 0.000000 
-0.474522 -0.832065 0.000000 
0.820030 0.740941 0.000000 
0.957100 0.116869 0.000000 
0.610485 0.213778 0.000000 
-0.761092 -0.516603 0.000000 
-0.714655 0.772660 0.000000 
-0.057734 0.567493 0.000000 
-0.178789 0.721402 0.000000 
-0.067979 0.063976 0.000000 
0.677748 -0.074228 0.000000 
0.641556 -0.859973 0.000000 
-0.765897 0.881548 0.000000 
0.393446 -0.050589 0.000000 
0.522510 -0.686319 0.000000 
-0.691820 -0.784864 0.000000 
-0.647393 0.484654 0.000000 
0.028512 0.277127 0.000000 
-0.053800 -0.540233 0.000000 
0.514316 -0.812364 0.000000 
0.965681 -0.822580 0.000000 
-0.897068 0.553391 0.000000 
-0.083078 0.486538 0.000000 
-0.006893 -0.215987 0.000000 
0.724017 -0.379620 0.000000 
0.714996 0.843977 0.000000 
-0.642413 0.610520 0.000000 
-0.760780 -0.228461 0.000000 
-0.205471 -0.506276 0.000000 
0.000000 0.519080 0.000000 
-0.564049 -0.179107 0.000000 
0.000000 -0.584543 0.000000 
0.564049 -0.179107 0.000000 
0.866949 -0.934452 0.000000 
-0.569003 0.745617 0.000000 
0.000000 -0.735095 0.000000 
0.569003 0.745617 0.000000 
-0.866949 -0.934452 0.000000 
0.299194 0.295798 0.000000 
0.858290 0.004214 0.000000 
-0.577662 0.580660 0.000000 
0.000000 0.161282 0.000000 
0.577662 0.580660 0.000000 
-0.858290 0.004214 0.000000 
-0.299194 0.295798 0.000000 
-0.268560 -0.473952 0.000000 
0.286830 -0.751594 0.000000 
0.844677 -0.132395 0.000000 
-0.578910 -0.508558 0.000000 
0.000000 -0.017154 0.000000 
0.578910 -0.508558 0.000000 
-0.844677 -0.132395 0.000000 
-0.286830 -0.751594 0.000000 
0.268560 -0.473952 0.000000 
-0.610485 0.213778 0.000000 
0.057734 0.567493 0.000000 
0.714655 0.772660 0.000000 
0.761092 -0.516603 0.000000 
0.765897 0.881548 0.000000 
-0.641556 -0.859973 0.000000 
-0.677748 -0.074228 0.000000 
0.067979 0.063976 0.000000 
0.178789 0.721402 0.000000 
-0.514316 -0.812364 0.000000 
0.053800 -0.540233 0.000000 
-0.028512 0.277127 0.000000 
0.647393 0.484654 0.000000 
0.691820 -0.784864 0.000000 
-0.522510 -0.686319 0.000000 
-0.393446 -0.050589 0.000000 
0.205471 -0.506276 0.000000 
0.760780 -0.228461 0.000000 
0.642413 0.610520 0.000000 
-0.714996 0.843977 0.000000 
-0.724017 -0.379620 0.000000 
0.006894 -0.215987 0.000000 
0.083078 0.486538 0.000000 
0.897068 0.553391 0.000000 
-0.965681 -0.822580 0.000000 
-0.761262 -0.472228 0.000000 
0.142083 0.667034 0.000000 
0.397202 -0.671691 0.000000 
-0.108942 -0.190852 0.000000 
-0.899809 -0.186001 0.000000 
-0.724964 0.456248 0.000000 
0.660903 0.916768 0.000000 
-0.978194 -0.391607 0.000000 
0.595936 0.108259 0.000000 
0.071546 0.965434 0.000000 
0.220880 -0.403640 0.000000 
-0.445811 0.039146 0.000000 
-0.180633 0.717305 0.000000 
-0.702895 -0.791176 0.000000 
-0.287229 -0.091847 0.000000 
-0.685384 0.409311 0.000000 
-0.957100 0.116869 0.000000 
-0.820030 0.740941 0.000000 
0.474522 -0.832065 0.000000 
0.699407 -0.164786 0.000000 
0.109248 0.311969 0.000000 
0.441768 -0.992580 0.000000 
-0.039645 -0.492709 0.000000 
0.417537 0.209854 0.000000 
0.033296 0.710363 0.000000 
-0.338794 0.977637 0.000000 
-0.374519 -0.449400 0.000000 
-0.713312 0.170030 0.000000 
0.609100 0.058889 0.000000 
-0.381900 0.172828 0.000000 
-0.756418 0.715220 0.000000 
0.513962 0.503734 0.000000 
0.218274 -0.772027 0.000000 
-0.423588 -0.806131 0.000000 
-0.384386 0.808597 0.000000 
-0.766286 -0.676783 0.000000 
0.484677 -0.941998 0.000000 
0.139443 -0.303873 0.000000 
-0.556234 -0.421442 0.000000 
-0.823577 0.352062 0.000000 
0.550868 0.341266 0.000000 
-0.386873 -0.555634 0.000000 
-0.771260 -0.055245 0.000000 
0.467428 -0.361773 0.000000 
0.105264 0.236853 0.000000 
-0.621631 0.054954 0.000000 
-0.937896 0.758534 0.000000 
0.385608 0.679339 0.000000 
0.141715 -0.511433 0.000000 
-0.474677 -0.511337 0.000000 
CELL_DATA 175 
SCALARS MASS float 
LOOKUP_TABLE default 
0.781831 
0.864274 
0.946717 
0.864274 
0.881307 
0.921110 
0.858535 
0.921110 
0.881307 
0.887046 
0.910001 
0.869829 
0.915556 
0.869829 
0.910001 
0.887046 
0.892784 
0.915740 
0.892784 
0.927218 
0.892784 
0.927218 
0.892784 
0.915740 
0.892784 
0.781831 
0.864274 
0.946717 
0.864274 
0.881307 
0.921110 
0.858535 
0.921110 
0.881307 
0.887046 
0.910001 
0.869829 
0.915556 
0.869829 
0.910001 
0.887046 
0.892784 
0.915740 
0.892784 
0.927218 
0.892784 
0.927218 
0.892784 
0.915740 
0.892784 
0.781831 
0.864274 
0.946717 
0.864274 
0.881307 
0.921110 
0.858535 
0.921110 
0.881307 
0.887046 
0.910001 
0.869829 
0.915556 
0.869829 
0.910001 
0.887046 
0.892784 
0.915740 
0.892784 
0.927218 
0.892784 
0.927218 
0.892784 
0.915740 
0.892784 
0.781831 
0.864274 
0.946717 
0.864274 
0.881307 
0.921110 
0.858535 
0.921110 
0.881307 
0.887046 
0.910001 
0.869829 
0.915556 
0.869829 
0.910001 
0.887046 
0.892784 
0.915740 
0.892784 
0.927218 
0.892784 
0.927218 
0.892784 
0.915740 
0.892784 
0.781831 
0.864274 
0.946717 
0.864274 
0.881307 
0.921110 
0.858535 
0.921110 
0.881307 
0.887046 
0.910001 
0.869829 
0.915556 
0.869829 
0.910001 
0.887046 
0.892784 
0.915740 
0.892784 
0.927218 
0.892784 
0.927218 
0.892784 
0.915740 
0.892784 
0.781831 
0.864274 
0.946717 
0.864274 
0.881307 
0.921110 
0.858535 
0.921110 
0.881307 
0.887046 
0.910001 
0.869829 
0.915556 
0.869829 
0.910001 
0.887046 
0.892784 
0.915740 
0.892784 
0.927218 
0.892784 
0.927218 
0.892784 
0.915740 
0.892784 
0.781831 
0.864274 
0.946717 
0.864274 
0.881307 
0.921110 
0.858535 
0.921110 
0.881307 
0.887046 
0.910001 
0.869829 
0.915556 
0.869829 
0.910001 
0.887046 
0.892784 
0.915740 
0.892784 
0.927218 
0.892784 
0.927218 
0.892784 
0.915740 
0.892784 
SCALARS MASS float 
LOOKUP_TABLE default 
0.781831 
0.864274 
0.946717 
0.864274 
0.881307 
0.921110 
0.858535 
0.921110 
0.881307 
0.887046 
0.910001 
0.869829 
0.915556 
0.869829 
0.910001 
0.887046 
0.892784 
0.915740 
0.892784 
0.927218 
0.892784 
0.927218 
0.892784 
0.915740 
0.892784 
0.781831 
0.864274 
0.946717 
0.864274 
0.881307 
0.921110 
0.858535 
0.921110 
0.881307 
0.887046 
0.910001 
0.869829 
0.915556 
0.869829 
0.910001 
0.887046 
0.892784 
0.915740 
0.892784 
0.927218 
0.892784 
0.927218 
0.892784 
0.915740 
0.892784 
0.781831 
0.864274 
0.946717 
0.864274 
0.881307 
0.921110 
0.858535 
0.921110 
0.881307 
0.887046 
0.910001 
0.869829 
0.915556 
0.869829 
0.910001 
0.887046 
0.892784 
0.915740 
0.892784 
0.927218 
0.892784 
0.927218 
0.892784 
0.915740 
0.892784 
0.781831 
0.864274 
0.946717 
0.864274 
0.881307 
0.921110 
0.858535 
0.921110 
0.881307 
0.887046 
0.910001 
0.869829 
0.915556 
0.869829 
0.910001 
0.887046 
0.892784 
0.915740 
0.892784 
0.927218 
0.892784 
0.927218 
0.892784 
0.915740 
0.892784 
0.781831 
0.864274 
0.946717 
0.864274 
0.881307 
0.921110 
0.858535 
0.921110 
0.881307 
0.887046 
0.910001 
0.869829 
0.915556 
0.869829 
0.910001 
0.887046 
0.892784 
0.915740 
0.892784 
0.927218 
0.892784 
0.927218 
0.892784 
0.915740 
0.892784 
0.781831 
0.864274 
0.946717 
0.864274 
0.881307 
0.921110 
0.858535 
0.921110 
0.881307 
0.887046 
0.910001 
0.869829 
0.915556 
0.869829 
0.910001 
0.887046 
0.892784 
0.915740 
0.892784 
0.927218 
0.892784 
0.927218 
0.892784 
0.915740 
0.892784 
0.781831 
0.864274 
0.946717 
0.864274 
0.881307 
0.921110 
0.858535 
0.921110 
0.881307 
0.887046 
0.910001 
0.869829 
0.915556 
0.869829 
0.910001 
0.887046 
0.892784 
0.915740 
0.892784 
0.927218 
0.892784 
0.927218 
0.892784 
0.915740 
0.892784 
SCALARS DENSITY float 
LOOKUP_TABLE default 
200.000000 
200.000000 
200.000000 
200.000000 
200.000000 
200.000000 
200.000000 
200.000000 
200.000000 
200.000000 
200.000000 
200.000000 
200.000000 
200.000000 
200.000000 
200.000000 
200.000000 
200.000000 
200.000000 
200.000000 
200.000000 
200.000000 
200.000000 
200.000000 
200.000000 
200.000000 
200.000000 
200.000000 
200.000000 
200.000000 
200.000000 
200.000000 
200.000000 
200.000000 
200.000000 
200.000000 
200.000000 
200.000000 
200.000000 
200.000000 
200.000000 
200.000000 
200.000000 
200.000000 
200.000000 
200.000000 
200.000000 
200.000000 
200.000000 
200.000000 
200.000000 
200.000000 
200.000000 
200.000000 
200.000000 
200.000000 
200.000000 
200.000000 
200.000000 
200.000000 
200.000000 
200.000000 
200.000000 
200.000000 
200.000000 
200.000000 
200.000000 
200.000000 
200.000000 
200.000000 
200.000000 
200.000000 
200.000000 
200.000000 
200.000000 
200.000000 
200.000000 
200.000000 
200.000000 
200.000000 
200.000000 
200.000000 
200.000000 
200.000000 
200.000000 
200.000000 
200.000000 
200.000000 
200.000000 
200.000000 
200.000000 
200.000000 
200.000000 
200.000000 
200.000000 
200.000000 
200.000000 
200.000000 
200.000000 
200.000000 
200.000000 
200.000000 
200.000000 
200.000000 
200.000000 
200.000000 
200.000000 
200.000000 
200.000000 
200.000000 
200.000000 
200.000000 
200.000000 
200.000000 
200.000000 
200.000000 
200.000000 
200.000000 
200.000000 
200.000000 
200.000000 
200.000000 
200.000000 
200.000000 
200.000000 
200.000000 
200.000000 
200.000000 
200.000000 
200.000000 
200.000000 
200.000000 
200.000000 
200.000000 
200.000000 
200.000000 
200.000000 
200.000000 
200.000000 
200.000000 
200.000000 
200.000000 
200.000000 
200.000000 
200.000000 
200.000000 
200.000000 
200.000000 
200.000000 
200.000000 
200.000000 
200.000000 
200.000000 
200.000000 
200.000000 
200.000000 
200.000000 
200.000000 
200.000000 
200.000000 
200.000000 
200.000000 
200.000000 
200.000000 
200.000000 
200.000000 
200.000000 
200.000000 
200.000000 
200.000000 
200.000000 
200.000000 
200.000000 
200.000000 
200.000000 
SCALARS ELEM_i float 
LOOKUP_TABLE default 
170 
197 
170 
170 
197 
197 
198 
171 
171 
225 
198 
198 
198 
198 
171 
172 
225 
225 
226 
199 
199 
199 
199 
172 
172 
169 
196 
196 
197 
223 
196 
224 
197 
197 
223 
223 
223 
224 
224 
224 
225 
250 
250 
250 
250 
251 
251 
251 
225 
225 
169 
195 
196 
196 
195 
195 
195 
195 
223 
194 
194 
221 
222 
222 
222 
222 
193 
221 
221 
221 
221 
222 
249 
249 
249 
169 
168 
168 
168 
140 
168 
167 
168 
194 
140 
140 
167 
167 
167 
194 
194 
139 
139 
139 
166 
166 
166 
193 
193 
193 
169 
142 
142 
141 
115 
141 
141 
141 
141 
114 
114 
114 
114 
113 
140 
140 
87 
87 
87 
114 
113 
113 
113 
113 
139 
169 
143 
142 
142 
143 
143 
116 
142 
115 
117 
116 
116 
116 
115 
115 
115 
117 
117 
89 
89 
89 
88 
88 
88 
88 
170 
170 
170 
143 
171 
171 
144 
143 
143 
172 
171 
144 
144 
144 
144 
117 
172 
172 
145 
145 
145 
145 
118 
117 
117 
VECTORS VELOCITY float 
0.000000 -6.042960 0.000000 
-0.000000 -6.042960 0.000000 
-0.000000 -6.042960 0.000000 
-0.000000 -6.042960 0.000000 
0.000000 -6.042960 0.000000 
-0.000000 -6.042960 0.000000 
-0.000000 -6.042960 0.000000 
-0.000000 -6.042960 0.000000 
0.000000 -6.042960 0.000000 
0.000000 -6.042960 0.000000 
0.000000 -6.042960 0.000000 
-0.000000 -6.042960 0.000000 
0.000000 -6.042960 0.000000 
-0.000000 -6.042960 0.000000 
0.000000 -6.042960 0.000000 
0.000000 -6.042960 0.000000 
-0.000000 -6.042960 0.000000 
-0.000000 -6.042960 0.000000 
-0.000000 -6.042960 0.000000 
-0.000000 -6.042960 0.000000 
0.000000 -6.042960 0.000000 
0.000000 -6.042960 0.000000 
-0.000000 -6.042960 0.000000 
-0.000000 -6.042960 0.000000 
0.000000 -6.042960 0.000000 
0.000000 -6.042960 0.000000 
-0.000000 -6.042960 0.000000 
0.000000 -6.042960 0.000000 
0.000000 -6.042960 0.000000 
-0.000000 -6.042960 0.000000 
-0.000000 -6.042960 0.000000 
-0.000000 -6.042960 0.000000 
0.000000 -6.042960 0.000000 
0.000000 -6.042960 0.000000 
0.000000 -6.042960 0.000000 
0.000000 -6.042960 0.000000 
0.000000 -6.042960 0.000000 
-0.000000 -6.042960 0.000000 
-0.000000 -6.042960 0.000000 
0.000000 -6.042960 0.000000 
0.000000 -6.042960 0.000000 
-0.000000 -6.042960 0.000000 
0.000000 -6.042960 0.000000 
0.000000 -6.042960 0.000000 
0.000000 -6.042960 0.000000 
0.000000 -6.042960 0.000000 
-0.000000 -6.042960 0.000000 
-0.000000 -6.042960 0.000000 
0.000000 -6.042960 0.000000 
-0.000000 -6.042960 0.000000 
-0.000000 -6.042960 0.000000 
-0.000000 -6.042960 0.000000 
-0.000000 -6.042960 0.000000 
-0.000000 -6.042960 0.000000 
0.000000 -6.042960 0.000000 
-0.000000 -6.042960 0.000000 
-0.000000 -6.042960 0.000000 
-0.000000 -6.042960 0.000000 
-0.000000 -6.042960 0.000000 
-0.000000 -6.042960 0.000000 
0.000000 -6.042960 0.000000 
0.000000 -6.042960 0.000000 
0.000000 -6.042960 0.000000 
0.000000 -6.042960 0.000000 
0.000000 -6.042960 0.000000 
0.000000 -6.042960 0.000000 
-0.000000 -6.042960 0.000000 
-0.000000 -6.042960 0.000000 
-0.000000 -6.042960 0.000000 
0.000000 -6.042960 0.000000 
-0.000000 -6.042960 0.000000 
0.000000 -6.042960 0.000000 
0.000000 -6.042960 0.000000 
0.000000 -6.042960 0.000000 
-0.000000 -6.042960 0.000000 
0.000000 -6.042960 0.000000 
0.000000 -6.042960 0.000000 
0.000000 -6.042960 0.000000 
0.000000 -6.042960 0.000000 
0.000000 -6.042960 0.000000 
-0.000000 -6.042960 0.000000 
0.000000 -6.042960 0.000000 
0.000000 -6.042960 0.000000 
0.000000 -6.042960 0.000000 
0.000000 -6.042960 0.000000 
0.000000 -6.042960 0.000000 
0.000000 -6.042960 0.000000 
-0.000000 -6.042960 0.000000 
-0.000000 -6.042960 0.000000 
-0.000000 -6.042960 0.000000 
-0.000000 -6.042960 0.000000 
0.000000 -6.042960 0.000000 
-0.000000 -6.042960 0.000000 
0.000000 -6.042960 0.000000 
-0.000000 -6.042960 0.000000 
-0.000000 -6.042960 0.000000 
0.000000 -6.042960 0.000000 
-0.000000 -6.042960 0.000000 
0.000000 -6.042960 0.000000 
-0.000000 -6.042960 0.000000 
0.000000 -6.042960 0.000000 
-0.000000 -6.042960 0.000000 
0.000000 -6.042960 0.000000 
0.000000 -6.042960 0.000000 
-0.000000 -6.042960 0.000000 
-0.000000 -6.042960 0.000000 
0.000000 -6.042960 0.000000 
0.000000 -6.042960 0.000000 
-0.000000 -6.042960 0.000000 
0.000000 -6.042960 0.000000 
-0.000000 -6.042960 0.000000 
-0.000000 -6.042960 0.000000 
-0.000000 -6.042960 0.000000 
-0.000000 -6.042960 0.000000 
-0.000000 -6.042960 0.000000 
-0.000000 -6.042960 0.000000 
-0.000000 -6.042960 0.000000 
-0.000000 -6.042960 0.000000 
-0.000000 -6.042960 0.000000 
-0.000000 -6.042960 0.000000 
-0.000000 -6.042960 0.000000 
-0.000000 -6.042960 0.000000 
0.000000 -6.042960 0.000000 
-0.000000 -6.042960 0.000000 
0.000000 -6.042960 0.000000 
0.000000 -6.042960 0.000000 
0.000000 -6.042960 0.000000 
0.000000 -6.042960 0.000000 
-0.000000 -6.042960 0.000000 
-0.000000 -6.042960 0.000000 
-0.000000 -6.042960 0.000000 
-0.000000 -6.042960 0.000000 
-0.000000 -6.042960 0.000000 
-0.000000 -6.042960 0.000000 
-0.000000 -6.042960 0.000000 
-0.000000 -6.042960 0.000000 
0.000000 -6.042960 0.000000 
-0.000000 -6.042960 0.000000 
-0.000000 -6.042960 0.000000 
-0.000000 -6.042960 0.000000 
0.000000 -6.042960 0.000000 
-0.000000 -6.042960 0.000000 
0.000000 -6.042960 0.000000 
-0.000000 -6.042960 0.000000 
0.000000 -6.042960 0.000000 
0.000000 -6.042960 0.000000 
-0.000000 -6.042960 0.000000 
-0.000000 -6.042960 0.000000 
-0.000000 -6.042960 0.000000 
-0.000000 -6.042960 0.000000 
0.000000 -6.042960 0.000000 
0.000000 -6.042960 0.000000 
0.000000 -6.042960 0.000000 
0.000000 -6.042960 0.000000 
-0.000000 -6.042960 0.000000 
0.000000 -6.042960 0.000000 
-0.000000 -6.042960 0.000000 
-0.000000 -6.042960 0.000000 
-0.000000 -6.042960 0.000000 
0.000000 -6.042960 0.000000 
0.000000 -6.042960 0.000000 
0.000000 -6.042960 0.000000 
0.000000 -6.042960 0.000000 
0.000000 -6.042960 0.000000 
-0.000000 -6.042960 0.000000 
-0.000000 -6.042960 0.000000 
-0.000000 -6.042960 0.000000 
-0.000000 -6.042960 0.000000 
0.000000 -6.042960 0.000000 
-0.000000 -6.042960 0.000000 
0.000000 -6.042960 0.000000 
0.000000 -6.042960 0.000000 
0.000000 -6.042960 0.000000 
0.000000 -6.042960 0.000000 
-0.000000 -6.042960 0.000000 
TENSORS STRESS float 
0.000000 0.000000 0.000000 
0.000000 0.000000 0.000000 
0.000000 0.000000 0.000000 

-0.000000 0.000000 0.000000 
0.000000 -0.000000 0.000000 
0.000000 0.000000 0.000000 

0.000000 0.000000 0.000000 
0.000000 0.000000 0.000000 
0.000000 0.000000 0.000000 

0.000000 0.000000 0.000000 
0.000000 0.000000 0.000000 
0.000000 0.000000 0.000000 

0.000000 0.000000 0.000000 
0.000000 0.000000 0.000000 
0.000000 0.000000 0.000000 

0.000000 -0.000000 0.000000 
0.000000 0.000000 0.000000 
0.000000 0.000000 0.000000 

0.000000 -0.000000 0.000000 
0.000000 0.000000 0.000000 
0.000000 0.000000 0.000000 

-0.000000 0.000000 0.000000 
0.000000 -0.000000 0.000000 
0.000000 0.000000 0.000000 

-0.000000 -0.000000 0.000000 
0.000000 -0.000000 0.000000 
0.000000 0.000000 0.000000 

-0.000000 0.000000 0.000000 
0.000000 -0.000000 0.000000 
0.000000 0.000000 0.000000 

-0.000000 0.000000 0.000000 