# vtk DataFile Version 3.0 
vtk output 
ASCII 
DATASET UNSTRUCTURED_GRID 
POINTS 175 float 
-0.027116 -2.486859 0.000000 
-0.109595 -2.420692 0.000000 
-0.056556 -2.428397 0.000000 
-0.029440 -2.383495 0.000000 
-0.189262 -2.358311 0.000000 
-0.139249 -2.360493 0.000000 
-0.115491 -2.307557 0.000000 
-0.058817 -2.322907 0.000000 
-0.029576 -2.283252 0.000000 
-0.268255 -2.295653 0.000000 
-0.219678 -2.296600 0.000000 
-0.198409 -2.239738 0.000000 
-0.144353 -2.248362 0.000000 
-0.117381 -2.201612 0.000000 
-0.059310 -2.221064 0.000000 
-0.029746 -2.183370 0.000000 
-0.347110 -2.232675 0.000000 
-0.299353 -2.232861 0.000000 
-0.279928 -2.173499 0.000000 
-0.227610 -2.179548 0.000000 
-0.202768 -2.127895 0.000000 
-0.146610 -2.141352 0.000000 
-0.118488 -2.097370 0.000000 
-0.059683 -2.119965 0.000000 
-0.029920 -2.083148 0.000000 
-0.060853 -2.526658 0.000000 
-0.168607 -2.546855 0.000000 
-0.127628 -2.512425 0.000000 
-0.146970 -2.465064 0.000000 
-0.273234 -2.568221 0.000000 
-0.237436 -2.532586 0.000000 
-0.263601 -2.483469 0.000000 
-0.214243 -2.450625 0.000000 
-0.227053 -2.404024 0.000000 
-0.377403 -2.590238 0.000000 
-0.342863 -2.554384 0.000000 
-0.372567 -2.503958 0.000000 
-0.329142 -2.468662 0.000000 
-0.347998 -2.418962 0.000000 
-0.295355 -2.387367 0.000000 
-0.306147 -2.341161 0.000000 
-0.482424 -2.607324 0.000000 
-0.447301 -2.575566 0.000000 
-0.479758 -2.523890 0.000000 
-0.439203 -2.488240 0.000000 
-0.462829 -2.436290 0.000000 
-0.414775 -2.402888 0.000000 
-0.431175 -2.354116 0.000000 
-0.375118 -2.324224 0.000000 
-0.384989 -2.278705 0.000000 
-0.048687 -2.575958 0.000000 
-0.101410 -2.663758 0.000000 
-0.102519 -2.615426 0.000000 
-0.156434 -2.600894 0.000000 
-0.158996 -2.751821 0.000000 
-0.164078 -2.707869 0.000000 
-0.227634 -2.701919 0.000000 
-0.217776 -2.643502 0.000000 
-0.264176 -2.623879 0.000000 
-0.215979 -2.820439 0.000000 
-0.222045 -2.787668 0.000000 
-0.286574 -2.783281 0.000000 
-0.285769 -2.739541 0.000000 
-0.338009 -2.720646 0.000000 
-0.325242 -2.663993 0.000000 
-0.368263 -2.643080 0.000000 
-0.319255 -2.934398 0.000000 
-0.288659 -2.857784 0.000000 
-0.369418 -2.868882 0.000000 
-0.354978 -2.820416 0.000000 
-0.420140 -2.812688 0.000000 
-0.395877 -2.758095 0.000000 
-0.459769 -2.735689 0.000000 
-0.433698 -2.678720 0.000000 
-0.480378 -2.657702 0.000000 
-0.000000 -2.597646 0.000000 
0.046352 -2.685782 0.000000 
-0.000000 -2.658316 0.000000 
-0.046352 -2.685782 0.000000 
0.102926 -2.770859 0.000000 
0.050149 -2.748506 0.000000 
-0.000000 -2.783664 0.000000 
-0.050149 -2.748506 0.000000 
-0.102926 -2.770859 0.000000 
0.159217 -2.839208 0.000000 
0.109173 -2.825167 0.000000 
0.058671 -2.856506 0.000000 
-0.000000 -2.834326 0.000000 
-0.058671 -2.856506 0.000000 
-0.109173 -2.825167 0.000000 
-0.159217 -2.839208 0.000000 
0.246684 -2.985115 0.000000 
0.168454 -2.899627 0.000000 
0.139366 -3.027426 0.000000 
0.059317 -2.914663 0.000000 
-0.000000 -3.092375 0.000000 
-0.059317 -2.914663 0.000000 
-0.139366 -3.027426 0.000000 
-0.168454 -2.899627 0.000000 
-0.246684 -2.985115 0.000000 
0.048687 -2.575958 0.000000 
0.156434 -2.600894 0.000000 
0.102519 -2.615426 0.000000 
0.101410 -2.663758 0.000000 
0.264176 -2.623879 0.000000 
0.217776 -2.643502 0.000000 
0.227634 -2.701919 0.000000 
0.164078 -2.707869 0.000000 
0.158996 -2.751821 0.000000 
0.368263 -2.643080 0.000000 
0.325242 -2.663993 0.000000 
0.338009 -2.720646 0.000000 
0.285769 -2.739541 0.000000 
0.286574 -2.783281 0.000000 
0.222045 -2.787668 0.000000 
0.215979 -2.820439 0.000000 
0.480378 -2.657702 0.000000 
0.433698 -2.678720 0.000000 
0.459769 -2.735689 0.000000 
0.395877 -2.758095 0.000000 
0.420140 -2.812688 0.000000 
0.354978 -2.820416 0.000000 
0.369418 -2.868882 0.000000 
0.288659 -2.857784 0.000000 
0.319255 -2.934398 0.000000 
0.060853 -2.526658 0.000000 
0.146970 -2.465064 0.000000 
0.127628 -2.512425 0.000000 
0.168607 -2.546855 0.000000 
0.227053 -2.404024 0.000000 
0.214243 -2.450625 0.000000 
0.263601 -2.483469 0.000000 
0.237436 -2.532586 0.000000 
0.273234 -2.568221 0.000000 
0.306147 -2.341161 0.000000 
0.295355 -2.387367 0.000000 
0.347998 -2.418962 0.000000 
0.329142 -2.468662 0.000000 
0.372567 -2.503958 0.000000 
0.342863 -2.554384 0.000000 
0.377403 -2.590238 0.000000 
0.384989 -2.278705 0.000000 
0.375118 -2.324224 0.000000 
0.431175 -2.354116 0.000000 
0.414775 -2.402888 0.000000 
0.462829 -2.436290 0.000000 
0.439203 -2.488240 0.000000 
0.479758 -2.523890 0.000000 
0.447301 -2.575566 0.000000 
0.482424 -2.607324 0.000000 
0.027116 -2.486859 0.000000 
0.029440 -2.383495 0.000000 
0.056556 -2.428397 0.000000 
0.109595 -2.420692 0.000000 
0.029576 -2.283252 0.000000 
0.058817 -2.322907 0.000000 
0.115491 -2.307557 0.000000 
0.139249 -2.360493 0.000000 
0.189262 -2.358311 0.000000 
0.029746 -2.183370 0.000000 
0.059310 -2.221064 0.000000 
0.117381 -2.201612 0.000000 
0.144353 -2.248362 0.000000 
0.198409 -2.239738 0.000000 
0.219678 -2.296600 0.000000 
0.268255 -2.295653 0.000000 
0.029920 -2.083148 0.000000 
0.059683 -2.119965 0.000000 
0.118488 -2.097370 0.000000 
0.146610 -2.141352 0.000000 
0.202768 -2.127895 0.000000 
0.227610 -2.179548 0.000000 
0.279928 -2.173499 0.000000 
0.299353 -2.232861 0.000000 
0.347110 -2.232675 0.000000 
CELLS 175 350 
1 0 
1 1 
1 2 
1 3 
1 4 
1 5 
1 6 
1 7 
1 8 
1 9 
1 10 
1 11 
1 12 
1 13 
1 14 
1 15 
1 16 
1 17 
1 18 
1 19 
1 20 
1 21 
1 22 
1 23 
1 24 
1 25 
1 26 
1 27 
1 28 
1 29 
1 30 
1 31 
1 32 
1 33 
1 34 
1 35 
1 36 
1 37 
1 38 
1 39 
1 40 
1 41 
1 42 
1 43 
1 44 
1 45 
1 46 
1 47 
1 48 
1 49 
1 50 
1 51 
1 52 
1 53 
1 54 
1 55 
1 56 
1 57 
1 58 
1 59 
1 60 
1 61 
1 62 
1 63 
1 64 
1 65 
1 66 
1 67 
1 68 
1 69 
1 70 
1 71 
1 72 
1 73 
1 74 
1 75 
1 76 
1 77 
1 78 
1 79 
1 80 
1 81 
1 82 
1 83 
1 84 
1 85 
1 86 
1 87 
1 88 
1 89 
1 90 
1 91 
1 92 
1 93 
1 94 
1 95 
1 96 
1 97 
1 98 
1 99 
1 100 
1 101 
1 102 
1 103 
1 104 
1 105 
1 106 
1 107 
1 108 
1 109 
1 110 
1 111 
1 112 
1 113 
1 114 
1 115 
1 116 
1 117 
1 118 
1 119 
1 120 
1 121 
1 122 
1 123 
1 124 
1 125 
1 126 
1 127 
1 128 
1 129 
1 130 
1 131 
1 132 
1 133 
1 134 
1 135 
1 136 
1 137 
1 138 
1 139 
1 140 
1 141 
1 142 
1 143 
1 144 
1 145 
1 146 
1 147 
1 148 
1 149 
1 150 
1 151 
1 152 
1 153 
1 154 
1 155 
1 156 
1 157 
1 158 
1 159 
1 160 
1 161 
1 162 
1 163 
1 164 
1 165 
1 166 
1 167 
1 168 
1 169 
1 170 
1 171 
1 172 
1 173 
1 174 
CELL_TYPES 175 
1 
1 
1 
1 
1 
1 
1 
1 
1 
1 
1 
1 
1 
1 
1 
1 
1 
1 
1 
1 
1 
1 
1 
1 
1 
1 
1 
1 
1 
1 
1 
1 
1 
1 
1 
1 
1 
1 
1 
1 
1 
1 
1 
1 
1 
1 
1 
1 
1 
1 
1 
1 
1 
1 
1 
1 
1 
1 
1 
1 
1 
1 
1 
1 
1 
1 
1 
1 
1 
1 
1 
1 
1 
1 
1 
1 
1 
1 
1 
1 
1 
1 
1 
1 
1 
1 
1 
1 
1 
1 
1 
1 
1 
1 
1 
1 
1 
1 
1 
1 
1 
1 
1 
1 
1 
1 
1 
1 
1 
1 
1 
1 
1 
1 
1 
1 
1 
1 
1 
1 
1 
1 
1 
1 
1 
1 
1 
1 
1 
1 
1 
1 
1 
1 
1 
1 
1 
1 
1 
1 
1 
1 
1 
1 
1 
1 
1 
1 
1 
1 
1 
1 
1 
1 
1 
1 
1 
1 
1 
1 
1 
1 
1 
1 
1 
1 
1 
1 
1 
1 
1 
1 
1 
1 
1 
POINT_DATA 175 
VECTORS X_GC float 
-0.027116 -2.486859 0.000000 
-0.109595 -2.420692 0.000000 
-0.056556 -2.428397 0.000000 
-0.029440 -2.383495 0.000000 
-0.189262 -2.358311 0.000000 
-0.139249 -2.360493 0.000000 
-0.115491 -2.307557 0.000000 
-0.058817 -2.322907 0.000000 
-0.029576 -2.283252 0.000000 
-0.268255 -2.295653 0.000000 
-0.219678 -2.296600 0.000000 
-0.198409 -2.239738 0.000000 
-0.144353 -2.248362 0.000000 
-0.117381 -2.201612 0.000000 
-0.059310 -2.221064 0.000000 
-0.029746 -2.183370 0.000000 
-0.347110 -2.232675 0.000000 
-0.299353 -2.232861 0.000000 
-0.279928 -2.173499 0.000000 
-0.227610 -2.179548 0.000000 
-0.202768 -2.127895 0.000000 
-0.146610 -2.141352 0.000000 
-0.118488 -2.097370 0.000000 
-0.059683 -2.119965 0.000000 
-0.029920 -2.083148 0.000000 
-0.060853 -2.526658 0.000000 
-0.168607 -2.546855 0.000000 
-0.127628 -2.512425 0.000000 
-0.146970 -2.465064 0.000000 
-0.273234 -2.568221 0.000000 
-0.237436 -2.532586 0.000000 
-0.263601 -2.483469 0.000000 
-0.214243 -2.450625 0.000000 
-0.227053 -2.404024 0.000000 
-0.377403 -2.590238 0.000000 
-0.342863 -2.554384 0.000000 
-0.372567 -2.503958 0.000000 
-0.329142 -2.468662 0.000000 
-0.347998 -2.418962 0.000000 
-0.295355 -2.387367 0.000000 
-0.306147 -2.341161 0.000000 
-0.482424 -2.607324 0.000000 
-0.447301 -2.575566 0.000000 
-0.479758 -2.523890 0.000000 
-0.439203 -2.488240 0.000000 
-0.462829 -2.436290 0.000000 
-0.414775 -2.402888 0.000000 
-0.431175 -2.354116 0.000000 
-0.375118 -2.324224 0.000000 
-0.384989 -2.278705 0.000000 
-0.048687 -2.575958 0.000000 
-0.101410 -2.663758 0.000000 
-0.102519 -2.615426 0.000000 
-0.156434 -2.600894 0.000000 
-0.158996 -2.751821 0.000000 
-0.164078 -2.707869 0.000000 
-0.227634 -2.701919 0.000000 
-0.217776 -2.643502 0.000000 
-0.264176 -2.623879 0.000000 
-0.215979 -2.820439 0.000000 
-0.222045 -2.787668 0.000000 
-0.286574 -2.783281 0.000000 
-0.285769 -2.739541 0.000000 
-0.338009 -2.720646 0.000000 
-0.325242 -2.663993 0.000000 
-0.368263 -2.643080 0.000000 
-0.319255 -2.934398 0.000000 
-0.288659 -2.857784 0.000000 
-0.369418 -2.868882 0.000000 
-0.354978 -2.820416 0.000000 
-0.420140 -2.812688 0.000000 
-0.395877 -2.758095 0.000000 
-0.459769 -2.735689 0.000000 
-0.433698 -2.678720 0.000000 
-0.480378 -2.657702 0.000000 
-0.000000 -2.597646 0.000000 
0.046352 -2.685782 0.000000 
-0.000000 -2.658316 0.000000 
-0.046352 -2.685782 0.000000 
0.102926 -2.770859 0.000000 
0.050149 -2.748506 0.000000 
-0.000000 -2.783664 0.000000 
-0.050149 -2.748506 0.000000 
-0.102926 -2.770859 0.000000 
0.159217 -2.839208 0.000000 
0.109173 -2.825167 0.000000 
0.058671 -2.856506 0.000000 
-0.000000 -2.834326 0.000000 
-0.058671 -2.856506 0.000000 
-0.109173 -2.825167 0.000000 
-0.159217 -2.839208 0.000000 
0.246684 -2.985115 0.000000 
0.168454 -2.899627 0.000000 
0.139366 -3.027426 0.000000 
0.059317 -2.914663 0.000000 
-0.000000 -3.092375 0.000000 
-0.059317 -2.914663 0.000000 
-0.139366 -3.027426 0.000000 
-0.168454 -2.899627 0.000000 
-0.246684 -2.985115 0.000000 
0.048687 -2.575958 0.000000 
0.156434 -2.600894 0.000000 
0.102519 -2.615426 0.000000 
0.101410 -2.663758 0.000000 
0.264176 -2.623879 0.000000 
0.217776 -2.643502 0.000000 
0.227634 -2.701919 0.000000 
0.164078 -2.707869 0.000000 
0.158996 -2.751821 0.000000 
0.368263 -2.643080 0.000000 
0.325242 -2.663993 0.000000 
0.338009 -2.720646 0.000000 
0.285769 -2.739541 0.000000 
0.286574 -2.783281 0.000000 
0.222045 -2.787668 0.000000 
0.215979 -2.820439 0.000000 
0.480378 -2.657702 0.000000 
0.433698 -2.678720 0.000000 
0.459769 -2.735689 0.000000 
0.395877 -2.758095 0.000000 
0.420140 -2.812688 0.000000 
0.354978 -2.820416 0.000000 
0.369418 -2.868882 0.000000 
0.288659 -2.857784 0.000000 
0.319255 -2.934398 0.000000 
0.060853 -2.526658 0.000000 
0.146970 -2.465064 0.000000 
0.127628 -2.512425 0.000000 
0.168607 -2.546855 0.000000 
0.227053 -2.404024 0.000000 
0.214243 -2.450625 0.000000 
0.263601 -2.483469 0.000000 
0.237436 -2.532586 0.000000 
0.273234 -2.568221 0.000000 
0.306147 -2.341161 0.000000 
0.295355 -2.387367 0.000000 
0.347998 -2.418962 0.000000 
0.329142 -2.468662 0.000000 
0.372567 -2.503958 0.000000 
0.342863 -2.554384 0.000000 
0.377403 -2.590238 0.000000 
0.384989 -2.278705 0.000000 
0.375118 -2.324224 0.000000 
0.431175 -2.354116 0.000000 
0.414775 -2.402888 0.000000 
0.462829 -2.436290 0.000000 
0.439203 -2.488240 0.000000 
0.479758 -2.523890 0.000000 
0.447301 -2.575566 0.000000 
0.482424 -2.607324 0.000000 
0.027116 -2.486859 0.000000 
0.029440 -2.383495 0.000000 
0.056556 -2.428397 0.000000 
0.109595 -2.420692 0.000000 
0.029576 -2.283252 0.000000 
0.058817 -2.322907 0.000000 
0.115491 -2.307557 0.000000 
0.139249 -2.360493 0.000000 
0.189262 -2.358311 0.000000 
0.029746 -2.183370 0.000000 
0.059310 -2.221064 0.000000 
0.117381 -2.201612 0.000000 
0.144353 -2.248362 0.000000 
0.198409 -2.239738 0.000000 
0.219678 -2.296600 0.000000 
0.268255 -2.295653 0.000000 
0.029920 -2.083148 0.000000 
0.059683 -2.119965 0.000000 
0.118488 -2.097370 0.000000 
0.146610 -2.141352 0.000000 
0.202768 -2.127895 0.000000 
0.227610 -2.179548 0.000000 
0.279928 -2.173499 0.000000 
0.299353 -2.232861 0.000000 
0.347110 -2.232675 0.000000 
VECTORS X_EC float 
0.352509 0.072602 0.000000 
-0.575265 -0.820655 0.000000 
0.735227 -0.716640 0.000000 
0.382718 0.677187 0.000000 
0.460402 0.337202 0.000000 
-0.189769 0.366654 0.000000 
-0.498616 -0.347981 0.000000 
0.764627 -0.140750 0.000000 
0.384484 -0.676096 0.000000 
-0.512685 -0.508690 0.000000 
0.855815 -0.495896 0.000000 
0.579314 0.736461 0.000000 
-0.123410 0.852881 0.000000 
-0.474041 0.221766 0.000000 
0.771025 0.484358 0.000000 
0.386697 -0.024511 0.000000 
0.512435 0.641118 0.000000 
-0.108408 0.643618 0.000000 
-0.360935 -0.157770 0.000000 
0.958927 -0.076102 0.000000 
0.635986 -0.773412 0.000000 
-0.094068 -0.591753 0.000000 
-0.459662 0.814498 0.000000 
0.775880 -0.880469 0.000000 
0.388965 0.622503 0.000000 
0.791094 0.609883 0.000000 
0.191886 0.882539 0.000000 
-0.340834 0.417742 0.000000 
-0.089387 -0.221639 0.000000 
-0.447964 -0.829011 0.000000 
-0.913327 0.689909 0.000000 
-0.573187 0.026831 0.000000 
0.785160 -0.416565 0.000000 
0.951685 0.954324 0.000000 
0.906234 -0.531785 0.000000 
0.457214 0.984188 0.000000 
0.843371 0.303433 0.000000 
0.278846 -0.173058 0.000000 
0.523974 -0.844008 0.000000 
-0.160390 0.729455 0.000000 
-0.020089 0.105674 0.000000 
0.271508 -0.301122 0.000000 
-0.185089 -0.729861 0.000000 
0.236848 0.572512 0.000000 
-0.290358 0.091242 0.000000 
0.016779 -0.610088 0.000000 
-0.607931 0.938990 0.000000 
-0.394731 0.280568 0.000000 
0.876537 -0.122975 0.000000 
-0.995146 -0.737484 0.000000 
0.632932 -0.724570 0.000000 
-0.681671 0.460728 0.000000 
-0.667250 -0.191747 0.000000 
0.033640 -0.387936 0.000000 
0.066949 -0.350417 0.000000 
0.133014 -0.943769 0.000000 
0.959245 0.975903 0.000000 
0.831086 0.187278 0.000000 
-0.565709 -0.077628 0.000000 
0.807730 0.575922 0.000000 
0.886588 0.133518 0.000000 
-0.274544 0.074294 0.000000 
-0.285001 -0.516200 0.000000 
0.394122 -0.771286 0.000000 
0.228141 0.463903 0.000000 
0.787415 0.181579 0.000000 
0.150313 0.114380 0.000000 
-0.247430 -0.919917 0.000000 
0.802435 -0.770089 0.000000 
0.614716 0.575617 0.000000 
-0.538177 0.471283 0.000000 
-0.853604 -0.265715 0.000000 
-0.023003 -0.568199 0.000000 
-0.361926 0.662717 0.000000 
0.244920 0.378983 0.000000 
0.000000 -0.431774 0.000000 
-0.602571 0.758055 0.000000 
0.000000 0.387263 0.000000 
0.602571 0.758055 0.000000 
0.661966 -0.093404 0.000000 
-0.651931 -0.395171 0.000000 
0.000000 0.079466 0.000000 
0.651931 -0.395171 0.000000 
-0.661966 -0.093404 0.000000 
-0.069819 0.829307 0.000000 
0.580745 0.639758 0.000000 
-0.762717 -0.937169 0.000000 
0.000000 0.763404 0.000000 
0.762717 -0.937169 0.000000 
-0.580745 0.639758 0.000000 
0.069819 0.829307 0.000000 
0.793108 0.799058 0.000000 
-0.189908 -0.355039 0.000000 
0.412755 0.887080 0.000000 
-0.771119 -0.152044 0.000000 
0.000000 0.760633 0.000000 
0.771119 -0.152044 0.000000 
-0.412755 0.887080 0.000000 
0.189908 -0.355039 0.000000 
-0.793108 0.799058 0.000000 
-0.632932 -0.724570 0.000000 
-0.033640 -0.387936 0.000000 
0.667250 -0.191747 0.000000 
0.681671 0.460728 0.000000 
0.565709 -0.077628 0.000000 
-0.831086 0.187278 0.000000 
-0.959245 0.975903 0.000000 
-0.133014 -0.943769 0.000000 
-0.066949 -0.350417 0.000000 
-0.787415 0.181579 0.000000 
-0.228141 0.463903 0.000000 
-0.394122 -0.771286 0.000000 
0.285001 -0.516200 0.000000 
0.274544 0.074294 0.000000 
-0.886588 0.133518 0.000000 
-0.807730 0.575922 0.000000 
-0.244920 0.378983 0.000000 
0.361926 0.662717 0.000000 
0.023003 -0.568199 0.000000 
0.853604 -0.265715 0.000000 
0.538177 0.471283 0.000000 
-0.614716 0.575617 0.000000 
-0.802435 -0.770089 0.000000 
0.247430 -0.919917 0.000000 
-0.150313 0.114380 0.000000 
-0.791094 0.609883 0.000000 
0.089387 -0.221639 0.000000 
0.340834 0.417742 0.000000 
-0.191886 0.882539 0.000000 
-0.951685 0.954324 0.000000 
-0.785160 -0.416565 0.000000 
0.573187 0.026831 0.000000 
0.913327 0.689909 0.000000 
0.447964 -0.829011 0.000000 
0.020089 0.105674 0.000000 
0.160390 0.729455 0.000000 
-0.523974 -0.844008 0.000000 
-0.278846 -0.173058 0.000000 
-0.843371 0.303433 0.000000 
-0.457214 0.984188 0.000000 
-0.906234 -0.531785 0.000000 
0.995146 -0.737484 0.000000 
-0.876537 -0.122975 0.000000 
0.394731 0.280568 0.000000 
0.607931 0.938990 0.000000 
-0.016779 -0.610088 0.000000 
0.290358 0.091242 0.000000 
-0.236848 0.572512 0.000000 
0.185089 -0.729861 0.000000 
-0.271508 -0.301122 0.000000 
-0.352509 0.072602 0.000000 
-0.382718 0.677187 0.000000 
-0.735227 -0.716640 0.000000 
0.575265 -0.820655 0.000000 
-0.384484 -0.676096 0.000000 
-0.764627 -0.140750 0.000000 
0.498616 -0.347981 0.000000 
0.189769 0.366654 0.000000 
-0.460402 0.337202 0.000000 
-0.386697 -0.024511 0.000000 
-0.771025 0.484358 0.000000 
0.474041 0.221766 0.000000 
0.123410 0.852881 0.000000 
-0.579314 0.736461 0.000000 
-0.855815 -0.495896 0.000000 
0.512685 -0.508690 0.000000 
-0.388965 0.622503 0.000000 
-0.775880 -0.880469 0.000000 
0.459661 0.814498 0.000000 
0.094068 -0.591753 0.000000 
-0.635986 -0.773412 0.000000 
-0.958927 -0.076102 0.000000 
0.360935 -0.157770 0.000000 
0.108408 0.643618 0.000000 
-0.512435 0.641118 0.000000 
CELL_DATA 175 
SCALARS MASS float 
LOOKUP_TABLE default 
0.781831 
0.864274 
0.946717 
0.864274 
0.881307 
0.921110 
0.858535 
0.921110 
0.881307 
0.887046 
0.910001 
0.869829 
0.915556 
0.869829 
0.910001 
0.887046 
0.892784 
0.915740 
0.892784 
0.927218 
0.892784 
0.927218 
0.892784 
0.915740 
0.892784 
0.781831 
0.864274 
0.946717 
0.864274 
0.881307 
0.921110 
0.858535 
0.921110 
0.881307 
0.887046 
0.910001 
0.869829 
0.915556 
0.869829 
0.910001 
0.887046 
0.892784 
0.915740 
0.892784 
0.927218 
0.892784 
0.927218 
0.892784 
0.915740 
0.892784 
0.781831 
0.864274 
0.946717 
0.864274 
0.881307 
0.921110 
0.858535 
0.921110 
0.881307 
0.887046 
0.910001 
0.869829 
0.915556 
0.869829 
0.910001 
0.887046 
0.892784 
0.915740 
0.892784 
0.927218 
0.892784 
0.927218 
0.892784 
0.915740 
0.892784 
0.781831 
0.864274 
0.946717 
0.864274 
0.881307 
0.921110 
0.858535 
0.921110 
0.881307 
0.887046 
0.910001 
0.869829 
0.915556 
0.869829 
0.910001 
0.887046 
0.892784 
0.915740 
0.892784 
0.927218 
0.892784 
0.927218 
0.892784 
0.915740 
0.892784 
0.781831 
0.864274 
0.946717 
0.864274 
0.881307 
0.921110 
0.858535 
0.921110 
0.881307 
0.887046 
0.910001 
0.869829 
0.915556 
0.869829 
0.910001 
0.887046 
0.892784 
0.915740 
0.892784 
0.927218 
0.892784 
0.927218 
0.892784 
0.915740 
0.892784 
0.781831 
0.864274 
0.946717 
0.864274 
0.881307 
0.921110 
0.858535 
0.921110 
0.881307 
0.887046 
0.910001 
0.869829 
0.915556 
0.869829 
0.910001 
0.887046 
0.892784 
0.915740 
0.892784 
0.927218 
0.892784 
0.927218 
0.892784 
0.915740 
0.892784 
0.781831 
0.864274 
0.946717 
0.864274 
0.881307 
0.921110 
0.858535 
0.921110 
0.881307 
0.887046 
0.910001 
0.869829 
0.915556 
0.869829 
0.910001 
0.887046 
0.892784 
0.915740 
0.892784 
0.927218 
0.892784 
0.927218 
0.892784 
0.915740 
0.892784 
SCALARS MASS float 
LOOKUP_TABLE default 
0.781831 
0.864274 
0.946717 
0.864274 
0.881307 
0.921110 
0.858535 
0.921110 
0.881307 
0.887046 
0.910001 
0.869829 
0.915556 
0.869829 
0.910001 
0.887046 
0.892784 
0.915740 
0.892784 
0.927218 
0.892784 
0.927218 
0.892784 
0.915740 
0.892784 
0.781831 
0.864274 
0.946717 
0.864274 
0.881307 
0.921110 
0.858535 
0.921110 
0.881307 
0.887046 
0.910001 
0.869829 
0.915556 
0.869829 
0.910001 
0.887046 
0.892784 
0.915740 
0.892784 
0.927218 
0.892784 
0.927218 
0.892784 
0.915740 
0.892784 
0.781831 
0.864274 
0.946717 
0.864274 
0.881307 
0.921110 
0.858535 
0.921110 
0.881307 
0.887046 
0.910001 
0.869829 
0.915556 
0.869829 
0.910001 
0.887046 
0.892784 
0.915740 
0.892784 
0.927218 
0.892784 
0.927218 
0.892784 
0.915740 
0.892784 
0.781831 
0.864274 
0.946717 
0.864274 
0.881307 
0.921110 
0.858535 
0.921110 
0.881307 
0.887046 
0.910001 
0.869829 
0.915556 
0.869829 
0.910001 
0.887046 
0.892784 
0.915740 
0.892784 
0.927218 
0.892784 
0.927218 
0.892784 
0.915740 
0.892784 
0.781831 
0.864274 
0.946717 
0.864274 
0.881307 
0.921110 
0.858535 
0.921110 
0.881307 
0.887046 
0.910001 
0.869829 
0.915556 
0.869829 
0.910001 
0.887046 
0.892784 
0.915740 
0.892784 
0.927218 
0.892784 
0.927218 
0.892784 
0.915740 
0.892784 
0.781831 
0.864274 
0.946717 
0.864274 
0.881307 
0.921110 
0.858535 
0.921110 
0.881307 
0.887046 
0.910001 
0.869829 
0.915556 
0.869829 
0.910001 
0.887046 
0.892784 
0.915740 
0.892784 
0.927218 
0.892784 
0.927218 
0.892784 
0.915740 
0.892784 
0.781831 
0.864274 
0.946717 
0.864274 
0.881307 
0.921110 
0.858535 
0.921110 
0.881307 
0.887046 
0.910001 
0.869829 
0.915556 
0.869829 
0.910001 
0.887046 
0.892784 
0.915740 
0.892784 
0.927218 
0.892784 
0.927218 
0.892784 
0.915740 
0.892784 
SCALARS DENSITY float 
LOOKUP_TABLE default 
214.309207 
205.913117 
203.209078 
204.416463 
206.067663 
206.385108 
204.470857 
204.297747 
201.520972 
200.804361 
202.185581 
201.822357 
202.153672 
202.307378 
202.390361 
202.348614 
200.909441 
200.908320 
200.642472 
201.255320 
200.127225 
200.619620 
200.098314 
200.191286 
200.314330 
214.395420 
202.251741 
207.626036 
205.776971 
204.904912 
203.096822 
204.886322 
205.634866 
205.086438 
210.540667 
206.222989 
207.436656 
206.601650 
202.284554 
203.415357 
203.983505 
194.376838 
207.010630 
207.233845 
207.005030 
202.160688 
200.832615 
200.770975 
203.076768 
200.692915 
212.646819 
223.020088 
224.935402 
201.060772 
226.777593 
219.374657 
213.228133 
219.511992 
209.268735 
173.065509 
204.208771 
185.957927 
220.551063 
201.704155 
212.608867 
212.097224 
2188.694037 
212.649881 
216.840527 
207.339717 
236.750231 
235.513761 
243.159319 
207.313020 
199.219797 
217.073399 
203.246808 
203.540507 
203.246808 
249.329898 
192.277262 
286.447580 
192.277262 
249.329896 
184.690467 
244.515250 
243.140969 
262.423829 
243.140969 
244.515250 
184.690466 
1080.407194 
337.893875 
20416.169082 
379.853045 
4614.609487 
379.853051 
20416.169865 
337.893880 
1080.407220 
212.646819 
201.060773 
224.935403 
223.020087 
209.268735 
219.511992 
213.228132 
219.374657 
226.777593 
212.097224 
212.608867 
201.704155 
220.551062 
185.957927 
204.208771 
173.065509 
199.219797 
207.313020 
243.159315 
235.513760 
236.750233 
207.339717 
216.840527 
212.649882 
2188.694056 
214.395420 
205.776971 
207.626036 
202.251741 
205.086438 
205.634866 
204.886322 
203.096822 
204.904912 
203.983505 
203.415357 
202.284554 
206.601650 
207.436656 
206.222988 
210.540667 
200.692915 
203.076768 
200.770975 
200.832615 
202.160688 
207.005030 
207.233845 
207.010631 
194.376837 
214.309207 
204.416463 
203.209077 
205.913117 
201.520972 
204.297747 
204.470857 
206.385108 
206.067663 
202.348614 
202.390361 
202.307378 
202.153672 
201.822357 
202.185581 
200.804361 
200.314330 
200.191286 
200.098314 
200.619620 
200.127225 
201.255320 
200.642472 
200.908320 
200.909441 
SCALARS ELEM_i float 
LOOKUP_TABLE default 
165 
192 
165 
166 
193 
193 
193 
166 
166 
220 
193 
194 
194 
194 
167 
167 
221 
221 
221 
194 
194 
194 
195 
167 
168 
165 
192 
192 
192 
218 
219 
219 
192 
193 
218 
219 
219 
219 
219 
220 
220 
245 
245 
246 
246 
246 
247 
247 
220 
247 
164 
191 
191 
191 
190 
190 
191 
191 
218 
190 
190 
217 
217 
217 
218 
218 
216 
216 
216 
217 
244 
244 
244 
245 
245 
164 
164 
164 
164 
136 
163 
163 
163 
190 
136 
136 
162 
163 
162 
190 
190 
108 
135 
135 
162 
162 
162 
189 
189 
216 
164 
137 
137 
137 
110 
137 
137 
136 
136 
110 
110 
109 
109 
109 
136 
136 
83 
83 
82 
82 
82 
109 
108 
108 
108 
165 
138 
138 
138 
139 
138 
111 
111 
110 
112 
112 
111 
111 
111 
111 
110 
85 
112 
85 
85 
84 
84 
84 
83 
83 
165 
166 
165 
138 
166 
166 
139 
139 
139 
167 
167 
140 
140 
140 
139 
112 
168 
167 
141 
140 
140 
140 
113 
113 
113 
VECTORS VELOCITY float 
-0.307714 -6.008020 0.000000 
-0.448675 -6.189652 0.000000 
-0.319774 -6.057976 0.000000 
-0.092198 -6.156386 0.000000 
-0.510059 -6.408629 0.000000 
-0.360124 -6.321045 0.000000 
-0.142692 -6.296833 0.000000 
-0.020224 -6.289332 0.000000 
-0.001237 -6.286947 0.000000 
-0.598573 -6.277916 0.000000 
-0.529861 -6.291529 0.000000 
-0.367901 -6.315100 0.000000 
-0.226551 -6.318885 0.000000 
-0.145949 -6.391578 0.000000 
-0.039445 -6.378001 0.000000 
-0.030546 -6.423572 0.000000 
-0.536724 -6.299646 0.000000 
-0.498739 -6.306397 0.000000 
-0.358660 -6.370484 0.000000 
-0.326434 -6.393436 0.000000 
-0.203300 -6.481813 0.000000 
-0.173393 -6.469992 0.000000 
-0.124250 -6.550165 0.000000 
-0.089838 -6.504398 0.000000 
-0.040866 -6.572986 0.000000 
-0.664428 -6.119386 0.000000 
-1.039280 -5.854735 0.000000 
-0.895133 -6.065448 0.000000 
-0.802429 -6.214152 0.000000 
-1.523120 -5.609378 0.000000 
-1.101419 -5.785741 0.000000 
-0.899079 -6.261390 0.000000 
-0.722979 -6.516261 0.000000 
-0.704006 -6.571327 0.000000 
-2.333365 -6.161891 0.000000 
-1.740522 -6.027958 0.000000 
-1.425076 -6.093677 0.000000 
-0.981334 -6.154353 0.000000 
-0.858874 -5.979464 0.000000 
-0.747136 -6.281006 0.000000 
-0.676153 -6.252350 0.000000 
-2.940545 -4.817535 0.000000 
-2.207957 -6.233826 0.000000 
-1.966093 -5.730950 0.000000 
-1.600208 -5.728985 0.000000 
-1.673406 -4.961565 0.000000 
-1.082970 -5.547658 0.000000 
-0.975980 -5.656989 0.000000 
-0.701332 -6.121455 0.000000 
-0.652979 -6.283715 0.000000 
-0.451075 -6.113843 0.000000 
0.358614 -5.465545 0.000000 
0.083560 -5.982537 0.000000 
-0.871541 -5.638544 0.000000 
-1.744848 -6.312720 0.000000 
-1.479247 -6.546013 0.000000 
-3.325727 -7.472753 0.000000 
-2.052964 -6.170216 0.000000 
-2.245059 -5.508649 0.000000 
-0.688598 1.715984 0.000000 
-1.867681 -2.982888 0.000000 
-1.786646 -3.690835 0.000000 
-3.314825 -6.951347 0.000000 
-2.958894 -4.902967 0.000000 
-2.689357 -5.419391 0.000000 
-2.465598 -4.839993 0.000000 
-11.983750 -19.331818 0.000000 
-0.746265 5.038375 0.000000 
-5.643090 -3.419052 0.000000 
-2.487308 -2.878483 0.000000 
-5.618222 -4.879955 0.000000 
-0.982678 -4.047755 0.000000 
-8.052943 -1.179287 0.000000 
-3.728226 -2.485665 0.000000 
-5.704598 -2.197815 0.000000 
0.000000 -6.124811 0.000000 
-0.628902 -5.119666 0.000000 
0.000000 -5.347440 0.000000 
0.628902 -5.119666 0.000000 
1.454226 -5.444345 0.000000 
-0.173251 -5.091371 0.000000 
-0.000000 -6.122573 0.000000 
0.173251 -5.091371 0.000000 
-1.454226 -5.444345 0.000000 
1.615630 1.273983 0.000000 
2.428282 -3.185416 0.000000 
1.972613 -1.330948 0.000000 
-0.000000 -3.530981 0.000000 
-1.972613 -1.330948 0.000000 
-2.428282 -3.185416 0.000000 
-1.615630 1.273983 0.000000 
3.623129 -42.670623 0.000000 
0.821510 -0.196506 0.000000 
3.600838 -65.112009 0.000000 
0.879998 -4.614995 0.000000 
-0.000000 -103.078482 0.000000 
-0.879998 -4.614995 0.000000 
-3.600838 -65.112008 0.000000 
-0.821510 -0.196506 0.000000 
-3.623130 -42.670624 0.000000 
0.451075 -6.113843 0.000000 
0.871541 -5.638544 0.000000 
-0.083560 -5.982537 0.000000 
-0.358614 -5.465545 0.000000 
2.245059 -5.508649 0.000000 
2.052964 -6.170216 0.000000 
3.325727 -7.472753 0.000000 
1.479247 -6.546013 0.000000 
1.744848 -6.312720 0.000000 
2.465598 -4.839993 0.000000 
2.689357 -5.419391 0.000000 
2.958894 -4.902967 0.000000 
3.314825 -6.951347 0.000000 
1.786646 -3.690835 0.000000 
1.867681 -2.982888 0.000000 
0.688597 1.715984 0.000000 
5.704598 -2.197815 0.000000 
3.728226 -2.485665 0.000000 
8.052944 -1.179287 0.000000 
0.982678 -4.047755 0.000000 
5.618221 -4.879955 0.000000 
2.487308 -2.878482 0.000000 
5.643090 -3.419052 0.000000 
0.746265 5.038375 0.000000 
11.983751 -19.331818 0.000000 
0.664428 -6.119386 0.000000 
0.802429 -6.214152 0.000000 
0.895133 -6.065448 0.000000 
1.039280 -5.854735 0.000000 
0.704006 -6.571327 0.000000 
0.722979 -6.516261 0.000000 
0.899079 -6.261390 0.000000 
1.101419 -5.785741 0.000000 
1.523120 -5.609378 0.000000 
0.676153 -6.252350 0.000000 
0.747136 -6.281006 0.000000 
0.858874 -5.979464 0.000000 
0.981334 -6.154353 0.000000 
1.425076 -6.093677 0.000000 
1.740522 -6.027959 0.000000 
2.333365 -6.161891 0.000000 
0.652979 -6.283715 0.000000 
0.701332 -6.121455 0.000000 
0.975980 -5.656989 0.000000 
1.082970 -5.547658 0.000000 
1.673406 -4.961565 0.000000 
1.600208 -5.728985 0.000000 
1.966093 -5.730950 0.000000 
2.207957 -6.233827 0.000000 
2.940545 -4.817535 0.000000 
0.307714 -6.008020 0.000000 
0.092198 -6.156386 0.000000 
0.319774 -6.057976 0.000000 
0.448675 -6.189652 0.000000 
0.001237 -6.286947 0.000000 
0.020224 -6.289332 0.000000 
0.142692 -6.296833 0.000000 
0.360124 -6.321045 0.000000 
0.510059 -6.408629 0.000000 
0.030546 -6.423572 0.000000 
0.039445 -6.378001 0.000000 
0.145949 -6.391578 0.000000 
0.226551 -6.318885 0.000000 
0.367901 -6.315100 0.000000 
0.529861 -6.291529 0.000000 
0.598573 -6.277916 0.000000 
0.040866 -6.572986 0.000000 
0.089838 -6.504398 0.000000 
0.124250 -6.550165 0.000000 
0.173393 -6.469992 0.000000 
0.203300 -6.481813 0.000000 
0.326434 -6.393436 0.000000 
0.358660 -6.370484 0.000000 
0.498739 -6.306397 0.000000 
0.536724 -6.299646 0.000000 
TENSORS STRESS float 
-29.745295 -0.146172 0.000000 
0.000000 -40.728866 0.000000 
0.000000 0.000000 0.000000 

-25.669673 2.746468 0.000000 
0.000000 -33.271033 0.000000 
0.000000 0.000000 0.000000 

10.140486 0.673171 0.000000 
0.000000 -1.285806 0.000000 
0.000000 0.000000 0.000000 

-2.375961 0.708628 0.000000 
0.000000 -11.672056 0.000000 
0.000000 0.000000 0.000000 

-23.780057 3.595671 0.000000 
0.000000 -30.122380 0.000000 
0.000000 0.000000 0.000000 

-27.979118 3.310212 0.000000 
0.000000 -34.908259 0.000000 
0.000000 0.000000 0.000000 

-21.524614 2.587880 0.000000 
0.000000 -26.858701 0.000000 
0.000000 0.000000 0.000000 

-17.519906 1.643646 0.000000 
0.000000 -25.392570 0.000000 
0.000000 0.000000 0.000000 

-6.689273 0.481544 0.000000 
0.000000 -11.349087 0.000000 
0.000000 0.000000 0.000000 

-1.655254 1.299125 0.000000 
0.000000 -6.215365 0.000000 
0.000000 0.000000 0.000000 
