# vtk DataFile Version 3.0 
vtk output 
ASCII 
DATASET UNSTRUCTURED_GRID 
POINTS 184 float 
-0.028811 0.466475 0.000000 
-0.337228 -0.345131 0.000000 
0.473826 -0.035905 0.000000 
-0.447224 0.158852 0.000000 
0.165656 -0.451598 0.000000 
0.222713 0.411733 0.000000 
-0.284076 0.372025 0.000000 
-0.100762 -0.470652 0.000000 
0.418839 0.215897 0.000000 
-0.462804 -0.114409 0.000000 
0.379480 -0.291531 0.000000 
-0.166786 0.438988 0.000000 
-0.227178 -0.423502 0.000000 
0.463197 0.093307 0.000000 
-0.473871 0.020993 0.000000 
0.286252 -0.389311 0.000000 
0.100762 0.455741 0.000000 
-0.377333 0.280714 0.000000 
0.039274 -0.480508 0.000000 
0.337021 0.330141 0.000000 
-0.416046 -0.234634 0.000000 
0.444142 -0.173112 0.000000 
-0.121270 0.452352 0.000000 
-0.301377 -0.376197 0.000000 
0.473826 0.011534 0.000000 
-0.460589 0.113335 0.000000 
0.246344 -0.414958 0.000000 
0.179561 0.431440 0.000000 
-0.346268 0.316566 0.000000 
-0.053807 -0.477404 0.000000 
0.368087 0.294289 0.000000 
-0.449439 -0.159925 0.000000 
0.424436 -0.216263 0.000000 
-0.209938 0.419281 0.000000 
-0.146279 -0.457288 0.000000 
0.438546 0.172746 0.000000 
-0.473871 -0.026445 0.000000 
0.322103 -0.358245 0.000000 
0.018627 0.466475 0.000000 
-0.427517 0.202003 0.000000 
0.086229 -0.473757 0.000000 
0.301170 0.361206 0.000000 
-0.368294 -0.309280 0.000000 
0.457507 -0.127595 0.000000 
-0.079407 0.434730 0.000000 
0.369154 0.249156 0.000000 
0.048715 0.438119 0.000000 
0.205703 -0.407370 0.000000 
-0.167159 -0.421604 0.000000 
-0.366567 -0.267972 0.000000 
0.386144 -0.231853 0.000000 
-0.305135 0.320736 0.000000 
-0.387078 0.221687 0.000000 
0.425252 0.133598 0.000000 
0.140413 0.418146 0.000000 
0.111975 -0.441408 0.000000 
-0.260069 -0.374470 0.000000 
-0.413756 -0.180806 0.000000 
0.439780 -0.085370 0.000000 
0.326273 -0.317112 0.000000 
-0.014533 -0.453849 0.000000 
-0.225527 0.380989 0.000000 
-0.442908 0.071109 0.000000 
-0.445123 -0.062724 0.000000 
0.255396 0.362623 0.000000 
0.445470 0.041621 0.000000 
-0.079333 0.378456 0.000000 
-0.130417 0.335646 0.000000 
-0.191597 0.340264 0.000000 
-0.111867 0.277038 0.000000 
-0.224051 0.285743 0.000000 
-0.171272 0.248744 0.000000 
-0.055594 0.262810 0.000000 
-0.279041 0.275179 0.000000 
-0.040187 0.207088 0.000000 
-0.015041 0.304014 0.000000 
-0.296573 0.215915 0.000000 
-0.349226 0.185630 0.000000 
-0.351226 0.119926 0.000000 
-0.254824 0.177160 0.000000 
-0.391103 0.070605 0.000000 
-0.370336 0.011001 0.000000 
-0.284940 0.119974 0.000000 
-0.395089 -0.048492 0.000000 
-0.360392 -0.094667 0.000000 
-0.313327 0.011576 0.000000 
-0.369688 -0.153015 0.000000 
-0.323258 -0.186810 0.000000 
-0.307698 -0.053085 0.000000 
-0.317847 -0.247938 0.000000 
-0.261652 -0.273134 0.000000 
-0.273358 -0.160617 0.000000 
-0.237999 -0.327293 0.000000 
-0.174943 -0.333164 0.000000 
-0.233858 -0.212204 0.000000 
-0.136993 -0.378444 0.000000 
-0.076092 -0.369276 0.000000 
-0.147100 -0.284186 0.000000 
-0.021468 -0.402246 0.000000 
0.034383 -0.376293 0.000000 
-0.085997 -0.306219 0.000000 
0.090783 -0.393850 0.000000 
0.131601 -0.352982 0.000000 
0.025861 -0.319819 0.000000 
0.192839 -0.356312 0.000000 
0.225790 -0.304284 0.000000 
0.089168 -0.305303 0.000000 
0.282731 -0.288561 0.000000 
0.297512 -0.226982 0.000000 
0.190626 -0.256251 0.000000 
0.347718 -0.195855 0.000000 
0.347308 -0.134270 0.000000 
0.236036 -0.209812 0.000000 
0.387714 -0.084892 0.000000 
0.369971 -0.025917 0.000000 
0.294872 -0.113695 0.000000 
0.395378 0.027411 0.000000 
0.360736 0.073630 0.000000 
0.307967 -0.050077 0.000000 
0.372882 0.128131 0.000000 
0.326072 0.168151 0.000000 
0.305499 0.062590 0.000000 
0.320446 0.229157 0.000000 
0.261463 0.258193 0.000000 
0.282122 0.123189 0.000000 
0.233332 0.315460 0.000000 
0.170485 0.321413 0.000000 
0.219133 0.216636 0.000000 
0.132530 0.366678 0.000000 
0.077667 0.356821 0.000000 
0.033502 0.390667 0.000000 
-0.020231 0.361052 0.000000 
0.166704 0.254976 0.000000 
0.047676 0.303766 0.000000 
-0.184513 0.199425 0.000000 
-0.267808 0.071228 0.000000 
-0.039895 -0.282716 0.000000 
0.233804 -0.158110 0.000000 
0.278138 -0.007789 0.000000 
0.115242 -0.260601 0.000000 
0.234165 0.142637 0.000000 
-0.267095 -0.085240 0.000000 
-0.182363 -0.217384 0.000000 
-0.080635 0.165863 0.000000 
0.015739 0.192672 0.000000 
-0.141814 0.163054 0.000000 
-0.170613 0.105591 0.000000 
-0.215488 0.066865 0.000000 
-0.205084 0.003545 0.000000 
-0.129406 0.068645 0.000000 
-0.218571 -0.056950 0.000000 
-0.148068 0.011459 0.000000 
-0.174593 -0.103325 0.000000 
-0.076799 0.102766 0.000000 
-0.155573 -0.165424 0.000000 
-0.126037 -0.073296 0.000000 
-0.074980 -0.099907 0.000000 
-0.112999 -0.019007 0.000000 
-0.052249 -0.002235 0.000000 
-0.031995 -0.055219 0.000000 
-0.034711 0.062353 0.000000 
0.031192 0.137038 0.000000 
0.063050 0.248146 0.000000 
-0.089197 -0.163547 0.000000 
0.009049 0.078757 0.000000 
0.051424 0.028861 0.000000 
0.053332 -0.026277 0.000000 
0.098177 0.058153 0.000000 
0.011239 -0.069121 0.000000 
0.028372 -0.130558 0.000000 
0.017947 -0.189984 0.000000 
0.077740 -0.217873 0.000000 
0.083331 -0.131199 0.000000 
0.117710 -0.173338 0.000000 
0.179025 -0.144408 0.000000 
0.098599 -0.070300 0.000000 
0.165702 0.047579 0.000000 
0.087920 0.116973 0.000000 
0.161326 -0.073674 0.000000 
0.191154 0.105439 0.000000 
0.131959 0.148289 0.000000 
0.122542 0.223828 0.000000 
-0.040916 -0.207417 0.000000 
0.197397 -0.014220 0.000000 
CELLS 184 368 
1 0 
1 1 
1 2 
1 3 
1 4 
1 5 
1 6 
1 7 
1 8 
1 9 
1 10 
1 11 
1 12 
1 13 
1 14 
1 15 
1 16 
1 17 
1 18 
1 19 
1 20 
1 21 
1 22 
1 23 
1 24 
1 25 
1 26 
1 27 
1 28 
1 29 
1 30 
1 31 
1 32 
1 33 
1 34 
1 35 
1 36 
1 37 
1 38 
1 39 
1 40 
1 41 
1 42 
1 43 
1 44 
1 45 
1 46 
1 47 
1 48 
1 49 
1 50 
1 51 
1 52 
1 53 
1 54 
1 55 
1 56 
1 57 
1 58 
1 59 
1 60 
1 61 
1 62 
1 63 
1 64 
1 65 
1 66 
1 67 
1 68 
1 69 
1 70 
1 71 
1 72 
1 73 
1 74 
1 75 
1 76 
1 77 
1 78 
1 79 
1 80 
1 81 
1 82 
1 83 
1 84 
1 85 
1 86 
1 87 
1 88 
1 89 
1 90 
1 91 
1 92 
1 93 
1 94 
1 95 
1 96 
1 97 
1 98 
1 99 
1 100 
1 101 
1 102 
1 103 
1 104 
1 105 
1 106 
1 107 
1 108 
1 109 
1 110 
1 111 
1 112 
1 113 
1 114 
1 115 
1 116 
1 117 
1 118 
1 119 
1 120 
1 121 
1 122 
1 123 
1 124 
1 125 
1 126 
1 127 
1 128 
1 129 
1 130 
1 131 
1 132 
1 133 
1 134 
1 135 
1 136 
1 137 
1 138 
1 139 
1 140 
1 141 
1 142 
1 143 
1 144 
1 145 
1 146 
1 147 
1 148 
1 149 
1 150 
1 151 
1 152 
1 153 
1 154 
1 155 
1 156 
1 157 
1 158 
1 159 
1 160 
1 161 
1 162 
1 163 
1 164 
1 165 
1 166 
1 167 
1 168 
1 169 
1 170 
1 171 
1 172 
1 173 
1 174 
1 175 
1 176 
1 177 
1 178 
1 179 
1 180 
1 181 
1 182 
1 183 
CELL_TYPES 184 
1 
1 
1 
1 
1 
1 
1 
1 
1 
1 
1 
1 
1 
1 
1 
1 
1 
1 
1 
1 
1 
1 
1 
1 
1 
1 
1 
1 
1 
1 
1 
1 
1 
1 
1 
1 
1 
1 
1 
1 
1 
1 
1 
1 
1 
1 
1 
1 
1 
1 
1 
1 
1 
1 
1 
1 
1 
1 
1 
1 
1 
1 
1 
1 
1 
1 
1 
1 
1 
1 
1 
1 
1 
1 
1 
1 
1 
1 
1 
1 
1 
1 
1 
1 
1 
1 
1 
1 
1 
1 
1 
1 
1 
1 
1 
1 
1 
1 
1 
1 
1 
1 
1 
1 
1 
1 
1 
1 
1 
1 
1 
1 
1 
1 
1 
1 
1 
1 
1 
1 
1 
1 
1 
1 
1 
1 
1 
1 
1 
1 
1 
1 
1 
1 
1 
1 
1 
1 
1 
1 
1 
1 
1 
1 
1 
1 
1 
1 
1 
1 
1 
1 
1 
1 
1 
1 
1 
1 
1 
1 
1 
1 
1 
1 
1 
1 
1 
1 
1 
1 
1 
1 
1 
1 
1 
1 
1 
1 
1 
1 
1 
1 
1 
1 
POINT_DATA 184 
VECTORS X_GC float 
-0.028811 0.466475 0.000000 
-0.337228 -0.345131 0.000000 
0.473826 -0.035905 0.000000 
-0.447224 0.158852 0.000000 
0.165656 -0.451598 0.000000 
0.222713 0.411733 0.000000 
-0.284076 0.372025 0.000000 
-0.100762 -0.470652 0.000000 
0.418839 0.215897 0.000000 
-0.462804 -0.114409 0.000000 
0.379480 -0.291531 0.000000 
-0.166786 0.438988 0.000000 
-0.227178 -0.423502 0.000000 
0.463197 0.093307 0.000000 
-0.473871 0.020993 0.000000 
0.286252 -0.389311 0.000000 
0.100762 0.455741 0.000000 
-0.377333 0.280714 0.000000 
0.039274 -0.480508 0.000000 
0.337021 0.330141 0.000000 
-0.416046 -0.234634 0.000000 
0.444142 -0.173112 0.000000 
-0.121270 0.452352 0.000000 
-0.301377 -0.376197 0.000000 
0.473826 0.011534 0.000000 
-0.460589 0.113335 0.000000 
0.246344 -0.414958 0.000000 
0.179561 0.431440 0.000000 
-0.346268 0.316566 0.000000 
-0.053807 -0.477404 0.000000 
0.368087 0.294289 0.000000 
-0.449439 -0.159925 0.000000 
0.424436 -0.216263 0.000000 
-0.209938 0.419281 0.000000 
-0.146279 -0.457288 0.000000 
0.438546 0.172746 0.000000 
-0.473871 -0.026445 0.000000 
0.322103 -0.358245 0.000000 
0.018627 0.466475 0.000000 
-0.427517 0.202003 0.000000 
0.086229 -0.473757 0.000000 
0.301170 0.361206 0.000000 
-0.368294 -0.309280 0.000000 
0.457507 -0.127595 0.000000 
-0.079407 0.434730 0.000000 
0.369154 0.249156 0.000000 
0.048715 0.438119 0.000000 
0.205703 -0.407370 0.000000 
-0.167159 -0.421604 0.000000 
-0.366567 -0.267972 0.000000 
0.386144 -0.231853 0.000000 
-0.305135 0.320736 0.000000 
-0.387078 0.221687 0.000000 
0.425252 0.133598 0.000000 
0.140413 0.418146 0.000000 
0.111975 -0.441408 0.000000 
-0.260069 -0.374470 0.000000 
-0.413756 -0.180806 0.000000 
0.439780 -0.085370 0.000000 
0.326273 -0.317112 0.000000 
-0.014533 -0.453849 0.000000 
-0.225527 0.380989 0.000000 
-0.442908 0.071109 0.000000 
-0.445123 -0.062724 0.000000 
0.255396 0.362623 0.000000 
0.445470 0.041621 0.000000 
-0.079333 0.378456 0.000000 
-0.130417 0.335646 0.000000 
-0.191597 0.340264 0.000000 
-0.111867 0.277038 0.000000 
-0.224051 0.285743 0.000000 
-0.171272 0.248744 0.000000 
-0.055594 0.262810 0.000000 
-0.279041 0.275179 0.000000 
-0.040187 0.207088 0.000000 
-0.015041 0.304014 0.000000 
-0.296573 0.215915 0.000000 
-0.349226 0.185630 0.000000 
-0.351226 0.119926 0.000000 
-0.254824 0.177160 0.000000 
-0.391103 0.070605 0.000000 
-0.370336 0.011001 0.000000 
-0.284940 0.119974 0.000000 
-0.395089 -0.048492 0.000000 
-0.360392 -0.094667 0.000000 
-0.313327 0.011576 0.000000 
-0.369688 -0.153015 0.000000 
-0.323258 -0.186810 0.000000 
-0.307698 -0.053085 0.000000 
-0.317847 -0.247938 0.000000 
-0.261652 -0.273134 0.000000 
-0.273358 -0.160617 0.000000 
-0.237999 -0.327293 0.000000 
-0.174943 -0.333164 0.000000 
-0.233858 -0.212204 0.000000 
-0.136993 -0.378444 0.000000 
-0.076092 -0.369276 0.000000 
-0.147100 -0.284186 0.000000 
-0.021468 -0.402246 0.000000 
0.034383 -0.376293 0.000000 
-0.085997 -0.306219 0.000000 
0.090783 -0.393850 0.000000 
0.131601 -0.352982 0.000000 
0.025861 -0.319819 0.000000 
0.192839 -0.356312 0.000000 
0.225790 -0.304284 0.000000 
0.089168 -0.305303 0.000000 
0.282731 -0.288561 0.000000 
0.297512 -0.226982 0.000000 
0.190626 -0.256251 0.000000 
0.347718 -0.195855 0.000000 
0.347308 -0.134270 0.000000 
0.236036 -0.209812 0.000000 
0.387714 -0.084892 0.000000 
0.369971 -0.025917 0.000000 
0.294872 -0.113695 0.000000 
0.395378 0.027411 0.000000 
0.360736 0.073630 0.000000 
0.307967 -0.050077 0.000000 
0.372882 0.128131 0.000000 
0.326072 0.168151 0.000000 
0.305499 0.062590 0.000000 
0.320446 0.229157 0.000000 
0.261463 0.258193 0.000000 
0.282122 0.123189 0.000000 
0.233332 0.315460 0.000000 
0.170485 0.321413 0.000000 
0.219133 0.216636 0.000000 
0.132530 0.366678 0.000000 
0.077667 0.356821 0.000000 
0.033502 0.390667 0.000000 
-0.020231 0.361052 0.000000 
0.166704 0.254976 0.000000 
0.047676 0.303766 0.000000 
-0.184513 0.199425 0.000000 
-0.267808 0.071228 0.000000 
-0.039895 -0.282716 0.000000 
0.233804 -0.158110 0.000000 
0.278138 -0.007789 0.000000 
0.115242 -0.260601 0.000000 
0.234165 0.142637 0.000000 
-0.267095 -0.085240 0.000000 
-0.182363 -0.217384 0.000000 
-0.080635 0.165863 0.000000 
0.015739 0.192672 0.000000 
-0.141814 0.163054 0.000000 
-0.170613 0.105591 0.000000 
-0.215488 0.066865 0.000000 
-0.205084 0.003545 0.000000 
-0.129406 0.068645 0.000000 
-0.218571 -0.056950 0.000000 
-0.148068 0.011459 0.000000 
-0.174593 -0.103325 0.000000 
-0.076799 0.102766 0.000000 
-0.155573 -0.165424 0.000000 
-0.126037 -0.073296 0.000000 
-0.074980 -0.099907 0.000000 
-0.112999 -0.019007 0.000000 
-0.052249 -0.002235 0.000000 
-0.031995 -0.055219 0.000000 
-0.034711 0.062353 0.000000 
0.031192 0.137038 0.000000 
0.063050 0.248146 0.000000 
-0.089197 -0.163547 0.000000 
0.009049 0.078757 0.000000 
0.051424 0.028861 0.000000 
0.053332 -0.026277 0.000000 
0.098177 0.058153 0.000000 
0.011239 -0.069121 0.000000 
0.028372 -0.130558 0.000000 
0.017947 -0.189984 0.000000 
0.077740 -0.217873 0.000000 
0.083331 -0.131199 0.000000 
0.117710 -0.173338 0.000000 
0.179025 -0.144408 0.000000 
0.098599 -0.070300 0.000000 
0.165702 0.047579 0.000000 
0.087920 0.116973 0.000000 
0.161326 -0.073674 0.000000 
0.191154 0.105439 0.000000 
0.131959 0.148289 0.000000 
0.122542 0.223828 0.000000 
-0.040916 -0.207417 0.000000 
0.197397 -0.014220 0.000000 
VECTORS X_EC float 
-0.423772 -0.329496 0.000000 
-0.255438 -0.097379 0.000000 
-0.476516 -0.281907 0.000000 
-0.055525 -0.177041 0.000000 
-0.313129 0.031956 0.000000 
0.545750 0.765333 0.000000 
0.681511 -0.440498 0.000000 
-0.984754 0.413049 0.000000 
0.623212 0.682058 0.000000 
0.256087 -0.711826 0.000000 
-0.589610 0.830623 0.000000 
0.335730 0.220250 0.000000 
-0.456433 -0.529966 0.000000 
-0.263937 -0.866134 0.000000 
0.477427 0.580143 0.000000 
-0.725034 0.786212 0.000000 
0.984754 -0.114825 0.000000 
0.546669 -0.614288 0.000000 
0.214530 0.610155 0.000000 
0.259575 0.397187 0.000000 
-0.679078 -0.307321 0.000000 
0.117156 0.462242 0.000000 
-0.574604 -0.047048 0.000000 
-0.972467 0.523930 0.000000 
-0.476516 0.769328 0.000000 
0.211773 0.733293 0.000000 
0.073118 -0.700846 0.000000 
-0.591223 0.371201 0.000000 
-0.074640 0.668683 0.000000 
0.076138 0.548072 0.000000 
-0.361734 -0.885784 0.000000 
-0.011211 0.198508 0.000000 
0.511288 -0.674731 0.000000 
-0.801243 0.614381 0.000000 
-0.074420 0.145751 0.000000 
0.229081 -0.454915 0.000000 
0.477427 -0.471091 0.000000 
0.557936 0.164903 0.000000 
0.627462 -0.329496 0.000000 
-0.449656 0.959932 0.000000 
-0.724579 0.475132 0.000000 
0.976604 -0.224123 0.000000 
0.365871 -0.814408 0.000000 
-0.150142 -0.448092 0.000000 
0.588132 0.305392 0.000000 
-0.383072 0.016883 0.000000 
0.025707 0.237615 0.000000 
0.885950 -0.852597 0.000000 
0.343186 -0.567922 0.000000 
0.331343 0.359437 0.000000 
-0.722872 -0.362942 0.000000 
-0.897299 0.585286 0.000000 
0.741563 0.566254 0.000000 
0.494965 0.328047 0.000000 
0.191739 0.637086 0.000000 
0.760500 -0.171846 0.000000 
0.201378 0.489402 0.000000 
-0.724884 0.616114 0.000000 
0.204390 0.707397 0.000000 
0.474539 -0.657756 0.000000 
-0.709333 0.076973 0.000000 
-0.489454 -0.619778 0.000000 
-0.141847 -0.422185 0.000000 
-0.097534 0.254479 0.000000 
-0.107924 -0.252452 0.000000 
0.090595 0.167573 0.000000 
0.586655 -0.569113 0.000000 
-0.391666 0.287073 0.000000 
0.831934 0.194717 0.000000 
-0.762652 -0.540768 0.000000 
-0.518973 -0.714868 0.000000 
0.425440 0.025111 0.000000 
0.111886 -0.256200 0.000000 
0.580828 -0.503579 0.000000 
-0.196260 0.858239 0.000000 
-0.699172 0.919717 0.000000 
0.931460 0.681698 0.000000 
-0.015478 -0.712599 0.000000 
0.024513 0.601488 0.000000 
0.096473 -0.543198 0.000000 
0.822064 -0.412110 0.000000 
0.406721 0.779971 0.000000 
0.698793 0.600525 0.000000 
0.901777 -0.030150 0.000000 
0.207832 0.893341 0.000000 
-0.733459 0.768482 0.000000 
0.393754 0.060302 0.000000 
-0.534846 0.736198 0.000000 
-0.846031 0.061695 0.000000 
-0.643063 -0.041232 0.000000 
0.233047 0.462685 0.000000 
0.467160 0.212349 0.000000 
-0.240011 -0.454145 0.000000 
0.498854 -0.336717 0.000000 
-0.322837 -0.755925 0.000000 
-0.260138 0.568874 0.000000 
0.521832 0.385524 0.000000 
-0.057994 0.683724 0.000000 
-0.570648 -0.955074 0.000000 
0.312339 0.525855 0.000000 
0.719944 -0.875620 0.000000 
-0.815650 0.876996 0.000000 
0.367982 0.059644 0.000000 
0.482772 -0.603613 0.000000 
-0.856789 0.126249 0.000000 
0.484195 -0.914330 0.000000 
-0.783368 -0.893947 0.000000 
-0.654616 0.771223 0.000000 
-0.950243 -0.460364 0.000000 
-0.812511 0.125030 0.000000 
0.045650 0.917092 0.000000 
0.053835 -0.314592 0.000000 
0.279288 -0.803753 0.000000 
-0.754286 0.697837 0.000000 
-0.399428 -0.481651 0.000000 
-0.897435 -0.726100 0.000000 
-0.907569 0.451773 0.000000 
-0.214713 -0.472606 0.000000 
0.840652 0.001548 0.000000 
-0.457647 0.437376 0.000000 
0.478557 -0.363022 0.000000 
0.890011 -0.251805 0.000000 
0.591088 0.416866 0.000000 
-0.229267 -0.163864 0.000000 
-0.642438 0.536225 0.000000 
0.333354 0.690795 0.000000 
-0.409704 0.571737 0.000000 
0.617341 0.667275 0.000000 
0.349399 -0.333553 0.000000 
-0.553343 -0.136428 0.000000 
0.329951 -0.813349 0.000000 
-0.595389 -0.221037 0.000000 
-0.334089 -0.099521 0.000000 
0.046474 0.924679 0.000000 
0.690254 -0.988496 0.000000 
0.356165 -0.424562 0.000000 
-0.202103 0.654314 0.000000 
0.323911 0.162195 0.000000 
-0.562765 -0.844228 0.000000 
0.695155 0.212018 0.000000 
0.316701 0.147253 0.000000 
0.341897 0.704807 0.000000 
0.647257 -0.652314 0.000000 
0.612700 -0.317251 0.000000 
0.685214 -0.853436 0.000000 
-0.163720 -0.261071 0.000000 
0.412264 0.888174 0.000000 
-0.690249 -0.337295 0.000000 
-0.898326 0.929100 0.000000 
-0.411883 -0.372893 0.000000 
-0.628586 0.139006 0.000000 
-0.038643 0.770817 0.000000 
0.491864 -0.933498 0.000000 
0.535974 0.944678 0.000000 
0.111469 0.308476 0.000000 
-0.479253 0.465928 0.000000 
0.499592 0.998146 0.000000 
-0.740020 -0.619851 0.000000 
0.044980 -0.955293 0.000000 
-0.360105 0.104387 0.000000 
-0.305787 -0.247055 0.000000 
0.376159 0.259238 0.000000 
-0.260994 0.037086 0.000000 
0.783933 0.270934 0.000000 
0.819028 -0.575138 0.000000 
-0.028485 0.422771 0.000000 
-0.066639 -0.474467 0.000000 
-0.963543 -0.163068 0.000000 
0.775222 0.382417 0.000000 
0.432560 -0.388842 0.000000 
0.641052 0.799674 0.000000 
-0.554790 -0.642532 0.000000 
-0.666620 -0.376027 0.000000 
0.645791 0.466768 0.000000 
-0.580505 -0.111838 0.000000 
-0.971973 0.406008 0.000000 
-0.314048 0.048419 0.000000 
-0.758397 0.660532 0.000000 
-0.226524 0.473484 0.000000 
-0.823077 0.891229 0.000000 
0.360813 0.034221 0.000000 
0.549161 0.523449 0.000000 
-0.181680 -0.851650 0.000000 
-0.947949 -0.715607 0.000000 
CELL_DATA 184 
SCALARS MASS float 
LOOKUP_TABLE default 
0.051252 
0.046008 
0.051531 
0.046188 
0.052854 
0.051531 
0.052854 
0.052854 
0.051531 
0.050859 
0.052854 
0.047395 
0.052854 
0.052854 
0.051434 
0.045995 
0.052854 
0.051281 
0.051530 
0.046441 
0.052854 
0.052854 
0.050612 
0.049065 
0.052975 
0.049197 
0.049245 
0.052975 
0.052990 
0.055938 
0.049713 
0.052094 
0.055938 
0.050456 
0.055938 
0.053198 
0.052878 
0.049051 
0.052807 
0.049481 
0.052974 
0.049465 
0.049257 
0.055938 
0.105225 
0.104629 
0.082126 
0.094264 
0.094771 
0.094259 
0.094771 
0.083366 
0.104047 
0.083092 
0.081316 
0.081315 
0.092719 
0.079469 
0.108073 
0.092710 
0.108073 
0.093129 
0.104035 
0.094961 
0.104398 
0.081316 
0.125285 
0.099128 
0.098320 
0.087841 
0.082650 
0.097481 
0.086914 
0.081921 
0.086680 
0.086680 
0.081485 
0.107769 
0.088711 
0.084874 
0.107874 
0.082612 
0.095190 
0.095229 
0.083942 
0.085089 
0.079923 
0.081132 
0.095301 
0.097917 
0.090576 
0.085268 
0.095896 
0.081062 
0.095454 
0.090083 
0.081027 
0.085251 
0.101961 
0.083022 
0.095445 
0.080604 
0.081018 
0.085240 
0.097826 
0.090495 
0.095435 
0.095845 
0.081023 
0.085241 
0.090072 
0.081024 
0.095436 
0.101966 
0.083028 
0.085242 
0.080610 
0.081024 
0.095437 
0.082345 
0.082694 
0.085242 
0.109264 
0.089885 
0.095437 
0.108636 
0.083028 
0.085242 
0.080610 
0.074817 
0.073569 
0.082490 
0.095437 
0.095617 
0.133784 
0.138292 
0.139667 
0.139695 
0.139694 
0.139689 
0.139693 
0.140105 
0.139774 
0.086622 
0.086622 
0.089038 
0.077179 
0.079159 
0.072465 
0.084345 
0.092656 
0.093083 
0.084037 
0.098826 
0.101847 
0.085968 
0.086444 
0.074619 
0.064825 
0.094138 
0.124406 
0.086607 
0.131576 
0.102571 
0.084703 
0.076503 
0.084191 
0.084191 
0.086793 
0.075696 
0.084714 
0.090949 
0.084009 
0.076569 
0.086383 
0.098391 
0.110757 
0.093222 
0.143196 
0.101090 
0.091038 
0.150913 
0.178131 
0.206980 
SCALARS MASS float 
LOOKUP_TABLE default 
0.051252 
0.046008 
0.051531 
0.046188 
0.052854 
0.051531 
0.052854 
0.052854 
0.051531 
0.050859 
0.052854 
0.047395 
0.052854 
0.052854 
0.051434 
0.045995 
0.052854 
0.051281 
0.051530 
0.046441 
0.052854 
0.052854 
0.050612 
0.049065 
0.052975 
0.049197 
0.049245 
0.052975 
0.052990 
0.055938 
0.049713 
0.052094 
0.055938 
0.050456 
0.055938 
0.053198 
0.052878 
0.049051 
0.052807 
0.049481 
0.052974 
0.049465 
0.049257 
0.055938 
0.105225 
0.104629 
0.082126 
0.094264 
0.094771 
0.094259 
0.094771 
0.083366 
0.104047 
0.083092 
0.081316 
0.081315 
0.092719 
0.079469 
0.108073 
0.092710 
0.108073 
0.093129 
0.104035 
0.094961 
0.104398 
0.081316 
0.125285 
0.099128 
0.098320 
0.087841 
0.082650 
0.097481 
0.086914 
0.081921 
0.086680 
0.086680 
0.081485 
0.107769 
0.088711 
0.084874 
0.107874 
0.082612 
0.095190 
0.095229 
0.083942 
0.085089 
0.079923 
0.081132 
0.095301 
0.097917 
0.090576 
0.085268 
0.095896 
0.081062 
0.095454 
0.090083 
0.081027 
0.085251 
0.101961 
0.083022 
0.095445 
0.080604 
0.081018 
0.085240 
0.097826 
0.090495 
0.095435 
0.095845 
0.081023 
0.085241 
0.090072 
0.081024 
0.095436 
0.101966 
0.083028 
0.085242 
0.080610 
0.081024 
0.095437 
0.082345 
0.082694 
0.085242 
0.109264 
0.089885 
0.095437 
0.108636 
0.083028 
0.085242 
0.080610 
0.074817 
0.073569 
0.082490 
0.095437 
0.095617 
0.133784 
0.138292 
0.139667 
0.139695 
0.139694 
0.139689 
0.139693 
0.140105 
0.139774 
0.086622 
0.086622 
0.089038 
0.077179 
0.079159 
0.072465 
0.084345 
0.092656 
0.093083 
0.084037 
0.098826 
0.101847 
0.085968 
0.086444 
0.074619 
0.064825 
0.094138 
0.124406 
0.086607 
0.131576 
0.102571 
0.084703 
0.076503 
0.084191 
0.084191 
0.086793 
0.075696 
0.084714 
0.090949 
0.084009 
0.076569 
0.086383 
0.098391 
0.110757 
0.093222 
0.143196 
0.101090 
0.091038 
0.150913 
0.178131 
0.206980 
SCALARS DENSITY float 
LOOKUP_TABLE default 
20.000000 
20.000000 
20.000000 
20.000000 
20.000000 
20.000000 
20.000000 
20.000000 
20.000000 
20.000000 
20.000000 
20.000000 
20.000000 
20.000000 
20.000000 
20.000000 
20.000000 
20.000000 
20.000000 
20.000000 
20.000000 
20.000000 
20.000000 
20.000000 
20.000000 
20.000000 
20.000000 
20.000000 
20.000000 
20.000000 
20.000000 
20.000000 
20.000000 
20.000000 
20.000000 
20.000000 
20.000000 
20.000000 
20.000000 
20.000000 
20.000000 
20.000000 
20.000000 
20.000000 
20.000000 
20.000000 
20.000000 
20.000000 
20.000000 
20.000000 
20.000000 
20.000000 
20.000000 
20.000000 
20.000000 
20.000000 
20.000000 
20.000000 
20.000000 
20.000000 
20.000000 
20.000000 
20.000000 
20.000000 
20.000000 
20.000000 
20.000000 
20.000000 
20.000000 
20.000000 
20.000000 
20.000000 
20.000000 
20.000000 
20.000000 
20.000000 
20.000000 
20.000000 
20.000000 
20.000000 
20.000000 
20.000000 
20.000000 
20.000000 
20.000000 
20.000000 
20.000000 
20.000000 
20.000000 
20.000000 
20.000000 
20.000000 
20.000000 
20.000000 
20.000000 
20.000000 
20.000000 
20.000000 
20.000000 
20.000000 
20.000000 
20.000000 
20.000000 
20.000000 
20.000000 
20.000000 
20.000000 
20.000000 
20.000000 
20.000000 
20.000000 
20.000000 
20.000000 
20.000000 
20.000000 
20.000000 
20.000000 
20.000000 
20.000000 
20.000000 
20.000000 
20.000000 
20.000000 
20.000000 
20.000000 
20.000000 
20.000000 
20.000000 
20.000000 
20.000000 
20.000000 
20.000000 
20.000000 
20.000000 
20.000000 
20.000000 
20.000000 
20.000000 
20.000000 
20.000000 
20.000000 
20.000000 
20.000000 
20.000000 
20.000000 
20.000000 
20.000000 
20.000000 
20.000000 
20.000000 
20.000000 
20.000000 
20.000000 
20.000000 
20.000000 
20.000000 
20.000000 
20.000000 
20.000000 
20.000000 
20.000000 
20.000000 
20.000000 
20.000000 
20.000000 
20.000000 
20.000000 
20.000000 
20.000000 
20.000000 
20.000000 
20.000000 
20.000000 
20.000000 
20.000000 
20.000000 
20.000000 
20.000000 
20.000000 
20.000000 
20.000000 
20.000000 
20.000000 
20.000000 
SCALARS ELEM_i float 
LOOKUP_TABLE default 
634 
806 
329 
871 
505 
454 
753 
685 
332 
868 
387 
694 
745 
330 
870 
446 
514 
812 
565 
393 
867 
328 
694 
806 
330 
871 
445 
514 
813 
625 
392 
868 
327 
754 
685 
331 
869 
386 
574 
872 
565 
393 
806 
328 
634 
392 
574 
445 
685 
807 
387 
813 
812 
331 
514 
505 
746 
868 
329 
386 
625 
753 
870 
869 
453 
330 
633 
693 
693 
692 
752 
692 
632 
752 
632 
633 
752 
811 
811 
751 
810 
810 
751 
809 
809 
810 
808 
808 
809 
807 
747 
748 
746 
686 
747 
686 
626 
687 
625 
566 
626 
566 
506 
566 
506 
446 
566 
447 
447 
507 
388 
388 
447 
389 
389 
448 
390 
390 
389 
391 
391 
390 
392 
452 
451 
453 
513 
452 
513 
573 
573 
633 
512 
573 
691 
750 
627 
448 
449 
507 
451 
749 
687 
631 
571 
691 
691 
750 
750 
690 
749 
690 
688 
631 
688 
689 
629 
689 
629 
629 
630 
571 
572 
628 
570 
570 
569 
570 
569 
568 
568 
567 
568 
508 
508 
569 
510 
571 
509 
511 
511 
512 
627 
509 
VECTORS VELOCITY float 
0.000000 -0.372780 0.000000 
-0.000000 -0.372780 0.000000 
-0.000000 -0.372780 0.000000 
-0.000000 -0.372780 0.000000 
-0.000000 -0.372780 0.000000 
0.000000 -0.372780 0.000000 
-0.000000 -0.372780 0.000000 
-0.000000 -0.372780 0.000000 
0.000000 -0.372780 0.000000 
-0.000000 -0.372780 0.000000 
0.000000 -0.372780 0.000000 
-0.000000 -0.372780 0.000000 
-0.000000 -0.372780 0.000000 
0.000000 -0.372780 0.000000 
0.000000 -0.372780 0.000000 
0.000000 -0.372780 0.000000 
0.000000 -0.372780 0.000000 
-0.000000 -0.372780 0.000000 
0.000000 -0.372780 0.000000 
0.000000 -0.372780 0.000000 
-0.000000 -0.372780 0.000000 
-0.000000 -0.372780 0.000000 
-0.000000 -0.372780 0.000000 
-0.000000 -0.372780 0.000000 
0.000000 -0.372780 0.000000 
0.000000 -0.372780 0.000000 
0.000000 -0.372780 0.000000 
0.000000 -0.372780 0.000000 
-0.000000 -0.372780 0.000000 
-0.000000 -0.372780 0.000000 
0.000000 -0.372780 0.000000 
-0.000000 -0.372780 0.000000 
0.000000 -0.372780 0.000000 
-0.000000 -0.372780 0.000000 
-0.000000 -0.372780 0.000000 
0.000000 -0.372780 0.000000 
0.000000 -0.372780 0.000000 
0.000000 -0.372780 0.000000 
0.000000 -0.372780 0.000000 
-0.000000 -0.372780 0.000000 
0.000000 -0.372780 0.000000 
0.000000 -0.372780 0.000000 
-0.000000 -0.372780 0.000000 
-0.000000 -0.372780 0.000000 
0.000000 -0.372780 0.000000 
0.000000 -0.372780 0.000000 
0.000000 -0.372780 0.000000 
-0.000000 -0.372780 0.000000 
-0.000000 -0.372780 0.000000 
-0.000000 -0.372780 0.000000 
0.000000 -0.372780 0.000000 
-0.000000 -0.372780 0.000000 
-0.000000 -0.372780 0.000000 
0.000000 -0.372780 0.000000 
0.000000 -0.372780 0.000000 
0.000000 -0.372780 0.000000 
-0.000000 -0.372780 0.000000 
-0.000000 -0.372780 0.000000 
-0.000000 -0.372780 0.000000 
0.000000 -0.372780 0.000000 
-0.000000 -0.372780 0.000000 
0.000000 -0.372780 0.000000 
0.000000 -0.372780 0.000000 
-0.000000 -0.372780 0.000000 
0.000000 -0.372780 0.000000 
0.000000 -0.372780 0.000000 
0.000000 -0.372780 0.000000 
0.000000 -0.372780 0.000000 
0.000000 -0.372780 0.000000 
0.000000 -0.372780 0.000000 
0.000000 -0.372780 0.000000 
0.000000 -0.372780 0.000000 
-0.000000 -0.372780 0.000000 
0.000000 -0.372780 0.000000 
-0.000000 -0.372780 0.000000 
-0.000000 -0.372780 0.000000 
0.000000 -0.372780 0.000000 
-0.000000 -0.372780 0.000000 
0.000000 -0.372780 0.000000 
0.000000 -0.372780 0.000000 
0.000000 -0.372780 0.000000 
0.000000 -0.372780 0.000000 
0.000000 -0.372780 0.000000 
-0.000000 -0.372780 0.000000 
-0.000000 -0.372780 0.000000 
0.000000 -0.372780 0.000000 
-0.000000 -0.372780 0.000000 
0.000000 -0.372780 0.000000 
-0.000000 -0.372780 0.000000 
0.000000 -0.372780 0.000000 
0.000000 -0.372780 0.000000 
0.000000 -0.372780 0.000000 
0.000000 -0.372780 0.000000 
0.000000 -0.372780 0.000000 
0.000000 -0.372780 0.000000 
0.000000 -0.372780 0.000000 
0.000000 -0.372780 0.000000 
0.000000 -0.372780 0.000000 
-0.000000 -0.372780 0.000000 
0.000000 -0.372780 0.000000 
0.000000 -0.372780 0.000000 
0.000000 -0.372780 0.000000 
0.000000 -0.372780 0.000000 
-0.000000 -0.372780 0.000000 
-0.000000 -0.372780 0.000000 
-0.000000 -0.372780 0.000000 
0.000000 -0.372780 0.000000 
0.000000 -0.372780 0.000000 
0.000000 -0.372780 0.000000 
-0.000000 -0.372780 0.000000 
0.000000 -0.372780 0.000000 
-0.000000 -0.372780 0.000000 
-0.000000 -0.372780 0.000000 
-0.000000 -0.372780 0.000000 
0.000000 -0.372780 0.000000 
-0.000000 -0.372780 0.000000 
0.000000 -0.372780 0.000000 
0.000000 -0.372780 0.000000 
-0.000000 -0.372780 0.000000 
0.000000 -0.372780 0.000000 
0.000000 -0.372780 0.000000 
0.000000 -0.372780 0.000000 
0.000000 -0.372780 0.000000 
-0.000000 -0.372780 0.000000 
-0.000000 -0.372780 0.000000 
-0.000000 -0.372780 0.000000 
-0.000000 -0.372780 0.000000 
-0.000000 -0.372780 0.000000 
0.000000 -0.372780 0.000000 
0.000000 -0.372780 0.000000 
0.000000 -0.372780 0.000000 
-0.000000 -0.372780 0.000000 
-0.000000 -0.372780 0.000000 
-0.000000 -0.372780 0.000000 
0.000000 -0.372780 0.000000 
0.000000 -0.372780 0.000000 
-0.000000 -0.372780 0.000000 
-0.000000 -0.372780 0.000000 
-0.000000 -0.372780 0.000000 
0.000000 -0.372780 0.000000 
-0.000000 -0.372780 0.000000 
-0.000000 -0.372780 0.000000 
0.000000 -0.372780 0.000000 
-0.000000 -0.372780 0.000000 
-0.000000 -0.372780 0.000000 
0.000000 -0.372780 0.000000 
0.000000 -0.372780 0.000000 
0.000000 -0.372780 0.000000 
0.000000 -0.372780 0.000000 
-0.000000 -0.372780 0.000000 
-0.000000 -0.372780 0.000000 
-0.000000 -0.372780 0.000000 
-0.000000 -0.372780 0.000000 
-0.000000 -0.372780 0.000000 
0.000000 -0.372780 0.000000 
-0.000000 -0.372780 0.000000 
-0.000000 -0.372780 0.000000 
-0.000000 -0.372780 0.000000 
-0.000000 -0.372780 0.000000 
-0.000000 -0.372780 0.000000 
-0.000000 -0.372780 0.000000 
-0.000000 -0.372780 0.000000 
0.000000 -0.372780 0.000000 
-0.000000 -0.372780 0.000000 
-0.000000 -0.372780 0.000000 
0.000000 -0.372780 0.000000 
0.000000 -0.372780 0.000000 
0.000000 -0.372780 0.000000 
-0.000000 -0.372780 0.000000 
-0.000000 -0.372780 0.000000 
-0.000000 -0.372780 0.000000 
0.000000 -0.372780 0.000000 
0.000000 -0.372780 0.000000 
0.000000 -0.372780 0.000000 
0.000000 -0.372780 0.000000 
0.000000 -0.372780 0.000000 
-0.000000 -0.372780 0.000000 
0.000000 -0.372780 0.000000 