# vtk DataFile Version 3.0 
vtk output 
ASCII 
DATASET UNSTRUCTURED_GRID 
POINTS 184 float 
-0.032016 -2.077369 0.000000 
-0.389996 -2.926630 0.000000 
0.473041 -2.569239 0.000000 
-0.446860 -2.389205 0.000000 
0.187021 -3.105673 0.000000 
0.218943 -2.129004 0.000000 
-0.285325 -2.173114 0.000000 
-0.113886 -3.144838 0.000000 
0.416993 -2.323499 0.000000 
-0.461673 -2.649192 0.000000 
0.406115 -2.848362 0.000000 
-0.167525 -2.104938 0.000000 
-0.241641 -3.045922 0.000000 
0.463445 -2.446740 0.000000 
-0.471967 -2.523380 0.000000 
0.298103 -2.976805 0.000000 
0.097925 -2.085148 0.000000 
-0.379882 -2.262354 0.000000 
0.054782 -3.168261 0.000000 
0.334055 -2.207227 0.000000 
-0.433210 -2.767540 0.000000 
0.446783 -2.698129 0.000000 
-0.127042 -2.090694 0.000000 
-0.327712 -2.968032 0.000000 
0.472601 -2.524520 0.000000 
-0.459608 -2.436651 0.000000 
0.261168 -3.027634 0.000000 
0.172016 -2.109706 0.000000 
-0.349019 -2.226330 0.000000 
-0.058780 -3.154395 0.000000 
0.365435 -2.243420 0.000000 
-0.449432 -2.691133 0.000000 
0.432072 -2.745819 0.000000 
-0.210722 -2.127389 0.000000 
-0.162857 -3.115861 0.000000 
0.437014 -2.367787 0.000000 
-0.471419 -2.567865 0.000000 
0.351375 -2.949668 0.000000 
0.017547 -2.077481 0.000000 
-0.428720 -2.343507 0.000000 
0.107124 -3.154621 0.000000 
0.296707 -2.176992 0.000000 
-0.416686 -2.869355 0.000000 
0.458807 -2.655474 0.000000 
-0.081359 -2.108358 0.000000 
0.366605 -2.289671 0.000000 
0.044363 -2.103547 0.000000 
0.217980 -2.992690 0.000000 
-0.174788 -3.015621 0.000000 
-0.388317 -2.805093 0.000000 
0.395370 -2.762030 0.000000 
-0.306363 -2.223880 0.000000 
-0.388199 -2.322980 0.000000 
0.423980 -2.407638 0.000000 
0.136064 -2.123210 0.000000 
0.126055 -3.045956 0.000000 
-0.267645 -2.942380 0.000000 
-0.414753 -2.710297 0.000000 
0.440523 -2.616094 0.000000 
0.343826 -2.868778 0.000000 
-0.008630 -3.038868 0.000000 
-0.227107 -2.163563 0.000000 
-0.443070 -2.474909 0.000000 
-0.443517 -2.601435 0.000000 
0.250728 -2.176499 0.000000 
0.445094 -2.495802 0.000000 
-0.081793 -2.164484 0.000000 
-0.132290 -2.208441 0.000000 
-0.193130 -2.204167 0.000000 
-0.113295 -2.267383 0.000000 
-0.224543 -2.259222 0.000000 
-0.171969 -2.295870 0.000000 
-0.057449 -2.281295 0.000000 
-0.278916 -2.270056 0.000000 
-0.041878 -2.336849 0.000000 
-0.017524 -2.239816 0.000000 
-0.295955 -2.328901 0.000000 
-0.349032 -2.359458 0.000000 
-0.350332 -2.426202 0.000000 
-0.254386 -2.367276 0.000000 
-0.390887 -2.475158 0.000000 
-0.369450 -2.532961 0.000000 
-0.284022 -2.424610 0.000000 
-0.394152 -2.588410 0.000000 
-0.360260 -2.631451 0.000000 
-0.313107 -2.532426 0.000000 
-0.370363 -2.685079 0.000000 
-0.324885 -2.715713 0.000000 
-0.308099 -2.592919 0.000000 
-0.323311 -2.774899 0.000000 
-0.264184 -2.798722 0.000000 
-0.274321 -2.691669 0.000000 
-0.241528 -2.863946 0.000000 
-0.176434 -2.865291 0.000000 
-0.234841 -2.736485 0.000000 
-0.138039 -2.922764 0.000000 
-0.074112 -2.899048 0.000000 
-0.147185 -2.806919 0.000000 
-0.016529 -2.933989 0.000000 
0.040160 -2.901134 0.000000 
-0.084565 -2.827480 0.000000 
0.098417 -2.936050 0.000000 
0.137824 -2.884474 0.000000 
0.030107 -2.837517 0.000000 
0.199959 -2.897208 0.000000 
0.231750 -2.830733 0.000000 
0.093778 -2.825634 0.000000 
0.289123 -2.813515 0.000000 
0.302755 -2.747671 0.000000 
0.195526 -2.775615 0.000000 
0.352345 -2.719019 0.000000 
0.350422 -2.662808 0.000000 
0.240664 -2.730284 0.000000 
0.389269 -2.616456 0.000000 
0.370815 -2.561745 0.000000 
0.298155 -2.644183 0.000000 
0.395140 -2.510757 0.000000 
0.360869 -2.466062 0.000000 
0.310246 -2.585230 0.000000 
0.371863 -2.412332 0.000000 
0.324434 -2.371320 0.000000 
0.305268 -2.478172 0.000000 
0.317679 -2.310079 0.000000 
0.257960 -2.281817 0.000000 
0.281265 -2.416737 0.000000 
0.229358 -2.224555 0.000000 
0.166832 -2.219510 0.000000 
0.216572 -2.323968 0.000000 
0.128674 -2.174030 0.000000 
0.074320 -2.184846 0.000000 
0.030161 -2.151088 0.000000 
-0.022981 -2.181725 0.000000 
0.163663 -2.286454 0.000000 
0.044797 -2.239267 0.000000 
-0.184879 -2.344971 0.000000 
-0.266992 -2.474244 0.000000 
-0.037481 -2.801220 0.000000 
0.237659 -2.684919 0.000000 
0.279676 -2.546257 0.000000 
0.119413 -2.779376 0.000000 
0.232808 -2.397929 0.000000 
-0.267355 -2.622861 0.000000 
-0.182594 -2.740397 0.000000 
-0.081753 -2.378511 0.000000 
0.013771 -2.351114 0.000000 
-0.142362 -2.381363 0.000000 
-0.170489 -2.439298 0.000000 
-0.214960 -2.478204 0.000000 
-0.205019 -2.539324 0.000000 
-0.129393 -2.475820 0.000000 
-0.218662 -2.596454 0.000000 
-0.147969 -2.531189 0.000000 
-0.174319 -2.639294 0.000000 
-0.077429 -2.441985 0.000000 
-0.155321 -2.694459 0.000000 
-0.125650 -2.611624 0.000000 
-0.074193 -2.635905 0.000000 
-0.112823 -2.560209 0.000000 
-0.052100 -2.543605 0.000000 
-0.031370 -2.594566 0.000000 
-0.035266 -2.481100 0.000000 
0.029612 -2.407345 0.000000 
0.060515 -2.294762 0.000000 
-0.088238 -2.691942 0.000000 
0.008099 -2.465305 0.000000 
0.051323 -2.512603 0.000000 
0.054091 -2.566114 0.000000 
0.097675 -2.484237 0.000000 
0.012178 -2.607428 0.000000 
0.030063 -2.662278 0.000000 
0.020244 -2.713080 0.000000 
0.080729 -2.737646 0.000000 
0.085430 -2.662305 0.000000 
0.120828 -2.698832 0.000000 
0.182093 -2.673094 0.000000 
0.100079 -2.607191 0.000000 
0.165519 -2.493999 0.000000 
0.086725 -2.426651 0.000000 
0.163219 -2.609361 0.000000 
0.190290 -2.436530 0.000000 
0.130392 -2.394162 0.000000 
0.120089 -2.318216 0.000000 
-0.039254 -2.728738 0.000000 
0.198706 -2.553038 0.000000 
CELLS 184 368 
1 0 
1 1 
1 2 
1 3 
1 4 
1 5 
1 6 
1 7 
1 8 
1 9 
1 10 
1 11 
1 12 
1 13 
1 14 
1 15 
1 16 
1 17 
1 18 
1 19 
1 20 
1 21 
1 22 
1 23 
1 24 
1 25 
1 26 
1 27 
1 28 
1 29 
1 30 
1 31 
1 32 
1 33 
1 34 
1 35 
1 36 
1 37 
1 38 
1 39 
1 40 
1 41 
1 42 
1 43 
1 44 
1 45 
1 46 
1 47 
1 48 
1 49 
1 50 
1 51 
1 52 
1 53 
1 54 
1 55 
1 56 
1 57 
1 58 
1 59 
1 60 
1 61 
1 62 
1 63 
1 64 
1 65 
1 66 
1 67 
1 68 
1 69 
1 70 
1 71 
1 72 
1 73 
1 74 
1 75 
1 76 
1 77 
1 78 
1 79 
1 80 
1 81 
1 82 
1 83 
1 84 
1 85 
1 86 
1 87 
1 88 
1 89 
1 90 
1 91 
1 92 
1 93 
1 94 
1 95 
1 96 
1 97 
1 98 
1 99 
1 100 
1 101 
1 102 
1 103 
1 104 
1 105 
1 106 
1 107 
1 108 
1 109 
1 110 
1 111 
1 112 
1 113 
1 114 
1 115 
1 116 
1 117 
1 118 
1 119 
1 120 
1 121 
1 122 
1 123 
1 124 
1 125 
1 126 
1 127 
1 128 
1 129 
1 130 
1 131 
1 132 
1 133 
1 134 
1 135 
1 136 
1 137 
1 138 
1 139 
1 140 
1 141 
1 142 
1 143 
1 144 
1 145 
1 146 
1 147 
1 148 
1 149 
1 150 
1 151 
1 152 
1 153 
1 154 
1 155 
1 156 
1 157 
1 158 
1 159 
1 160 
1 161 
1 162 
1 163 
1 164 
1 165 
1 166 
1 167 
1 168 
1 169 
1 170 
1 171 
1 172 
1 173 
1 174 
1 175 
1 176 
1 177 
1 178 
1 179 
1 180 
1 181 
1 182 
1 183 
CELL_TYPES 184 
1 
1 
1 
1 
1 
1 
1 
1 
1 
1 
1 
1 
1 
1 
1 
1 
1 
1 
1 
1 
1 
1 
1 
1 
1 
1 
1 
1 
1 
1 
1 
1 
1 
1 
1 
1 
1 
1 
1 
1 
1 
1 
1 
1 
1 
1 
1 
1 
1 
1 
1 
1 
1 
1 
1 
1 
1 
1 
1 
1 
1 
1 
1 
1 
1 
1 
1 
1 
1 
1 
1 
1 
1 
1 
1 
1 
1 
1 
1 
1 
1 
1 
1 
1 
1 
1 
1 
1 
1 
1 
1 
1 
1 
1 
1 
1 
1 
1 
1 
1 
1 
1 
1 
1 
1 
1 
1 
1 
1 
1 
1 
1 
1 
1 
1 
1 
1 
1 
1 
1 
1 
1 
1 
1 
1 
1 
1 
1 
1 
1 
1 
1 
1 
1 
1 
1 
1 
1 
1 
1 
1 
1 
1 
1 
1 
1 
1 
1 
1 
1 
1 
1 
1 
1 
1 
1 
1 
1 
1 
1 
1 
1 
1 
1 
1 
1 
1 
1 
1 
1 
1 
1 
1 
1 
1 
1 
1 
1 
1 
1 
1 
1 
1 
1 
POINT_DATA 184 
VECTORS X_GC float 
-0.032016 -2.077369 0.000000 
-0.389996 -2.926630 0.000000 
0.473041 -2.569239 0.000000 
-0.446860 -2.389205 0.000000 
0.187021 -3.105673 0.000000 
0.218943 -2.129004 0.000000 
-0.285325 -2.173114 0.000000 
-0.113886 -3.144838 0.000000 
0.416993 -2.323499 0.000000 
-0.461673 -2.649192 0.000000 
0.406115 -2.848362 0.000000 
-0.167525 -2.104938 0.000000 
-0.241641 -3.045922 0.000000 
0.463445 -2.446740 0.000000 
-0.471967 -2.523380 0.000000 
0.298103 -2.976805 0.000000 
0.097925 -2.085148 0.000000 
-0.379882 -2.262354 0.000000 
0.054782 -3.168261 0.000000 
0.334055 -2.207227 0.000000 
-0.433210 -2.767540 0.000000 
0.446783 -2.698129 0.000000 
-0.127042 -2.090694 0.000000 
-0.327712 -2.968032 0.000000 
0.472601 -2.524520 0.000000 
-0.459608 -2.436651 0.000000 
0.261168 -3.027634 0.000000 
0.172016 -2.109706 0.000000 
-0.349019 -2.226330 0.000000 
-0.058780 -3.154395 0.000000 
0.365435 -2.243420 0.000000 
-0.449432 -2.691133 0.000000 
0.432072 -2.745819 0.000000 
-0.210722 -2.127389 0.000000 
-0.162857 -3.115861 0.000000 
0.437014 -2.367787 0.000000 
-0.471419 -2.567865 0.000000 
0.351375 -2.949668 0.000000 
0.017547 -2.077481 0.000000 
-0.428720 -2.343507 0.000000 
0.107124 -3.154621 0.000000 
0.296707 -2.176992 0.000000 
-0.416686 -2.869355 0.000000 
0.458807 -2.655474 0.000000 
-0.081359 -2.108358 0.000000 
0.366605 -2.289671 0.000000 
0.044363 -2.103547 0.000000 
0.217980 -2.992690 0.000000 
-0.174788 -3.015621 0.000000 
-0.388317 -2.805093 0.000000 
0.395370 -2.762030 0.000000 
-0.306363 -2.223880 0.000000 
-0.388199 -2.322980 0.000000 
0.423980 -2.407638 0.000000 
0.136064 -2.123210 0.000000 
0.126055 -3.045956 0.000000 
-0.267645 -2.942380 0.000000 
-0.414753 -2.710297 0.000000 
0.440523 -2.616094 0.000000 
0.343826 -2.868778 0.000000 
-0.008630 -3.038868 0.000000 
-0.227107 -2.163563 0.000000 
-0.443070 -2.474909 0.000000 
-0.443517 -2.601435 0.000000 
0.250728 -2.176499 0.000000 
0.445094 -2.495802 0.000000 
-0.081793 -2.164484 0.000000 
-0.132290 -2.208441 0.000000 
-0.193130 -2.204167 0.000000 
-0.113295 -2.267383 0.000000 
-0.224543 -2.259222 0.000000 
-0.171969 -2.295870 0.000000 
-0.057449 -2.281295 0.000000 
-0.278916 -2.270056 0.000000 
-0.041878 -2.336849 0.000000 
-0.017524 -2.239816 0.000000 
-0.295955 -2.328901 0.000000 
-0.349032 -2.359458 0.000000 
-0.350332 -2.426202 0.000000 
-0.254386 -2.367276 0.000000 
-0.390887 -2.475158 0.000000 
-0.369450 -2.532961 0.000000 
-0.284022 -2.424610 0.000000 
-0.394152 -2.588410 0.000000 
-0.360260 -2.631451 0.000000 
-0.313107 -2.532426 0.000000 
-0.370363 -2.685079 0.000000 
-0.324885 -2.715713 0.000000 
-0.308099 -2.592919 0.000000 
-0.323311 -2.774899 0.000000 
-0.264184 -2.798722 0.000000 
-0.274321 -2.691669 0.000000 
-0.241528 -2.863946 0.000000 
-0.176434 -2.865291 0.000000 
-0.234841 -2.736485 0.000000 
-0.138039 -2.922764 0.000000 
-0.074112 -2.899048 0.000000 
-0.147185 -2.806919 0.000000 
-0.016529 -2.933989 0.000000 
0.040160 -2.901134 0.000000 
-0.084565 -2.827480 0.000000 
0.098417 -2.936050 0.000000 
0.137824 -2.884474 0.000000 
0.030107 -2.837517 0.000000 
0.199959 -2.897208 0.000000 
0.231750 -2.830733 0.000000 
0.093778 -2.825634 0.000000 
0.289123 -2.813515 0.000000 
0.302755 -2.747671 0.000000 
0.195526 -2.775615 0.000000 
0.352345 -2.719019 0.000000 
0.350422 -2.662808 0.000000 
0.240664 -2.730284 0.000000 
0.389269 -2.616456 0.000000 
0.370815 -2.561745 0.000000 
0.298155 -2.644183 0.000000 
0.395140 -2.510757 0.000000 
0.360869 -2.466062 0.000000 
0.310246 -2.585230 0.000000 
0.371863 -2.412332 0.000000 
0.324434 -2.371320 0.000000 
0.305268 -2.478172 0.000000 
0.317679 -2.310079 0.000000 
0.257960 -2.281817 0.000000 
0.281265 -2.416737 0.000000 
0.229358 -2.224555 0.000000 
0.166832 -2.219510 0.000000 
0.216572 -2.323968 0.000000 
0.128674 -2.174030 0.000000 
0.074320 -2.184846 0.000000 
0.030161 -2.151088 0.000000 
-0.022981 -2.181725 0.000000 
0.163663 -2.286454 0.000000 
0.044797 -2.239267 0.000000 
-0.184879 -2.344971 0.000000 
-0.266992 -2.474244 0.000000 
-0.037481 -2.801220 0.000000 
0.237659 -2.684919 0.000000 
0.279676 -2.546257 0.000000 
0.119413 -2.779376 0.000000 
0.232808 -2.397929 0.000000 
-0.267355 -2.622861 0.000000 
-0.182594 -2.740397 0.000000 
-0.081753 -2.378511 0.000000 
0.013771 -2.351114 0.000000 
-0.142362 -2.381363 0.000000 
-0.170489 -2.439298 0.000000 
-0.214960 -2.478204 0.000000 
-0.205019 -2.539324 0.000000 
-0.129393 -2.475820 0.000000 
-0.218662 -2.596454 0.000000 
-0.147969 -2.531189 0.000000 
-0.174319 -2.639294 0.000000 
-0.077429 -2.441985 0.000000 
-0.155321 -2.694459 0.000000 
-0.125650 -2.611624 0.000000 
-0.074193 -2.635905 0.000000 
-0.112823 -2.560209 0.000000 
-0.052100 -2.543605 0.000000 
-0.031370 -2.594566 0.000000 
-0.035266 -2.481100 0.000000 
0.029612 -2.407345 0.000000 
0.060515 -2.294762 0.000000 
-0.088238 -2.691942 0.000000 
0.008099 -2.465305 0.000000 
0.051323 -2.512603 0.000000 
0.054091 -2.566114 0.000000 
0.097675 -2.484237 0.000000 
0.012178 -2.607428 0.000000 
0.030063 -2.662278 0.000000 
0.020244 -2.713080 0.000000 
0.080729 -2.737646 0.000000 
0.085430 -2.662305 0.000000 
0.120828 -2.698832 0.000000 
0.182093 -2.673094 0.000000 
0.100079 -2.607191 0.000000 
0.165519 -2.493999 0.000000 
0.086725 -2.426651 0.000000 
0.163219 -2.609361 0.000000 
0.190290 -2.436530 0.000000 
0.130392 -2.394162 0.000000 
0.120089 -2.318216 0.000000 
-0.039254 -2.728738 0.000000 
0.198706 -2.553038 0.000000 
VECTORS X_EC float 
-0.786558 0.849124 0.000000 
-0.400026 0.510864 0.000000 
-0.153604 0.128263 0.000000 
-0.020932 0.928034 0.000000 
-0.248183 0.946404 0.000000 
-0.459617 -0.806642 0.000000 
0.902169 -0.512571 0.000000 
-0.208874 0.964511 0.000000 
0.220050 0.489993 0.000000 
0.077823 0.661281 0.000000 
0.292565 -0.010919 0.000000 
0.116833 -0.967077 0.000000 
0.626334 0.986501 0.000000 
-0.089636 -0.688401 0.000000 
0.146448 -0.177467 0.000000 
-0.987352 0.845365 0.000000 
0.347170 0.900987 0.000000 
-0.467456 0.082359 0.000000 
0.674495 0.937567 0.000000 
0.772969 -0.285150 0.000000 
-0.111931 -0.549732 0.000000 
0.021445 0.987526 0.000000 
-0.153054 0.937958 0.000000 
-0.815251 0.786880 0.000000 
-0.150674 -0.169869 0.000000 
0.064052 -0.755658 0.000000 
-0.678778 0.992812 0.000000 
-0.146774 -0.935293 0.000000 
-0.673205 -0.157801 0.000000 
-0.572427 0.921027 0.000000 
0.563769 -0.043865 0.000000 
-0.003786 0.940888 0.000000 
0.119520 -0.694540 0.000000 
0.404814 -0.817406 0.000000 
0.119212 0.951185 0.000000 
0.086572 0.785248 0.000000 
0.142794 0.119099 0.000000 
0.657499 0.664452 0.000000 
0.883019 0.849872 0.000000 
-0.141867 0.623378 0.000000 
0.304228 0.957028 0.000000 
-0.978045 -0.486717 0.000000 
-0.222094 0.129030 0.000000 
-0.058714 0.703157 0.000000 
-0.457606 -0.944278 0.000000 
0.555965 0.264473 0.000000 
0.704246 -0.976350 0.000000 
-0.453200 0.951266 0.000000 
0.144528 0.997078 0.000000 
-0.411218 -0.299381 0.000000 
0.364198 -0.586468 0.000000 
-0.957582 -0.174135 0.000000 
-0.412009 0.486531 0.000000 
0.173464 -0.949083 0.000000 
0.092907 -0.845270 0.000000 
0.184510 0.990440 0.000000 
0.784297 0.615866 0.000000 
-0.234981 -0.931355 0.000000 
0.063181 0.440630 0.000000 
0.707825 0.125188 0.000000 
-0.895255 0.999530 0.000000 
0.514044 -0.576249 0.000000 
-0.046201 -0.500606 0.000000 
-0.043221 0.342897 0.000000 
-0.671518 -0.490007 0.000000 
0.032708 -0.361322 0.000000 
-0.454713 -0.570104 0.000000 
-0.118064 -0.277060 0.000000 
0.287534 -0.305554 0.000000 
-0.244698 0.115888 0.000000 
0.496953 0.061482 0.000000 
0.146460 0.305797 0.000000 
-0.617008 0.208635 0.000000 
0.859437 0.133709 0.000000 
-0.720811 0.578993 0.000000 
-0.883173 -0.067890 0.000000 
0.973034 0.526005 0.000000 
-0.673123 0.729722 0.000000 
-0.664454 -0.825317 0.000000 
0.695907 0.781842 0.000000 
-0.394086 -0.498946 0.000000 
-0.537003 -0.113593 0.000000 
0.893481 -0.835932 0.000000 
-0.372322 0.256067 0.000000 
-0.598266 0.543004 0.000000 
-0.912617 -0.117157 0.000000 
-0.530913 0.900523 0.000000 
-0.834102 -0.895243 0.000000 
-0.946004 0.286125 0.000000 
-0.844592 -0.500672 0.000000 
0.761226 -0.341854 0.000000 
0.828810 0.944457 0.000000 
0.610187 0.092975 0.000000 
0.176228 0.101938 0.000000 
0.565609 -0.756770 0.000000 
-0.079742 0.485092 0.000000 
-0.505920 0.326984 0.000000 
-0.018768 -0.287204 0.000000 
-0.889805 0.559927 0.000000 
0.732265 0.340890 0.000000 
-0.436231 -0.150132 0.000000 
0.343888 0.573666 0.000000 
0.081174 0.229827 0.000000 
0.799285 -0.083219 0.000000 
-0.333058 0.314722 0.000000 
-0.545002 -0.128447 0.000000 
0.374816 -0.162440 0.000000 
-0.927485 -0.243233 0.000000 
0.981635 -0.682192 0.000000 
-0.303509 -0.495899 0.000000 
0.651031 -0.873209 0.000000 
0.663854 0.752050 0.000000 
-0.604426 -0.798105 0.000000 
0.404875 0.443038 0.000000 
0.527901 0.078299 0.000000 
-0.987697 0.627884 0.000000 
0.365735 -0.261618 0.000000 
0.594210 -0.559587 0.000000 
0.931697 0.234867 0.000000 
0.520915 -0.917788 0.000000 
0.837106 0.808797 0.000000 
0.964882 -0.478856 0.000000 
0.882142 0.400527 0.000000 
-0.719730 0.212110 0.000000 
-0.875099 -0.888420 0.000000 
-0.529052 -0.169630 0.000000 
-0.112211 -0.203269 0.000000 
-0.443810 0.493121 0.000000 
0.142172 -0.506465 0.000000 
0.504535 -0.434362 0.000000 
0.798926 -0.659414 0.000000 
-0.846793 -0.455169 0.000000 
-0.091084 0.243027 0.000000 
0.701351 -0.071553 0.000000 
0.232524 0.633141 0.000000 
0.779944 -0.505040 0.000000 
-0.750128 -0.325199 0.000000 
-0.584391 0.899463 0.000000 
-0.864507 -0.024953 0.000000 
0.203911 -0.470829 0.000000 
-0.552054 0.986193 0.000000 
0.782367 0.485737 0.000000 
0.217291 -0.730689 0.000000 
-0.454979 0.856741 0.000000 
0.908191 0.674097 0.000000 
-0.050920 0.875756 0.000000 
0.136597 -0.738012 0.000000 
0.433067 -0.478638 0.000000 
0.366790 -0.071175 0.000000 
-0.137377 -0.494536 0.000000 
0.457744 0.309696 0.000000 
-0.013540 -0.125409 0.000000 
0.162125 0.595292 0.000000 
-0.483806 -0.720100 0.000000 
0.035474 0.963058 0.000000 
-0.162333 0.410828 0.000000 
-0.505378 0.572703 0.000000 
-0.247845 0.068063 0.000000 
-0.652669 -0.042636 0.000000 
-0.790866 0.297107 0.000000 
-0.764891 -0.459331 0.000000 
0.802585 -0.951030 0.000000 
0.596565 0.298415 0.000000 
-0.411747 0.946283 0.000000 
0.946010 -0.564635 0.000000 
0.657848 -0.249312 0.000000 
0.639393 0.107426 0.000000 
0.348835 -0.438423 0.000000 
0.918814 0.382853 0.000000 
0.799580 0.748519 0.000000 
0.865041 -0.912798 0.000000 
0.461805 -0.749026 0.000000 
0.430465 0.748698 0.000000 
0.194481 0.992216 0.000000 
-0.213951 0.820627 0.000000 
0.332807 0.381276 0.000000 
-0.103457 -0.373342 0.000000 
0.421835 -0.822325 0.000000 
-0.088126 0.395738 0.000000 
-0.268602 -0.756469 0.000000 
0.130717 0.961081 0.000000 
0.199404 0.454774 0.000000 
-0.738305 -0.808411 0.000000 
-0.324709 0.020253 0.000000 
CELL_DATA 184 
SCALARS MASS float 
LOOKUP_TABLE default 
0.051252 
0.046008 
0.051531 
0.046188 
0.052854 
0.051531 
0.052854 
0.052854 
0.051531 
0.050859 
0.052854 
0.047395 
0.052854 
0.052854 
0.051434 
0.045995 
0.052854 
0.051281 
0.051530 
0.046441 
0.052854 
0.052854 
0.050612 
0.049065 
0.052975 
0.049197 
0.049245 
0.052975 
0.052990 
0.055938 
0.049713 
0.052094 
0.055938 
0.050456 
0.055938 
0.053198 
0.052878 
0.049051 
0.052807 
0.049481 
0.052974 
0.049465 
0.049257 
0.055938 
0.105225 
0.104629 
0.082126 
0.094264 
0.094771 
0.094259 
0.094771 
0.083366 
0.104047 
0.083092 
0.081316 
0.081315 
0.092719 
0.079469 
0.108073 
0.092710 
0.108073 
0.093129 
0.104035 
0.094961 
0.104398 
0.081316 
0.125285 
0.099128 
0.098320 
0.087841 
0.082650 
0.097481 
0.086914 
0.081921 
0.086680 
0.086680 
0.081485 
0.107769 
0.088711 
0.084874 
0.107874 
0.082612 
0.095190 
0.095229 
0.083942 
0.085089 
0.079923 
0.081132 
0.095301 
0.097917 
0.090576 
0.085268 
0.095896 
0.081062 
0.095454 
0.090083 
0.081027 
0.085251 
0.101961 
0.083022 
0.095445 
0.080604 
0.081018 
0.085240 
0.097826 
0.090495 
0.095435 
0.095845 
0.081023 
0.085241 
0.090072 
0.081024 
0.095436 
0.101966 
0.083028 
0.085242 
0.080610 
0.081024 
0.095437 
0.082345 
0.082694 
0.085242 
0.109264 
0.089885 
0.095437 
0.108636 
0.083028 
0.085242 
0.080610 
0.074817 
0.073569 
0.082490 
0.095437 
0.095617 
0.133784 
0.138292 
0.139667 
0.139695 
0.139694 
0.139689 
0.139693 
0.140105 
0.139774 
0.086622 
0.086622 
0.089038 
0.077179 
0.079159 
0.072465 
0.084345 
0.092656 
0.093083 
0.084037 
0.098826 
0.101847 
0.085968 
0.086444 
0.074619 
0.064825 
0.094138 
0.124406 
0.086607 
0.131576 
0.102571 
0.084703 
0.076503 
0.084191 
0.084191 
0.086793 
0.075696 
0.084714 
0.090949 
0.084009 
0.076569 
0.086383 
0.098391 
0.110757 
0.093222 
0.143196 
0.101090 
0.091038 
0.150913 
0.178131 
0.206980 
SCALARS MASS float 
LOOKUP_TABLE default 
0.051252 
0.046008 
0.051531 
0.046188 
0.052854 
0.051531 
0.052854 
0.052854 
0.051531 
0.050859 
0.052854 
0.047395 
0.052854 
0.052854 
0.051434 
0.045995 
0.052854 
0.051281 
0.051530 
0.046441 
0.052854 
0.052854 
0.050612 
0.049065 
0.052975 
0.049197 
0.049245 
0.052975 
0.052990 
0.055938 
0.049713 
0.052094 
0.055938 
0.050456 
0.055938 
0.053198 
0.052878 
0.049051 
0.052807 
0.049481 
0.052974 
0.049465 
0.049257 
0.055938 
0.105225 
0.104629 
0.082126 
0.094264 
0.094771 
0.094259 
0.094771 
0.083366 
0.104047 
0.083092 
0.081316 
0.081315 
0.092719 
0.079469 
0.108073 
0.092710 
0.108073 
0.093129 
0.104035 
0.094961 
0.104398 
0.081316 
0.125285 
0.099128 
0.098320 
0.087841 
0.082650 
0.097481 
0.086914 
0.081921 
0.086680 
0.086680 
0.081485 
0.107769 
0.088711 
0.084874 
0.107874 
0.082612 
0.095190 
0.095229 
0.083942 
0.085089 
0.079923 
0.081132 
0.095301 
0.097917 
0.090576 
0.085268 
0.095896 
0.081062 
0.095454 
0.090083 
0.081027 
0.085251 
0.101961 
0.083022 
0.095445 
0.080604 
0.081018 
0.085240 
0.097826 
0.090495 
0.095435 
0.095845 
0.081023 
0.085241 
0.090072 
0.081024 
0.095436 
0.101966 
0.083028 
0.085242 
0.080610 
0.081024 
0.095437 
0.082345 
0.082694 
0.085242 
0.109264 
0.089885 
0.095437 
0.108636 
0.083028 
0.085242 
0.080610 
0.074817 
0.073569 
0.082490 
0.095437 
0.095617 
0.133784 
0.138292 
0.139667 
0.139695 
0.139694 
0.139689 
0.139693 
0.140105 
0.139774 
0.086622 
0.086622 
0.089038 
0.077179 
0.079159 
0.072465 
0.084345 
0.092656 
0.093083 
0.084037 
0.098826 
0.101847 
0.085968 
0.086444 
0.074619 
0.064825 
0.094138 
0.124406 
0.086607 
0.131576 
0.102571 
0.084703 
0.076503 
0.084191 
0.084191 
0.086793 
0.075696 
0.084714 
0.090949 
0.084009 
0.076569 
0.086383 
0.098391 
0.110757 
0.093222 
0.143196 
0.101090 
0.091038 
0.150913 
0.178131 
0.206980 
SCALARS DENSITY float 
LOOKUP_TABLE default 
21.233195 
64083170163027120.000000 
49.756720 
37.730426 
1139738679054395761202042920985271454740483537394839858708038621679190579960583405146128515072.000000 
18.354735 
14.514193 
260977133501540213492225325833474102638081267909629769289281432598715306603046691328229376.000000 
26.909646 
194.038922 
1292463714306182.250000 
24.525714 
198624048723464044647944650147296527082835533475313591979452001157120.000000 
21.111528 
155.426558 
282197711960937644717549062184497464846063830564864.000000 
24.897958 
21.921220 
11594693302361868377144974982544857714522720851943553743370002549447034782440279982165850584584451744330499070395154432.000000 
10.467371 
13998729.994479 
67.502743 
23.004645 
57368169372563944767488.000000 
56.620015 
1786.693198 
35635312009200026957813351522361740554669161612361328339038647615488.000000 
29.271808 
10.648816 
189334080678579080400681952467629040509747075567943142806629437370153287486092310514125538321848336384.000000 
11.558302 
158.819298 
4366986.815254 
33.286127 
1213033159576111362334402572394490062043385229953641235532232421536049216767393792.000000 
31.420458 
260.159230 
138278076726664579476619264.000000 
20.507806 
32.363476 
854571491304676150287800431638682872018048699907274756090369412411310472681880095152796763241114191967629879560559071854592.000000 
1135.877094 
34664686353429.203125 
65.674142 
22.657844 
25.746057 
19.868648 
1784802445157126924237142048227752350920802013574927772286976.000000 
3114600634066220274502077380883464167819626100889667294461952.000000 
5212032458.438972 
35944898.926818 
14.463762 
35.856052 
36.388902 
32.875511 
1067814982170743016063175581156517259057631903741714568880525273264233419267503030272.000000 
1813726585896996891648032840302641397058284552192.000000 
98.900088 
32.818860 
1282705015957026504704.000000 
5519864064597185086534970396751161441803182699021852753517192345978652786280951185408.000000 
8.814232 
5.479703 
76.719807 
13.671061 
12.258756 
9.338726 
17.941932 
16.962837 
32.151244 
27.385187 
35.658223 
31.850722 
33.712179 
22.860336 
26.937201 
38.816002 
41.651320 
52.818090 
38.398886 
15.166647 
121.697916 
42.751144 
33.943218 
41.064866 
63.653385 
53.436607 
32.617539 
6.803510 
3200444.563819 
1980980338773922.750000 
28.720699 
453572077204415551178595631104.000000 
414552428343409241054091858149376.000000 
6315.643574 
624610681951694852901616651684279113220096.000000 
37618848054737571128175408900925816832.000000 
1476693890875272704.000000 
1723512822895075495421711356488764092874968006656.000000 
7579058661270317485201968008382352199778304.000000 
52870417626978517516288.000000 
117576930610473230886818733128774567495607786290544640.000000 
5967301829059433412508291780508123136.000000 
69612630355178219485790208.000000 
253599271905594779957157363128093022093312.000000 
5252040583965666720088064.000000 
236340000530051538878464.000000 
19720442933031157760.000000 
835435.969420 
2006911192064.500732 
88.957690 
41.470752 
1436.348437 
23.775681 
29.011105 
30.033714 
43.985172 
9.735636 
8.177668 
33.440993 
28.981942 
50.825332 
29.939414 
31.591195 
33.054352 
16.476514 
16.763703 
27.649282 
11.482454 
16.075987 
11.282835 
14.430282 
30.407883 
25.655213 
31.340186 
35.598515 
12906486450961981440.000000 
32.490614 
20.254761 
326187303537831.500000 
32.441448 
24.114213 
11787.558343 
35.112301 
27.638664 
36.475308 
24.045208 
31.970037 
14.776530 
23.189308 
17.291262 
9.468751 
67.670746 
23.914987 
28.054119 
70.518233 
152.731792 
16.990622 
8.589984 
114.680564 
9.226578 
35.073047 
28.968452 
28.588133 
35.140757 
2.576868 
34.888418 
14.644239 
243.384442 
79.657224 
34.535970 
37969.909472 
66.707702 
28.321370 
39.801284 
94.269287 
11.574156 
68.981822 
47.739524 
28.160951 
33.892413 
25.524508 
904.845304 
18.489630 
SCALARS ELEM_i float 
LOOKUP_TABLE default 
203 
220 
161 
222 
180 
182 
202 
200 
162 
221 
160 
202 
200 
161 
221 
180 
183 
222 
180 
162 
220 
161 
203 
220 
161 
221 
180 
182 
222 
200 
162 
221 
160 
202 
200 
162 
221 
160 
183 
222 
180 
182 
220 
161 
202 
162 
182 
180 
200 
220 
160 
222 
222 
161 
182 
180 
200 
220 
161 
160 
200 
202 
221 
221 
182 
161 
202 
202 
202 
202 
202 
202 
202 
202 
202 
202 
202 
222 
221 
202 
221 
221 
201 
221 
221 
221 
221 
220 
221 
220 
200 
201 
200 
200 
200 
200 
200 
200 
200 
180 
200 
180 
180 
180 
180 
180 
180 
180 
160 
180 
160 
161 
180 
161 
161 
181 
161 
161 
161 
161 
162 
161 
162 
182 
181 
182 
182 
182 
182 
182 
182 
202 
182 
182 
202 
201 
200 
181 
181 
180 
182 
201 
200 
202 
182 
202 
201 
201 
201 
201 
201 
201 
201 
201 
201 
201 
201 
201 
201 
201 
201 
181 
182 
201 
181 
181 
181 
181 
181 
181 
180 
180 
181 
181 
181 
181 
181 
181 
181 
181 
182 
182 
200 
181 
VECTORS VELOCITY float 
0.184351 -0.750882 0.000000 
-2.018638 -55.318093 0.000000 
-0.633700 1.189587 0.000000 
-0.120296 -1.106676 0.000000 
1.211873 -148.740896 0.000000 
0.160566 -1.051938 0.000000 
0.477904 -0.982997 0.000000 
-2.135744 -172.245869 0.000000 
0.170682 -0.925504 0.000000 
1.026756 3.075588 0.000000 
0.335815 -26.264584 0.000000 
1.086837 -0.619334 0.000000 
0.982254 -114.406050 0.000000 
0.202611 -2.146489 0.000000 
0.450114 0.166423 0.000000 
-1.598213 -76.756918 0.000000 
0.603512 0.007242 0.000000 
-0.778526 0.606654 0.000000 
1.744203 -187.885527 0.000000 
0.195957 0.272664 0.000000 
0.533168 -1.689675 0.000000 
-0.264156 4.676943 0.000000 
-1.336852 -0.358303 0.000000 
-0.028636 -73.576202 0.000000 
-0.447411 0.145344 0.000000 
0.105777 -2.243287 0.000000 
-1.112219 -104.437117 0.000000 
-1.940459 -0.835420 0.000000 
-0.626976 0.452704 0.000000 
-1.593964 -178.131397 0.000000 
0.207758 0.105409 0.000000 
0.874370 4.191018 0.000000 
-0.439772 0.189431 0.000000 
1.021665 -2.005835 0.000000 
-1.521364 -154.395321 0.000000 
0.099973 -1.639735 0.000000 
1.055295 0.959505 0.000000 
1.409178 -66.414680 0.000000 
1.373284 -0.891621 0.000000 
-0.644502 -0.132881 0.000000 
2.420303 -178.614540 0.000000 
-0.386874 -0.141175 0.000000 
-1.078619 -31.507185 0.000000 
-0.387232 3.504243 0.000000 
0.681386 -0.146822 0.000000 
0.066133 -0.421255 0.000000 
-0.327186 0.144692 0.000000 
-1.057103 -82.667591 0.000000 
0.717646 -94.431577 0.000000 
-0.110600 -8.402006 0.000000 
-0.232371 -1.148500 0.000000 
-0.013835 -0.456248 0.000000 
-0.486355 0.054854 0.000000 
0.003520 -2.062240 0.000000 
-0.415880 -0.558754 0.000000 
0.345306 -111.696807 0.000000 
1.513774 -56.791214 0.000000 
0.328128 4.922972 0.000000 
-0.247489 2.529588 0.000000 
0.631718 -28.436430 0.000000 
0.031363 -105.796335 0.000000 
0.434049 -0.778997 0.000000 
-0.512676 -0.617556 0.000000 
0.775224 1.841771 0.000000 
-0.631246 -0.309970 0.000000 
0.143862 -0.333724 0.000000 
0.176263 -0.166511 0.000000 
0.164006 -0.576678 0.000000 
0.257529 -0.640005 0.000000 
0.117220 -0.800245 0.000000 
0.367875 -0.735095 0.000000 
0.229030 -0.749246 0.000000 
-0.029399 -0.856849 0.000000 
0.496346 -0.711969 0.000000 
-0.143005 -0.935685 0.000000 
-0.073541 -0.762244 0.000000 
0.454542 -0.432442 0.000000 
-0.015439 -0.256319 0.000000 
0.151679 -0.875994 0.000000 
0.296739 -0.408295 0.000000 
-0.305730 -0.729066 0.000000 
0.019605 -0.288481 0.000000 
0.304735 -0.485163 0.000000 
0.203964 1.346343 0.000000 
-0.235458 2.633247 0.000000 
-0.310522 -0.608044 0.000000 
-0.189927 4.367958 0.000000 
-0.867245 5.834312 0.000000 
-0.781121 1.328584 0.000000 
-0.606175 1.860910 0.000000 
-0.438887 -0.872353 0.000000 
-0.820098 5.215528 0.000000 
0.321297 -20.355756 0.000000 
0.265635 -19.294492 0.000000 
-0.681766 7.067164 0.000000 
0.704619 -41.910060 0.000000 
0.303196 -28.885954 0.000000 
-0.190949 -1.946514 0.000000 
0.161808 -42.015043 0.000000 
-0.100095 -28.024517 0.000000 
-0.024435 -6.117887 0.000000 
-0.388009 -46.400457 0.000000 
-0.323891 -25.366297 0.000000 
0.041012 -7.561307 0.000000 
-0.593474 -32.770697 0.000000 
0.164518 -9.231707 0.000000 
0.111693 -5.804492 0.000000 
0.459627 -4.847438 0.000000 
0.765205 6.324070 0.000000 
0.525679 3.971208 0.000000 