# vtk DataFile Version 3.0 
vtk output 
ASCII 
DATASET UNSTRUCTURED_GRID 
POINTS 175 float 
-0.024836 -2.600532 0.000000 
-0.103955 -2.519923 0.000000 
-0.054057 -2.530467 0.000000 
-0.027294 -2.481257 0.000000 
-0.175498 -2.450800 0.000000 
-0.129122 -2.455764 0.000000 
-0.109622 -2.403038 0.000000 
-0.056073 -2.422442 0.000000 
-0.027932 -2.383634 0.000000 
-0.254370 -2.368659 0.000000 
-0.208306 -2.383025 0.000000 
-0.187481 -2.323879 0.000000 
-0.137666 -2.338553 0.000000 
-0.113243 -2.287837 0.000000 
-0.057031 -2.316231 0.000000 
-0.028851 -2.271116 0.000000 
-0.324878 -2.297776 0.000000 
-0.281711 -2.300845 0.000000 
-0.260537 -2.236739 0.000000 
-0.214924 -2.253999 0.000000 
-0.191647 -2.202661 0.000000 
-0.139338 -2.219417 0.000000 
-0.110389 -2.179930 0.000000 
-0.057097 -2.202576 0.000000 
-0.027063 -2.168741 0.000000 
-0.059256 -2.643971 0.000000 
-0.162246 -2.659650 0.000000 
-0.122067 -2.623740 0.000000 
-0.138421 -2.569157 0.000000 
-0.259647 -2.656410 0.000000 
-0.223961 -2.631380 0.000000 
-0.248511 -2.566949 0.000000 
-0.200463 -2.546752 0.000000 
-0.212485 -2.495018 0.000000 
-0.365185 -2.645757 0.000000 
-0.327662 -2.620113 0.000000 
-0.355328 -2.559310 0.000000 
-0.313949 -2.531491 0.000000 
-0.329750 -2.478968 0.000000 
-0.278368 -2.458808 0.000000 
-0.289576 -2.410231 0.000000 
-0.466466 -2.637870 0.000000 
-0.435734 -2.613701 0.000000 
-0.462165 -2.550061 0.000000 
-0.421638 -2.527851 0.000000 
-0.442462 -2.478403 0.000000 
-0.391502 -2.451249 0.000000 
-0.404361 -2.400957 0.000000 
-0.352813 -2.380956 0.000000 
-0.364239 -2.340143 0.000000 
-0.048501 -2.692137 0.000000 
-0.099579 -2.775197 0.000000 
-0.102971 -2.727962 0.000000 
-0.150929 -2.711969 0.000000 
-0.149731 -2.847674 0.000000 
-0.154295 -2.805030 0.000000 
-0.216993 -2.780719 0.000000 
-0.207027 -2.739654 0.000000 
-0.254428 -2.712377 0.000000 
-0.228907 -2.924884 0.000000 
-0.218253 -2.867210 0.000000 
-0.281787 -2.845602 0.000000 
-0.280983 -2.806989 0.000000 
-0.338686 -2.787282 0.000000 
-0.321174 -2.734493 0.000000 
-0.361918 -2.703471 0.000000 
-0.370907 -3.163128 0.000000 
-0.330846 -3.017519 0.000000 
-0.486309 -3.046855 0.000000 
-0.377842 -2.895721 0.000000 
-0.406198 -2.850513 0.000000 
-0.392682 -2.811115 0.000000 
-0.441074 -2.781924 0.000000 
-0.428287 -2.729138 0.000000 
-0.470093 -2.697283 0.000000 
-0.000000 -2.711883 0.000000 
0.046145 -2.795077 0.000000 
-0.000000 -2.771586 0.000000 
-0.046145 -2.795077 0.000000 
0.099937 -2.873053 0.000000 
0.047938 -2.850527 0.000000 
-0.000000 -2.889373 0.000000 
-0.047938 -2.850527 0.000000 
-0.099937 -2.873053 0.000000 
0.173743 -2.964182 0.000000 
0.116884 -2.937835 0.000000 
0.084956 -3.007619 0.000000 
-0.000000 -2.958838 0.000000 
-0.084956 -3.007619 0.000000 
-0.116884 -2.937835 0.000000 
-0.173743 -2.964182 0.000000 
0.269374 -3.182338 0.000000 
0.191301 -3.072011 0.000000 
0.195575 -3.223625 0.000000 
0.116857 -3.103211 0.000000 
-0.000000 -3.284562 0.000000 
-0.116857 -3.103211 0.000000 
-0.195575 -3.223625 0.000000 
-0.191301 -3.072011 0.000000 
-0.269374 -3.182338 0.000000 
0.048501 -2.692137 0.000000 
0.150929 -2.711969 0.000000 
0.102971 -2.727962 0.000000 
0.099579 -2.775197 0.000000 
0.254428 -2.712377 0.000000 
0.207027 -2.739654 0.000000 
0.216993 -2.780719 0.000000 
0.154295 -2.805030 0.000000 
0.149731 -2.847674 0.000000 
0.361918 -2.703471 0.000000 
0.321174 -2.734493 0.000000 
0.338686 -2.787282 0.000000 
0.280983 -2.806989 0.000000 
0.281787 -2.845602 0.000000 
0.218253 -2.867210 0.000000 
0.228907 -2.924884 0.000000 
0.470093 -2.697283 0.000000 
0.428287 -2.729138 0.000000 
0.441074 -2.781924 0.000000 
0.392682 -2.811115 0.000000 
0.406198 -2.850513 0.000000 
0.377842 -2.895721 0.000000 
0.486309 -3.046855 0.000000 
0.330846 -3.017519 0.000000 
0.370907 -3.163128 0.000000 
0.059256 -2.643971 0.000000 
0.138421 -2.569157 0.000000 
0.122067 -2.623740 0.000000 
0.162246 -2.659650 0.000000 
0.212485 -2.495018 0.000000 
0.200463 -2.546752 0.000000 
0.248511 -2.566949 0.000000 
0.223961 -2.631380 0.000000 
0.259647 -2.656410 0.000000 
0.289576 -2.410231 0.000000 
0.278368 -2.458808 0.000000 
0.329750 -2.478968 0.000000 
0.313949 -2.531491 0.000000 
0.355328 -2.559310 0.000000 
0.327662 -2.620113 0.000000 
0.365185 -2.645757 0.000000 
0.364239 -2.340143 0.000000 
0.352813 -2.380956 0.000000 
0.404361 -2.400957 0.000000 
0.391502 -2.451249 0.000000 
0.442462 -2.478403 0.000000 
0.421638 -2.527851 0.000000 
0.462165 -2.550061 0.000000 
0.435734 -2.613701 0.000000 
0.466466 -2.637870 0.000000 
0.024836 -2.600532 0.000000 
0.027294 -2.481257 0.000000 
0.054057 -2.530467 0.000000 
0.103955 -2.519923 0.000000 
0.027932 -2.383634 0.000000 
0.056073 -2.422442 0.000000 
0.109622 -2.403038 0.000000 
0.129122 -2.455764 0.000000 
0.175498 -2.450800 0.000000 
0.028851 -2.271116 0.000000 
0.057031 -2.316231 0.000000 
0.113243 -2.287837 0.000000 
0.137666 -2.338553 0.000000 
0.187481 -2.323879 0.000000 
0.208306 -2.383025 0.000000 
0.254370 -2.368659 0.000000 
0.027063 -2.168741 0.000000 
0.057097 -2.202576 0.000000 
0.110389 -2.179930 0.000000 
0.139338 -2.219417 0.000000 
0.191647 -2.202661 0.000000 
0.214924 -2.253999 0.000000 
0.260537 -2.236739 0.000000 
0.281711 -2.300845 0.000000 
0.324878 -2.297776 0.000000 
CELLS 175 350 
1 0 
1 1 
1 2 
1 3 
1 4 
1 5 
1 6 
1 7 
1 8 
1 9 
1 10 
1 11 
1 12 
1 13 
1 14 
1 15 
1 16 
1 17 
1 18 
1 19 
1 20 
1 21 
1 22 
1 23 
1 24 
1 25 
1 26 
1 27 
1 28 
1 29 
1 30 
1 31 
1 32 
1 33 
1 34 
1 35 
1 36 
1 37 
1 38 
1 39 
1 40 
1 41 
1 42 
1 43 
1 44 
1 45 
1 46 
1 47 
1 48 
1 49 
1 50 
1 51 
1 52 
1 53 
1 54 
1 55 
1 56 
1 57 
1 58 
1 59 
1 60 
1 61 
1 62 
1 63 
1 64 
1 65 
1 66 
1 67 
1 68 
1 69 
1 70 
1 71 
1 72 
1 73 
1 74 
1 75 
1 76 
1 77 
1 78 
1 79 
1 80 
1 81 
1 82 
1 83 
1 84 
1 85 
1 86 
1 87 
1 88 
1 89 
1 90 
1 91 
1 92 
1 93 
1 94 
1 95 
1 96 
1 97 
1 98 
1 99 
1 100 
1 101 
1 102 
1 103 
1 104 
1 105 
1 106 
1 107 
1 108 
1 109 
1 110 
1 111 
1 112 
1 113 
1 114 
1 115 
1 116 
1 117 
1 118 
1 119 
1 120 
1 121 
1 122 
1 123 
1 124 
1 125 
1 126 
1 127 
1 128 
1 129 
1 130 
1 131 
1 132 
1 133 
1 134 
1 135 
1 136 
1 137 
1 138 
1 139 
1 140 
1 141 
1 142 
1 143 
1 144 
1 145 
1 146 
1 147 
1 148 
1 149 
1 150 
1 151 
1 152 
1 153 
1 154 
1 155 
1 156 
1 157 
1 158 
1 159 
1 160 
1 161 
1 162 
1 163 
1 164 
1 165 
1 166 
1 167 
1 168 
1 169 
1 170 
1 171 
1 172 
1 173 
1 174 
CELL_TYPES 175 
1 
1 
1 
1 
1 
1 
1 
1 
1 
1 
1 
1 
1 
1 
1 
1 
1 
1 
1 
1 
1 
1 
1 
1 
1 
1 
1 
1 
1 
1 
1 
1 
1 
1 
1 
1 
1 
1 
1 
1 
1 
1 
1 
1 
1 
1 
1 
1 
1 
1 
1 
1 
1 
1 
1 
1 
1 
1 
1 
1 
1 
1 
1 
1 
1 
1 
1 
1 
1 
1 
1 
1 
1 
1 
1 
1 
1 
1 
1 
1 
1 
1 
1 
1 
1 
1 
1 
1 
1 
1 
1 
1 
1 
1 
1 
1 
1 
1 
1 
1 
1 
1 
1 
1 
1 
1 
1 
1 
1 
1 
1 
1 
1 
1 
1 
1 
1 
1 
1 
1 
1 
1 
1 
1 
1 
1 
1 
1 
1 
1 
1 
1 
1 
1 
1 
1 
1 
1 
1 
1 
1 
1 
1 
1 
1 
1 
1 
1 
1 
1 
1 
1 
1 
1 
1 
1 
1 
1 
1 
1 
1 
1 
1 
1 
1 
1 
1 
1 
1 
1 
1 
1 
1 
1 
1 
POINT_DATA 175 
VECTORS X_GC float 
-0.024836 -2.600532 0.000000 
-0.103955 -2.519923 0.000000 
-0.054057 -2.530467 0.000000 
-0.027294 -2.481257 0.000000 
-0.175498 -2.450800 0.000000 
-0.129122 -2.455764 0.000000 
-0.109622 -2.403038 0.000000 
-0.056073 -2.422442 0.000000 
-0.027932 -2.383634 0.000000 
-0.254370 -2.368659 0.000000 
-0.208306 -2.383025 0.000000 
-0.187481 -2.323879 0.000000 
-0.137666 -2.338553 0.000000 
-0.113243 -2.287837 0.000000 
-0.057031 -2.316231 0.000000 
-0.028851 -2.271116 0.000000 
-0.324878 -2.297776 0.000000 
-0.281711 -2.300845 0.000000 
-0.260537 -2.236739 0.000000 
-0.214924 -2.253999 0.000000 
-0.191647 -2.202661 0.000000 
-0.139338 -2.219417 0.000000 
-0.110389 -2.179930 0.000000 
-0.057097 -2.202576 0.000000 
-0.027063 -2.168741 0.000000 
-0.059256 -2.643971 0.000000 
-0.162246 -2.659650 0.000000 
-0.122067 -2.623740 0.000000 
-0.138421 -2.569157 0.000000 
-0.259647 -2.656410 0.000000 
-0.223961 -2.631380 0.000000 
-0.248511 -2.566949 0.000000 
-0.200463 -2.546752 0.000000 
-0.212485 -2.495018 0.000000 
-0.365185 -2.645757 0.000000 
-0.327662 -2.620113 0.000000 
-0.355328 -2.559310 0.000000 
-0.313949 -2.531491 0.000000 
-0.329750 -2.478968 0.000000 
-0.278368 -2.458808 0.000000 
-0.289576 -2.410231 0.000000 
-0.466466 -2.637870 0.000000 
-0.435734 -2.613701 0.000000 
-0.462165 -2.550061 0.000000 
-0.421638 -2.527851 0.000000 
-0.442462 -2.478403 0.000000 
-0.391502 -2.451249 0.000000 
-0.404361 -2.400957 0.000000 
-0.352813 -2.380956 0.000000 
-0.364239 -2.340143 0.000000 
-0.048501 -2.692137 0.000000 
-0.099579 -2.775197 0.000000 
-0.102971 -2.727962 0.000000 
-0.150929 -2.711969 0.000000 
-0.149731 -2.847674 0.000000 
-0.154295 -2.805030 0.000000 
-0.216993 -2.780719 0.000000 
-0.207027 -2.739654 0.000000 
-0.254428 -2.712377 0.000000 
-0.228907 -2.924884 0.000000 
-0.218253 -2.867210 0.000000 
-0.281787 -2.845602 0.000000 
-0.280983 -2.806989 0.000000 
-0.338686 -2.787282 0.000000 
-0.321174 -2.734493 0.000000 
-0.361918 -2.703471 0.000000 
-0.370907 -3.163128 0.000000 
-0.330846 -3.017519 0.000000 
-0.486309 -3.046855 0.000000 
-0.377842 -2.895721 0.000000 
-0.406198 -2.850513 0.000000 
-0.392682 -2.811115 0.000000 
-0.441074 -2.781924 0.000000 
-0.428287 -2.729138 0.000000 
-0.470093 -2.697283 0.000000 
-0.000000 -2.711883 0.000000 
0.046145 -2.795077 0.000000 
-0.000000 -2.771586 0.000000 
-0.046145 -2.795077 0.000000 
0.099937 -2.873053 0.000000 
0.047938 -2.850527 0.000000 
-0.000000 -2.889373 0.000000 
-0.047938 -2.850527 0.000000 
-0.099937 -2.873053 0.000000 
0.173743 -2.964182 0.000000 
0.116884 -2.937835 0.000000 
0.084956 -3.007619 0.000000 
-0.000000 -2.958838 0.000000 
-0.084956 -3.007619 0.000000 
-0.116884 -2.937835 0.000000 
-0.173743 -2.964182 0.000000 
0.269374 -3.182338 0.000000 
0.191301 -3.072011 0.000000 
0.195575 -3.223625 0.000000 
0.116857 -3.103211 0.000000 
-0.000000 -3.284562 0.000000 
-0.116857 -3.103211 0.000000 
-0.195575 -3.223625 0.000000 
-0.191301 -3.072011 0.000000 
-0.269374 -3.182338 0.000000 
0.048501 -2.692137 0.000000 
0.150929 -2.711969 0.000000 
0.102971 -2.727962 0.000000 
0.099579 -2.775197 0.000000 
0.254428 -2.712377 0.000000 
0.207027 -2.739654 0.000000 
0.216993 -2.780719 0.000000 
0.154295 -2.805030 0.000000 
0.149731 -2.847674 0.000000 
0.361918 -2.703471 0.000000 
0.321174 -2.734493 0.000000 
0.338686 -2.787282 0.000000 
0.280983 -2.806989 0.000000 
0.281787 -2.845602 0.000000 
0.218253 -2.867210 0.000000 
0.228907 -2.924884 0.000000 
0.470093 -2.697283 0.000000 
0.428287 -2.729138 0.000000 
0.441074 -2.781924 0.000000 
0.392682 -2.811115 0.000000 
0.406198 -2.850513 0.000000 
0.377842 -2.895721 0.000000 
0.486309 -3.046855 0.000000 
0.330846 -3.017519 0.000000 
0.370907 -3.163128 0.000000 
0.059256 -2.643971 0.000000 
0.138421 -2.569157 0.000000 
0.122067 -2.623740 0.000000 
0.162246 -2.659650 0.000000 
0.212485 -2.495018 0.000000 
0.200463 -2.546752 0.000000 
0.248511 -2.566949 0.000000 
0.223961 -2.631380 0.000000 
0.259647 -2.656410 0.000000 
0.289576 -2.410231 0.000000 
0.278368 -2.458808 0.000000 
0.329750 -2.478968 0.000000 
0.313949 -2.531491 0.000000 
0.355328 -2.559310 0.000000 
0.327662 -2.620113 0.000000 
0.365185 -2.645757 0.000000 
0.364239 -2.340143 0.000000 
0.352813 -2.380956 0.000000 
0.404361 -2.400957 0.000000 
0.391502 -2.451249 0.000000 
0.442462 -2.478403 0.000000 
0.421638 -2.527851 0.000000 
0.462165 -2.550061 0.000000 
0.435734 -2.613701 0.000000 
0.466466 -2.637870 0.000000 
0.024836 -2.600532 0.000000 
0.027294 -2.481257 0.000000 
0.054057 -2.530467 0.000000 
0.103955 -2.519923 0.000000 
0.027932 -2.383634 0.000000 
0.056073 -2.422442 0.000000 
0.109622 -2.403038 0.000000 
0.129122 -2.455764 0.000000 
0.175498 -2.450800 0.000000 
0.028851 -2.271116 0.000000 
0.057031 -2.316231 0.000000 
0.113243 -2.287837 0.000000 
0.137666 -2.338553 0.000000 
0.187481 -2.323879 0.000000 
0.208306 -2.383025 0.000000 
0.254370 -2.368659 0.000000 
0.027063 -2.168741 0.000000 
0.057097 -2.202576 0.000000 
0.110389 -2.179930 0.000000 
0.139338 -2.219417 0.000000 
0.191647 -2.202661 0.000000 
0.214924 -2.253999 0.000000 
0.260537 -2.236739 0.000000 
0.281711 -2.300845 0.000000 
0.324878 -2.297776 0.000000 
VECTORS X_EC float 
0.322873 -0.392814 0.000000 
-0.648587 0.518962 0.000000 
0.702740 0.661304 0.000000 
0.354822 -0.003037 0.000000 
0.281478 -0.414200 0.000000 
-0.321411 -0.347184 0.000000 
-0.574916 0.941007 0.000000 
0.728953 -0.797030 0.000000 
0.363117 0.679055 0.000000 
-0.693195 0.476899 0.000000 
0.707972 0.670837 0.000000 
0.437256 -0.127633 0.000000 
-0.210340 0.070462 0.000000 
-0.527847 -0.614202 0.000000 
0.741400 -0.230887 0.000000 
0.375061 -0.839931 0.000000 
0.223415 -0.480024 0.000000 
-0.337763 -0.438587 0.000000 
-0.613016 0.695974 0.000000 
0.794012 0.928986 0.000000 
0.491405 0.235924 0.000000 
-0.188612 0.462124 0.000000 
-0.564945 -0.070943 0.000000 
0.742262 0.234770 0.000000 
0.351819 -0.222001 0.000000 
0.770331 0.193603 0.000000 
0.109202 0.405274 0.000000 
-0.413133 -0.079513 0.000000 
-0.200529 -0.816387 0.000000 
-0.624593 0.361536 0.000000 
0.911488 0.023626 0.000000 
-0.769358 -0.846185 0.000000 
0.606016 0.881150 0.000000 
0.762299 0.182737 0.000000 
0.747400 0.217722 0.000000 
0.259611 -0.128475 0.000000 
0.619261 -0.949308 0.000000 
0.081341 0.675123 0.000000 
0.286745 -0.033933 0.000000 
-0.381221 -0.306090 0.000000 
-0.235508 -0.961881 0.000000 
0.064055 0.111248 0.000000 
-0.335462 -0.215032 0.000000 
0.008148 0.925822 0.000000 
-0.518703 0.625987 0.000000 
-0.247996 -0.041564 0.000000 
-0.910473 -0.408139 0.000000 
-0.743313 0.912925 0.000000 
0.586563 0.642906 0.000000 
0.735102 0.091929 0.000000 
0.630514 0.843849 0.000000 
-0.705476 -0.034839 0.000000 
-0.661371 -0.672511 0.000000 
-0.037923 -0.888416 0.000000 
-0.053500 0.943597 0.000000 
0.005830 0.367901 0.000000 
0.820912 0.039709 0.000000 
0.691350 -0.514674 0.000000 
-0.692438 -0.882908 0.000000 
0.975793 -0.014064 0.000000 
0.837284 -0.792667 0.000000 
-0.336770 0.915627 0.000000 
-0.347219 0.394348 0.000000 
0.402924 0.128308 0.000000 
0.175268 -0.584340 0.000000 
0.704936 0.996861 0.000000 
0.808930 0.945648 0.000000 
0.822002 0.973845 0.000000 
0.315175 0.903630 0.000000 
0.911941 -0.407770 0.000000 
-0.719424 0.981927 0.000000 
-0.895131 0.450057 0.000000 
-0.266032 0.055968 0.000000 
-0.432273 -0.656638 0.000000 
0.111211 0.913321 0.000000 
0.000000 -0.889578 0.000000 
-0.599889 0.233533 0.000000 
0.000000 -0.083586 0.000000 
0.599889 0.233533 0.000000 
0.700818 -0.713782 0.000000 
-0.623200 0.982114 0.000000 
0.000000 -0.493469 0.000000 
0.623200 0.982114 0.000000 
-0.700818 -0.713782 0.000000 
-0.258663 0.516458 0.000000 
0.480509 0.160779 0.000000 
0.748521 0.978687 0.000000 
0.000000 0.444320 0.000000 
-0.748521 0.978687 0.000000 
-0.480509 0.160778 0.000000 
0.258663 0.516458 0.000000 
0.704269 0.937207 0.000000 
-0.724313 0.961051 0.000000 
0.412755 0.887080 0.000000 
0.791852 0.988079 0.000000 
0.000000 0.760633 0.000000 
-0.791852 0.988079 0.000000 
-0.412755 0.887080 0.000000 
0.724313 0.961051 0.000000 
-0.704269 0.937207 0.000000 
-0.630514 0.843849 0.000000 
0.037923 -0.888416 0.000000 
0.661371 -0.672511 0.000000 
0.705476 -0.034839 0.000000 
0.692438 -0.882908 0.000000 
-0.691350 -0.514674 0.000000 
-0.820912 0.039709 0.000000 
-0.005830 0.367901 0.000000 
0.053500 0.943597 0.000000 
-0.704936 0.996861 0.000000 
-0.175268 -0.584340 0.000000 
-0.402924 0.128308 0.000000 
0.347219 0.394348 0.000000 
0.336770 0.915627 0.000000 
-0.837284 -0.792667 0.000000 
-0.975793 -0.014064 0.000000 
-0.111211 0.913321 0.000000 
0.432273 -0.656638 0.000000 
0.266032 0.055968 0.000000 
0.895131 0.450057 0.000000 
0.719424 0.981927 0.000000 
-0.911941 -0.407770 0.000000 
-0.315175 0.903630 0.000000 
-0.822002 0.973845 0.000000 
-0.808930 0.945648 0.000000 
-0.770331 0.193603 0.000000 
0.200529 -0.816387 0.000000 
0.413133 -0.079513 0.000000 
-0.109202 0.405274 0.000000 
-0.762299 0.182737 0.000000 
-0.606016 0.881150 0.000000 
0.769358 -0.846185 0.000000 
-0.911488 0.023626 0.000000 
0.624593 0.361536 0.000000 
0.235508 -0.961881 0.000000 
0.381221 -0.306090 0.000000 
-0.286745 -0.033933 0.000000 
-0.081341 0.675123 0.000000 
-0.619261 -0.949308 0.000000 
-0.259611 -0.128475 0.000000 
-0.747400 0.217722 0.000000 
-0.735102 0.091929 0.000000 
-0.586563 0.642906 0.000000 
0.743313 0.912925 0.000000 
0.910473 -0.408139 0.000000 
0.247996 -0.041564 0.000000 
0.518703 0.625987 0.000000 
-0.008148 0.925822 0.000000 
0.335462 -0.215032 0.000000 
-0.064055 0.111248 0.000000 
-0.322873 -0.392814 0.000000 
-0.354822 -0.003037 0.000000 
-0.702740 0.661304 0.000000 
0.648587 0.518962 0.000000 
-0.363117 0.679055 0.000000 
-0.728953 -0.797030 0.000000 
0.574916 0.941007 0.000000 
0.321411 -0.347184 0.000000 
-0.281478 -0.414200 0.000000 
-0.375061 -0.839931 0.000000 
-0.741400 -0.230887 0.000000 
0.527847 -0.614202 0.000000 
0.210340 0.070462 0.000000 
-0.437256 -0.127633 0.000000 
-0.707972 0.670837 0.000000 
0.693195 0.476899 0.000000 
-0.351819 -0.222001 0.000000 
-0.742262 0.234770 0.000000 
0.564945 -0.070943 0.000000 
0.188612 0.462124 0.000000 
-0.491405 0.235924 0.000000 
-0.794012 0.928986 0.000000 
0.613016 0.695974 0.000000 
0.337763 -0.438587 0.000000 
-0.223415 -0.480024 0.000000 
CELL_DATA 175 
SCALARS MASS float 
LOOKUP_TABLE default 
0.781831 
0.864274 
0.946717 
0.864274 
0.881307 
0.921110 
0.858535 
0.921110 
0.881307 
0.887046 
0.910001 
0.869829 
0.915556 
0.869829 
0.910001 
0.887046 
0.892784 
0.915740 
0.892784 
0.927218 
0.892784 
0.927218 
0.892784 
0.915740 
0.892784 
0.781831 
0.864274 
0.946717 
0.864274 
0.881307 
0.921110 
0.858535 
0.921110 
0.881307 
0.887046 
0.910001 
0.869829 
0.915556 
0.869829 
0.910001 
0.887046 
0.892784 
0.915740 
0.892784 
0.927218 
0.892784 
0.927218 
0.892784 
0.915740 
0.892784 
0.781831 
0.864274 
0.946717 
0.864274 
0.881307 
0.921110 
0.858535 
0.921110 
0.881307 
0.887046 
0.910001 
0.869829 
0.915556 
0.869829 
0.910001 
0.887046 
0.892784 
0.915740 
0.892784 
0.927218 
0.892784 
0.927218 
0.892784 
0.915740 
0.892784 
0.781831 
0.864274 
0.946717 
0.864274 
0.881307 
0.921110 
0.858535 
0.921110 
0.881307 
0.887046 
0.910001 
0.869829 
0.915556 
0.869829 
0.910001 
0.887046 
0.892784 
0.915740 
0.892784 
0.927218 
0.892784 
0.927218 
0.892784 
0.915740 
0.892784 
0.781831 
0.864274 
0.946717 
0.864274 
0.881307 
0.921110 
0.858535 
0.921110 
0.881307 
0.887046 
0.910001 
0.869829 
0.915556 
0.869829 
0.910001 
0.887046 
0.892784 
0.915740 
0.892784 
0.927218 
0.892784 
0.927218 
0.892784 
0.915740 
0.892784 
0.781831 
0.864274 
0.946717 
0.864274 
0.881307 
0.921110 
0.858535 
0.921110 
0.881307 
0.887046 
0.910001 
0.869829 
0.915556 
0.869829 
0.910001 
0.887046 
0.892784 
0.915740 
0.892784 
0.927218 
0.892784 
0.927218 
0.892784 
0.915740 
0.892784 
0.781831 
0.864274 
0.946717 
0.864274 
0.881307 
0.921110 
0.858535 
0.921110 
0.881307 
0.887046 
0.910001 
0.869829 
0.915556 
0.869829 
0.910001 
0.887046 
0.892784 
0.915740 
0.892784 
0.927218 
0.892784 
0.927218 
0.892784 
0.915740 
0.892784 
SCALARS MASS float 
LOOKUP_TABLE default 
0.781831 
0.864274 
0.946717 
0.864274 
0.881307 
0.921110 
0.858535 
0.921110 
0.881307 
0.887046 
0.910001 
0.869829 
0.915556 
0.869829 
0.910001 
0.887046 
0.892784 
0.915740 
0.892784 
0.927218 
0.892784 
0.927218 
0.892784 
0.915740 
0.892784 
0.781831 
0.864274 
0.946717 
0.864274 
0.881307 
0.921110 
0.858535 
0.921110 
0.881307 
0.887046 
0.910001 
0.869829 
0.915556 
0.869829 
0.910001 
0.887046 
0.892784 
0.915740 
0.892784 
0.927218 
0.892784 
0.927218 
0.892784 
0.915740 
0.892784 
0.781831 
0.864274 
0.946717 
0.864274 
0.881307 
0.921110 
0.858535 
0.921110 
0.881307 
0.887046 
0.910001 
0.869829 
0.915556 
0.869829 
0.910001 
0.887046 
0.892784 
0.915740 
0.892784 
0.927218 
0.892784 
0.927218 
0.892784 
0.915740 
0.892784 
0.781831 
0.864274 
0.946717 
0.864274 
0.881307 
0.921110 
0.858535 
0.921110 
0.881307 
0.887046 
0.910001 
0.869829 
0.915556 
0.869829 
0.910001 
0.887046 
0.892784 
0.915740 
0.892784 
0.927218 
0.892784 
0.927218 
0.892784 
0.915740 
0.892784 
0.781831 
0.864274 
0.946717 
0.864274 
0.881307 
0.921110 
0.858535 
0.921110 
0.881307 
0.887046 
0.910001 
0.869829 
0.915556 
0.869829 
0.910001 
0.887046 
0.892784 
0.915740 
0.892784 
0.927218 
0.892784 
0.927218 
0.892784 
0.915740 
0.892784 
0.781831 
0.864274 
0.946717 
0.864274 
0.881307 
0.921110 
0.858535 
0.921110 
0.881307 
0.887046 
0.910001 
0.869829 
0.915556 
0.869829 
0.910001 
0.887046 
0.892784 
0.915740 
0.892784 
0.927218 
0.892784 
0.927218 
0.892784 
0.915740 
0.892784 
0.781831 
0.864274 
0.946717 
0.864274 
0.881307 
0.921110 
0.858535 
0.921110 
0.881307 
0.887046 
0.910001 
0.869829 
0.915556 
0.869829 
0.910001 
0.887046 
0.892784 
0.915740 
0.892784 
0.927218 
0.892784 
0.927218 
0.892784 
0.915740 
0.892784 
SCALARS DENSITY float 
LOOKUP_TABLE default 
336.721084 
231.310413 
279.697885 
121.315090 
160.610693 
154.651999 
213.844263 
206.393638 
291.812625 
240.749689 
1311.193231 
323.642580 
216.513040 
172.095099 
293.369095 
169.005718 
294.852065 
162.828076 
400.255839 
232.638677 
272.004829 
255.247801 
437.297302 
275.904082 
318.788358 
867.770425 
208.166644 
280.928967 
127.184091 
216.366483 
622.690495 
79.074364 
314.451322 
169.035278 
361.802438 
496.003143 
314.042304 
228.690553 
417.051205 
147.042269 
232.239665 
345.661729 
173.040993 
458.317080 
107.213192 
292.472880 
308.311774 
350.584369 
264.667651 
233.349580 
283.546550 
239.047854 
178.373351 
191.670599 
152468.429517 
68.106599 
70.293064 
445.275523 
279.729811 
34018618.473019 
467164.410426 
247.659075 
524.162989 
413.762463 
131.967507 
785.875264 
185295627567.319366 
84705.687855 
2697.280899 
2880.526034 
207.401972 
123.593077 
533.416713 
286.773482 
239.129780 
72.537917 
153.684849 
631.849974 
153.684857 
382627.654650 
331.351048 
402254.182025 
331.351019 
382627.609425 
197637917195080.312500 
62445147677.169258 
22428779195734.710938 
12886181.677716 
22428776052035.917969 
62445113811.924141 
197637867138462.406250 
2557564708.811657 
2579008520621932945542051801333760.000000 
-104791262970189599558271500288.000000 
1008966715188267622835421968073741905690624.000000 
17150262.956680 
1008962682964549330380215690369726966398976.000000 
-104791312518556859042357051392.000000 
2579005099180093831725171888619520.000000 
2557567793.812357 
283.546544 
191.670599 
178.373361 
239.047849 
279.729818 
445.275470 
70.293066 
68.106598 
152468.412266 
785.875237 
131.967509 
413.762443 
524.162972 
247.659076 
467164.286565 
34018619.959649 
239.129783 
286.773458 
533.416645 
123.593074 
207.402010 
2880.525330 
2697.280383 
84705.674778 
185295452648.427795 
867.770442 
127.184088 
280.928967 
208.166638 
169.035279 
314.451326 
79.074362 
622.690491 
216.366486 
232.239662 
147.042270 
417.051205 
228.690566 
314.042301 
496.003134 
361.802430 
233.349576 
264.667650 
350.584380 
308.311777 
292.472878 
107.213191 
458.317095 
173.040989 
345.661757 
336.721074 
121.315089 
279.697889 
231.310426 
291.812627 
206.393637 
213.844265 
154.651999 
160.610692 
169.005719 
293.369102 
172.095099 
216.513037 
323.642582 
1311.193275 
240.749688 
318.788357 
275.904082 
437.297301 
255.247801 
272.004826 
232.638679 
400.255867 
162.828074 
294.852060 
SCALARS ELEM_i float 
LOOKUP_TABLE default 
164 
192 
165 
165 
192 
192 
193 
165 
166 
220 
193 
193 
193 
193 
166 
166 
220 
220 
221 
194 
194 
194 
194 
167 
167 
164 
191 
191 
191 
218 
191 
218 
192 
192 
218 
218 
218 
219 
219 
219 
219 
245 
245 
246 
246 
246 
246 
247 
220 
220 
164 
190 
190 
190 
190 
190 
190 
190 
217 
189 
189 
217 
217 
217 
217 
218 
216 
216 
243 
216 
244 
244 
244 
244 
245 
163 
163 
163 
163 
135 
163 
162 
163 
189 
135 
135 
135 
162 
189 
189 
189 
108 
135 
135 
135 
162 
189 
189 
189 
216 
164 
136 
136 
136 
109 
136 
136 
136 
136 
110 
109 
109 
109 
109 
135 
135 
83 
82 
82 
82 
82 
108 
81 
108 
108 
164 
137 
137 
137 
138 
138 
110 
137 
110 
111 
111 
111 
111 
110 
110 
110 
112 
112 
85 
84 
84 
84 
84 
83 
83 
164 
165 
165 
138 
166 
165 
139 
138 
138 
166 
166 
139 
139 
139 
139 
112 
167 
167 
140 
140 
140 
140 
113 
112 
112 
VECTORS VELOCITY float 
0.726112 2.268475 0.000000 
-0.476925 5.151678 0.000000 
-0.635105 5.629990 0.000000 
0.685666 7.025555 0.000000 
0.493704 4.139413 0.000000 
-0.085236 4.931371 0.000000 
-0.244359 3.571667 0.000000 
-0.172952 4.930366 0.000000 
0.348197 2.495384 0.000000 
-1.608915 4.025246 0.000000 
-1.323081 3.335577 0.000000 
-0.730186 3.863636 0.000000 
-1.173680 2.806092 0.000000 
-0.521380 4.196996 0.000000 
-0.364348 2.548695 0.000000 
0.009096 4.681271 0.000000 
-1.721462 -0.929635 0.000000 
-0.970341 2.670539 0.000000 
-0.264828 3.487502 0.000000 
-1.148835 4.518030 0.000000 
-1.984430 2.006996 0.000000 
-1.029967 4.289375 0.000000 
-0.314127 1.558983 0.000000 
-0.395380 5.267308 0.000000 
0.317366 1.966238 0.000000 
0.883337 1.357079 0.000000 
0.980972 0.490025 0.000000 
0.858707 1.906253 0.000000 
0.615712 3.421937 0.000000 
3.437899 1.084755 0.000000 
2.254479 0.782055 0.000000 
2.598835 3.792793 0.000000 
1.796550 3.143704 0.000000 
0.412697 3.127909 0.000000 
3.040028 1.675917 0.000000 
3.674835 3.549093 0.000000 
2.352946 2.594399 0.000000 
2.656398 4.674277 0.000000 
2.144298 3.838468 0.000000 
0.870544 3.613823 0.000000 
-0.291561 3.054041 0.000000 
5.156930 -2.369786 0.000000 
1.245913 -2.243853 0.000000 
1.937269 -0.946709 0.000000 
0.915770 -0.981160 0.000000 
-0.701696 -4.010475 0.000000 
1.206746 0.189046 0.000000 
1.418664 -0.333949 0.000000 
0.923526 2.250798 0.000000 
-2.477922 -0.669965 0.000000 
0.973973 1.070320 0.000000 
0.293928 4.115159 0.000000 
0.245061 2.812922 0.000000 
1.731044 2.763744 0.000000 
3.885291 8.012869 0.000000 
3.890659 8.654600 0.000000 
4.457417 7.508530 0.000000 
3.248130 3.251333 0.000000 
2.975984 1.420425 0.000000 
3.834315 -9.627331 0.000000 
6.158692 5.294387 0.000000 
6.327312 7.839884 0.000000 
4.126957 3.915210 0.000000 
1.988163 2.306552 0.000000 
3.742477 2.638192 0.000000 
3.100357 1.481417 0.000000 
0.851496 -128.467083 0.000000 
4.633253 -49.640312 0.000000 
2.285601 -73.003093 0.000000 
2.041639 -5.131461 0.000000 
9.788323 6.506020 0.000000 
6.806105 2.224625 0.000000 
6.545703 -1.702475 0.000000 
3.137508 -1.845479 0.000000 
3.455538 -4.500492 0.000000 
-0.000000 1.807383 0.000000 
-0.579903 5.001878 0.000000 
-0.000000 3.271223 0.000000 
0.579903 5.001879 0.000000 
-1.067064 5.222970 0.000000 
-1.547968 8.231937 0.000000 
0.000000 1.872307 0.000000 
1.547968 8.231938 0.000000 
1.067064 5.222970 0.000000 
-1.563678 -20.025029 0.000000 
-1.962811 -8.299450 0.000000 
-1.895125 -36.047679 0.000000 
0.000000 -14.847308 0.000000 
1.895125 -36.047679 0.000000 
1.962811 -8.299449 0.000000 
1.563678 -20.025029 0.000000 
-3.277505 -139.589971 0.000000 
-0.890401 -73.181397 0.000000 
2.685030 -160.007997 0.000000 
-1.149863 -86.666199 0.000000 
-0.000000 -192.027979 0.000000 
1.149863 -86.666200 0.000000 
-2.685030 -160.007996 0.000000 
0.890401 -73.181397 0.000000 
3.277505 -139.589973 0.000000 
-0.973973 1.070320 0.000000 
-1.731044 2.763745 0.000000 
-0.245061 2.812922 0.000000 
-0.293928 4.115159 0.000000 
-2.975984 1.420425 0.000000 
-3.248130 3.251333 0.000000 
-4.457417 7.508530 0.000000 
-3.890659 8.654600 0.000000 
-3.885291 8.012869 0.000000 
-3.100357 1.481417 0.000000 
-3.742477 2.638192 0.000000 
-1.988164 2.306552 0.000000 
-4.126957 3.915210 0.000000 
-6.327312 7.839883 0.000000 
-6.158692 5.294387 0.000000 
-3.834315 -9.627331 0.000000 
-3.455538 -4.500492 0.000000 
-3.137508 -1.845479 0.000000 
-6.545702 -1.702475 0.000000 
-6.806105 2.224625 0.000000 
-9.788322 6.506020 0.000000 
-2.041639 -5.131462 0.000000 
-2.285602 -73.003092 0.000000 
-4.633252 -49.640313 0.000000 
-0.851496 -128.467084 0.000000 
-0.883337 1.357079 0.000000 
-0.615712 3.421937 0.000000 
-0.858707 1.906253 0.000000 
-0.980972 0.490026 0.000000 
-0.412697 3.127908 0.000000 
-1.796550 3.143704 0.000000 
-2.598835 3.792793 0.000000 
-2.254479 0.782055 0.000000 
-3.437899 1.084755 0.000000 
0.291561 3.054041 0.000000 
-0.870544 3.613823 0.000000 
-2.144298 3.838468 0.000000 
-2.656398 4.674277 0.000000 
-2.352946 2.594399 0.000000 
-3.674835 3.549093 0.000000 
-3.040028 1.675917 0.000000 
2.477922 -0.669965 0.000000 
-0.923526 2.250798 0.000000 
-1.418664 -0.333949 0.000000 
-1.206746 0.189046 0.000000 
0.701696 -4.010475 0.000000 
-0.915770 -0.981160 0.000000 
-1.937269 -0.946709 0.000000 
-1.245913 -2.243853 0.000000 
-5.156929 -2.369786 0.000000 
-0.726112 2.268475 0.000000 
-0.685666 7.025555 0.000000 
0.635105 5.629990 0.000000 
0.476925 5.151678 0.000000 
-0.348197 2.495384 0.000000 
0.172952 4.930366 0.000000 
0.244359 3.571667 0.000000 
0.085236 4.931371 0.000000 
-0.493704 4.139413 0.000000 
-0.009096 4.681271 0.000000 
0.364348 2.548695 0.000000 
0.521380 4.196996 0.000000 
1.173680 2.806092 0.000000 
0.730186 3.863636 0.000000 
1.323081 3.335577 0.000000 
1.608915 4.025246 0.000000 
-0.317366 1.966238 0.000000 
0.395380 5.267308 0.000000 
0.314127 1.558983 0.000000 
1.029967 4.289375 0.000000 
1.984430 2.006996 0.000000 
1.148835 4.518031 0.000000 
0.264828 3.487502 0.000000 
0.970341 2.670539 0.000000 
1.721462 -0.929635 0.000000 
TENSORS STRESS float 
20.119469 6.878189 0.000000 
0.000000 24.631942 0.000000 
0.000000 0.000000 0.000000 

36.218654 -1.364650 0.000000 
0.000000 46.018923 0.000000 
0.000000 0.000000 0.000000 

-23.057220 -0.523248 0.000000 
0.000000 -3.163459 0.000000 
0.000000 0.000000 0.000000 

-35.186372 8.393601 0.000000 
0.000000 -14.653326 0.000000 
0.000000 0.000000 0.000000 

52.052923 -2.410915 0.000000 
0.000000 97.645008 0.000000 
0.000000 0.000000 0.000000 

-0.861647 -12.079179 0.000000 
0.000000 45.391614 0.000000 
0.000000 0.000000 0.000000 

27.462314 -16.612077 0.000000 
0.000000 70.549451 0.000000 
0.000000 0.000000 0.000000 

37.008667 -9.214895 0.000000 
0.000000 74.607578 0.000000 