# vtk DataFile Version 3.0 
vtk output 
ASCII 
DATASET UNSTRUCTURED_GRID 
POINTS 184 float 
-0.028811 0.212200 0.000000 
-0.337228 -0.599406 0.000000 
0.473826 -0.290180 0.000000 
-0.447224 -0.095423 0.000000 
0.165656 -0.705873 0.000000 
0.222713 0.157458 0.000000 
-0.284076 0.117750 0.000000 
-0.100762 -0.724928 0.000000 
0.418839 -0.038378 0.000000 
-0.462804 -0.368684 0.000000 
0.379480 -0.545806 0.000000 
-0.166786 0.184712 0.000000 
-0.227178 -0.677777 0.000000 
0.463197 -0.160968 0.000000 
-0.473871 -0.233282 0.000000 
0.286252 -0.643586 0.000000 
0.100762 0.201466 0.000000 
-0.377333 0.026439 0.000000 
0.039274 -0.734783 0.000000 
0.337021 0.075865 0.000000 
-0.416046 -0.488909 0.000000 
0.444142 -0.427387 0.000000 
-0.121270 0.198077 0.000000 
-0.301377 -0.630472 0.000000 
0.473826 -0.242742 0.000000 
-0.460589 -0.140940 0.000000 
0.246344 -0.669233 0.000000 
0.179561 0.177165 0.000000 
-0.346268 0.062291 0.000000 
-0.053807 -0.731679 0.000000 
0.368087 0.040014 0.000000 
-0.449439 -0.414201 0.000000 
0.424436 -0.470539 0.000000 
-0.209938 0.165006 0.000000 
-0.146279 -0.711563 0.000000 
0.438546 -0.081529 0.000000 
-0.473871 -0.280721 0.000000 
0.322103 -0.612520 0.000000 
0.018627 0.212200 0.000000 
-0.427517 -0.052272 0.000000 
0.086229 -0.728032 0.000000 
0.301170 0.106931 0.000000 
-0.368294 -0.563555 0.000000 
0.457507 -0.381871 0.000000 
-0.079407 0.180455 0.000000 
0.369154 -0.005119 0.000000 
0.048715 0.183844 0.000000 
0.205703 -0.661645 0.000000 
-0.167159 -0.675879 0.000000 
-0.366567 -0.522247 0.000000 
0.386144 -0.486128 0.000000 
-0.305135 0.066460 0.000000 
-0.387078 -0.032588 0.000000 
0.425252 -0.120678 0.000000 
0.140413 0.163871 0.000000 
0.111975 -0.695683 0.000000 
-0.260069 -0.628745 0.000000 
-0.413756 -0.435081 0.000000 
0.439780 -0.339645 0.000000 
0.326273 -0.571387 0.000000 
-0.014533 -0.708124 0.000000 
-0.225527 0.126714 0.000000 
-0.442908 -0.183166 0.000000 
-0.445123 -0.316999 0.000000 
0.255396 0.108347 0.000000 
0.445470 -0.212654 0.000000 
-0.079333 0.124180 0.000000 
-0.130417 0.081371 0.000000 
-0.191597 0.085989 0.000000 
-0.111867 0.022763 0.000000 
-0.224051 0.031468 0.000000 
-0.171272 -0.005531 0.000000 
-0.055594 0.008535 0.000000 
-0.279041 0.020904 0.000000 
-0.040187 -0.047187 0.000000 
-0.015041 0.049739 0.000000 
-0.296573 -0.038360 0.000000 
-0.349226 -0.068645 0.000000 
-0.351226 -0.134350 0.000000 
-0.254824 -0.077115 0.000000 
-0.391103 -0.183670 0.000000 
-0.370336 -0.243274 0.000000 
-0.284940 -0.134301 0.000000 
-0.395089 -0.302768 0.000000 
-0.360392 -0.348942 0.000000 
-0.313327 -0.242699 0.000000 
-0.369688 -0.407290 0.000000 
-0.323258 -0.441085 0.000000 
-0.307698 -0.307360 0.000000 
-0.317847 -0.502214 0.000000 
-0.261652 -0.527409 0.000000 
-0.273358 -0.414893 0.000000 
-0.237999 -0.581568 0.000000 
-0.174943 -0.587439 0.000000 
-0.233858 -0.466479 0.000000 
-0.136993 -0.632719 0.000000 
-0.076092 -0.623551 0.000000 
-0.147100 -0.538461 0.000000 
-0.021468 -0.656522 0.000000 
0.034383 -0.630568 0.000000 
-0.085997 -0.560494 0.000000 
0.090783 -0.648125 0.000000 
0.131601 -0.607257 0.000000 
0.025861 -0.574095 0.000000 
0.192839 -0.610588 0.000000 
0.225790 -0.558559 0.000000 
0.089168 -0.559578 0.000000 
0.282731 -0.542836 0.000000 
0.297512 -0.481257 0.000000 
0.190626 -0.510527 0.000000 
0.347718 -0.450130 0.000000 
0.347308 -0.388546 0.000000 
0.236036 -0.464088 0.000000 
0.387714 -0.339167 0.000000 
0.369971 -0.280193 0.000000 
0.294872 -0.367970 0.000000 
0.395378 -0.226864 0.000000 
0.360736 -0.180645 0.000000 
0.307967 -0.304353 0.000000 
0.372882 -0.126144 0.000000 
0.326072 -0.086124 0.000000 
0.305499 -0.191685 0.000000 
0.320446 -0.025119 0.000000 
0.261463 0.003918 0.000000 
0.282122 -0.131086 0.000000 
0.233332 0.061185 0.000000 
0.170485 0.067138 0.000000 
0.219133 -0.037639 0.000000 
0.132530 0.112402 0.000000 
0.077667 0.102546 0.000000 
0.033502 0.136392 0.000000 
-0.020231 0.106777 0.000000 
0.166704 0.000701 0.000000 
0.047676 0.049491 0.000000 
-0.184513 -0.054850 0.000000 
-0.267808 -0.183047 0.000000 
-0.039895 -0.536991 0.000000 
0.233804 -0.412385 0.000000 
0.278138 -0.262064 0.000000 
0.115242 -0.514876 0.000000 
0.234165 -0.111638 0.000000 
-0.267095 -0.339516 0.000000 
-0.182363 -0.471660 0.000000 
-0.080635 -0.088413 0.000000 
0.015739 -0.061603 0.000000 
-0.141814 -0.091222 0.000000 
-0.170613 -0.148684 0.000000 
-0.215488 -0.187410 0.000000 
-0.205084 -0.250730 0.000000 
-0.129406 -0.185631 0.000000 
-0.218571 -0.311226 0.000000 
-0.148068 -0.242816 0.000000 
-0.174593 -0.357600 0.000000 
-0.076799 -0.151509 0.000000 
-0.155573 -0.419699 0.000000 
-0.126037 -0.327572 0.000000 
-0.074980 -0.354182 0.000000 
-0.112999 -0.273283 0.000000 
-0.052249 -0.256511 0.000000 
-0.031995 -0.309495 0.000000 
-0.034711 -0.191922 0.000000 
0.031192 -0.117237 0.000000 
0.063050 -0.006130 0.000000 
-0.089197 -0.417822 0.000000 
0.009049 -0.175518 0.000000 
0.051424 -0.225414 0.000000 
0.053332 -0.280552 0.000000 
0.098177 -0.196122 0.000000 
0.011239 -0.323396 0.000000 
0.028372 -0.384833 0.000000 
0.017947 -0.444259 0.000000 
0.077740 -0.472149 0.000000 
0.083331 -0.385474 0.000000 
0.117710 -0.427614 0.000000 
0.179025 -0.398683 0.000000 
0.098599 -0.324576 0.000000 
0.165702 -0.206696 0.000000 
0.087920 -0.137302 0.000000 
0.161326 -0.327949 0.000000 
0.191154 -0.148837 0.000000 
0.131959 -0.105986 0.000000 
0.122542 -0.030448 0.000000 
-0.040916 -0.461693 0.000000 
0.197397 -0.268495 0.000000 
CELLS 184 368 
1 0 
1 1 
1 2 
1 3 
1 4 
1 5 
1 6 
1 7 
1 8 
1 9 
1 10 
1 11 
1 12 
1 13 
1 14 
1 15 
1 16 
1 17 
1 18 
1 19 
1 20 
1 21 
1 22 
1 23 
1 24 
1 25 
1 26 
1 27 
1 28 
1 29 
1 30 
1 31 
1 32 
1 33 
1 34 
1 35 
1 36 
1 37 
1 38 
1 39 
1 40 
1 41 
1 42 
1 43 
1 44 
1 45 
1 46 
1 47 
1 48 
1 49 
1 50 
1 51 
1 52 
1 53 
1 54 
1 55 
1 56 
1 57 
1 58 
1 59 
1 60 
1 61 
1 62 
1 63 
1 64 
1 65 
1 66 
1 67 
1 68 
1 69 
1 70 
1 71 
1 72 
1 73 
1 74 
1 75 
1 76 
1 77 
1 78 
1 79 
1 80 
1 81 
1 82 
1 83 
1 84 
1 85 
1 86 
1 87 
1 88 
1 89 
1 90 
1 91 
1 92 
1 93 
1 94 
1 95 
1 96 
1 97 
1 98 
1 99 
1 100 
1 101 
1 102 
1 103 
1 104 
1 105 
1 106 
1 107 
1 108 
1 109 
1 110 
1 111 
1 112 
1 113 
1 114 
1 115 
1 116 
1 117 
1 118 
1 119 
1 120 
1 121 
1 122 
1 123 
1 124 
1 125 
1 126 
1 127 
1 128 
1 129 
1 130 
1 131 
1 132 
1 133 
1 134 
1 135 
1 136 
1 137 
1 138 
1 139 
1 140 
1 141 
1 142 
1 143 
1 144 
1 145 
1 146 
1 147 
1 148 
1 149 
1 150 
1 151 
1 152 
1 153 
1 154 
1 155 
1 156 
1 157 
1 158 
1 159 
1 160 
1 161 
1 162 
1 163 
1 164 
1 165 
1 166 
1 167 
1 168 
1 169 
1 170 
1 171 
1 172 
1 173 
1 174 
1 175 
1 176 
1 177 
1 178 
1 179 
1 180 
1 181 
1 182 
1 183 
CELL_TYPES 184 
1 
1 
1 
1 
1 
1 
1 
1 
1 
1 
1 
1 
1 
1 
1 
1 
1 
1 
1 
1 
1 
1 
1 
1 
1 
1 
1 
1 
1 
1 
1 
1 
1 
1 
1 
1 
1 
1 
1 
1 
1 
1 
1 
1 
1 
1 
1 
1 
1 
1 
1 
1 
1 
1 
1 
1 
1 
1 
1 
1 
1 
1 
1 
1 
1 
1 
1 
1 
1 
1 
1 
1 
1 
1 
1 
1 
1 
1 
1 
1 
1 
1 
1 
1 
1 
1 
1 
1 
1 
1 
1 
1 
1 
1 
1 
1 
1 
1 
1 
1 
1 
1 
1 
1 
1 
1 
1 
1 
1 
1 
1 
1 
1 
1 
1 
1 
1 
1 
1 
1 
1 
1 
1 
1 
1 
1 
1 
1 
1 
1 
1 
1 
1 
1 
1 
1 
1 
1 
1 
1 
1 
1 
1 
1 
1 
1 
1 
1 
1 
1 
1 
1 
1 
1 
1 
1 
1 
1 
1 
1 
1 
1 
1 
1 
1 
1 
1 
1 
1 
1 
1 
1 
1 
1 
1 
1 
1 
1 
1 
1 
1 
1 
1 
1 
POINT_DATA 184 
VECTORS X_GC float 
-0.028811 0.212200 0.000000 
-0.337228 -0.599406 0.000000 
0.473826 -0.290180 0.000000 
-0.447224 -0.095423 0.000000 
0.165656 -0.705873 0.000000 
0.222713 0.157458 0.000000 
-0.284076 0.117750 0.000000 
-0.100762 -0.724928 0.000000 
0.418839 -0.038378 0.000000 
-0.462804 -0.368684 0.000000 
0.379480 -0.545806 0.000000 
-0.166786 0.184712 0.000000 
-0.227178 -0.677777 0.000000 
0.463197 -0.160968 0.000000 
-0.473871 -0.233282 0.000000 
0.286252 -0.643586 0.000000 
0.100762 0.201466 0.000000 
-0.377333 0.026439 0.000000 
0.039274 -0.734783 0.000000 
0.337021 0.075865 0.000000 
-0.416046 -0.488909 0.000000 
0.444142 -0.427387 0.000000 
-0.121270 0.198077 0.000000 
-0.301377 -0.630472 0.000000 
0.473826 -0.242742 0.000000 
-0.460589 -0.140940 0.000000 
0.246344 -0.669233 0.000000 
0.179561 0.177165 0.000000 
-0.346268 0.062291 0.000000 
-0.053807 -0.731679 0.000000 
0.368087 0.040014 0.000000 
-0.449439 -0.414201 0.000000 
0.424436 -0.470539 0.000000 
-0.209938 0.165006 0.000000 
-0.146279 -0.711563 0.000000 
0.438546 -0.081529 0.000000 
-0.473871 -0.280721 0.000000 
0.322103 -0.612520 0.000000 
0.018627 0.212200 0.000000 
-0.427517 -0.052272 0.000000 
0.086229 -0.728032 0.000000 
0.301170 0.106931 0.000000 
-0.368294 -0.563555 0.000000 
0.457507 -0.381871 0.000000 
-0.079407 0.180455 0.000000 
0.369154 -0.005119 0.000000 
0.048715 0.183844 0.000000 
0.205703 -0.661645 0.000000 
-0.167159 -0.675879 0.000000 
-0.366567 -0.522247 0.000000 
0.386144 -0.486128 0.000000 
-0.305135 0.066460 0.000000 
-0.387078 -0.032588 0.000000 
0.425252 -0.120678 0.000000 
0.140413 0.163871 0.000000 
0.111975 -0.695683 0.000000 
-0.260069 -0.628745 0.000000 
-0.413756 -0.435081 0.000000 
0.439780 -0.339645 0.000000 
0.326273 -0.571387 0.000000 
-0.014533 -0.708124 0.000000 
-0.225527 0.126714 0.000000 
-0.442908 -0.183166 0.000000 
-0.445123 -0.316999 0.000000 
0.255396 0.108347 0.000000 
0.445470 -0.212654 0.000000 
-0.079333 0.124180 0.000000 
-0.130417 0.081371 0.000000 
-0.191597 0.085989 0.000000 
-0.111867 0.022763 0.000000 
-0.224051 0.031468 0.000000 
-0.171272 -0.005531 0.000000 
-0.055594 0.008535 0.000000 
-0.279041 0.020904 0.000000 
-0.040187 -0.047187 0.000000 
-0.015041 0.049739 0.000000 
-0.296573 -0.038360 0.000000 
-0.349226 -0.068645 0.000000 
-0.351226 -0.134350 0.000000 
-0.254824 -0.077115 0.000000 
-0.391103 -0.183670 0.000000 
-0.370336 -0.243274 0.000000 
-0.284940 -0.134301 0.000000 
-0.395089 -0.302768 0.000000 
-0.360392 -0.348942 0.000000 
-0.313327 -0.242699 0.000000 
-0.369688 -0.407290 0.000000 
-0.323258 -0.441085 0.000000 
-0.307698 -0.307360 0.000000 
-0.317847 -0.502214 0.000000 
-0.261652 -0.527409 0.000000 
-0.273358 -0.414893 0.000000 
-0.237999 -0.581568 0.000000 
-0.174943 -0.587439 0.000000 
-0.233858 -0.466479 0.000000 
-0.136993 -0.632719 0.000000 
-0.076092 -0.623551 0.000000 
-0.147100 -0.538461 0.000000 
-0.021468 -0.656522 0.000000 
0.034383 -0.630568 0.000000 
-0.085997 -0.560494 0.000000 
0.090783 -0.648125 0.000000 
0.131601 -0.607257 0.000000 
0.025861 -0.574095 0.000000 
0.192839 -0.610588 0.000000 
0.225790 -0.558559 0.000000 
0.089168 -0.559578 0.000000 
0.282731 -0.542836 0.000000 
0.297512 -0.481257 0.000000 
0.190626 -0.510527 0.000000 
0.347718 -0.450130 0.000000 
0.347308 -0.388546 0.000000 
0.236036 -0.464088 0.000000 
0.387714 -0.339167 0.000000 
0.369971 -0.280193 0.000000 
0.294872 -0.367970 0.000000 
0.395378 -0.226864 0.000000 
0.360736 -0.180645 0.000000 
0.307967 -0.304353 0.000000 
0.372882 -0.126144 0.000000 
0.326072 -0.086124 0.000000 
0.305499 -0.191685 0.000000 
0.320446 -0.025119 0.000000 
0.261463 0.003918 0.000000 
0.282122 -0.131086 0.000000 
0.233332 0.061185 0.000000 
0.170485 0.067138 0.000000 
0.219133 -0.037639 0.000000 
0.132530 0.112402 0.000000 
0.077667 0.102546 0.000000 
0.033502 0.136392 0.000000 
-0.020231 0.106777 0.000000 
0.166704 0.000701 0.000000 
0.047676 0.049491 0.000000 
-0.184513 -0.054850 0.000000 
-0.267808 -0.183047 0.000000 
-0.039895 -0.536991 0.000000 
0.233804 -0.412385 0.000000 
0.278138 -0.262064 0.000000 
0.115242 -0.514876 0.000000 
0.234165 -0.111638 0.000000 
-0.267095 -0.339516 0.000000 
-0.182363 -0.471660 0.000000 
-0.080635 -0.088413 0.000000 
0.015739 -0.061603 0.000000 
-0.141814 -0.091222 0.000000 
-0.170613 -0.148684 0.000000 
-0.215488 -0.187410 0.000000 
-0.205084 -0.250730 0.000000 
-0.129406 -0.185631 0.000000 
-0.218571 -0.311226 0.000000 
-0.148068 -0.242816 0.000000 
-0.174593 -0.357600 0.000000 
-0.076799 -0.151509 0.000000 
-0.155573 -0.419699 0.000000 
-0.126037 -0.327572 0.000000 
-0.074980 -0.354182 0.000000 
-0.112999 -0.273283 0.000000 
-0.052249 -0.256511 0.000000 
-0.031995 -0.309495 0.000000 
-0.034711 -0.191922 0.000000 
0.031192 -0.117237 0.000000 
0.063050 -0.006130 0.000000 
-0.089197 -0.417822 0.000000 
0.009049 -0.175518 0.000000 
0.051424 -0.225414 0.000000 
0.053332 -0.280552 0.000000 
0.098177 -0.196122 0.000000 
0.011239 -0.323396 0.000000 
0.028372 -0.384833 0.000000 
0.017947 -0.444259 0.000000 
0.077740 -0.472149 0.000000 
0.083331 -0.385474 0.000000 
0.117710 -0.427614 0.000000 
0.179025 -0.398683 0.000000 
0.098599 -0.324576 0.000000 
0.165702 -0.206696 0.000000 
0.087920 -0.137302 0.000000 
0.161326 -0.327949 0.000000 
0.191154 -0.148837 0.000000 
0.131959 -0.105986 0.000000 
0.122542 -0.030448 0.000000 
-0.040916 -0.461693 0.000000 
0.197397 -0.268495 0.000000 
VECTORS X_EC float 
-0.807924 -0.414664 0.000000 
-0.751813 0.996042 0.000000 
-0.158839 0.934532 0.000000 
-0.018508 -0.363846 0.000000 
-0.104376 -0.294180 0.000000 
-0.484750 -0.049721 0.000000 
0.893837 0.215002 0.000000 
-0.328251 -0.167149 0.000000 
0.207737 -0.744146 0.000000 
0.085362 -0.542107 0.000000 
0.470130 0.638709 0.000000 
0.111910 -0.231415 0.000000 
0.514522 -0.481487 0.000000 
-0.087979 0.073123 0.000000 
0.159142 0.555216 0.000000 
-0.908345 -0.709428 0.000000 
0.328251 -0.343107 0.000000 
-0.484444 0.823739 0.000000 
0.738177 -0.101447 0.000000 
0.753192 0.494230 0.000000 
-0.226359 0.259394 0.000000 
0.039052 -0.150751 0.000000 
-0.191535 -0.320515 0.000000 
-0.990822 -0.796855 0.000000 
-0.158839 0.618277 0.000000 
0.070591 -0.060401 0.000000 
-0.642294 -0.538447 0.000000 
-0.197074 -0.181098 0.000000 
-0.691547 0.584729 0.000000 
-0.641287 -0.122141 0.000000 
0.546089 0.733240 0.000000 
-0.003737 -0.238663 0.000000 
0.170429 0.136924 0.000000 
0.399586 -0.100038 0.000000 
-0.024807 -0.256248 0.000000 
0.076360 -0.456470 0.000000 
0.159142 0.871471 0.000000 
0.852645 -0.916531 0.000000 
0.875821 -0.414664 0.000000 
-0.149885 -0.651521 0.000000 
0.425140 -0.146455 0.000000 
0.992201 0.287127 0.000000 
-0.544710 0.757032 0.000000 
-0.050047 -0.454196 0.000000 
-0.470623 -0.203035 0.000000 
0.538976 -0.965871 0.000000 
0.675236 -0.225627 0.000000 
-0.371350 -0.589031 0.000000 
0.114395 -0.494139 0.000000 
-0.556219 0.481647 0.000000 
0.425709 0.240854 0.000000 
-0.965766 0.556930 0.000000 
-0.419479 -0.782747 0.000000 
0.164988 -0.195483 0.000000 
0.063913 -0.092470 0.000000 
0.253500 -0.362114 0.000000 
0.733793 -0.808365 0.000000 
-0.241628 -0.099461 0.000000 
0.068130 -0.735700 0.000000 
0.824846 0.809249 0.000000 
-0.903111 -0.279174 0.000000 
0.503515 0.155242 0.000000 
-0.047282 0.221106 0.000000 
-0.032511 -0.886672 0.000000 
-0.702641 0.277684 0.000000 
0.030198 0.417692 0.000000 
-0.471115 0.172130 0.000000 
-0.130555 0.457526 0.000000 
0.277311 0.426740 0.000000 
-0.254217 0.848245 0.000000 
0.493676 0.790212 0.000000 
0.141813 -0.963128 0.000000 
-0.629371 0.943101 0.000000 
0.860276 0.860642 0.000000 
-0.732087 -0.685419 0.000000 
-0.899724 0.668407 0.000000 
0.977153 -0.744266 0.000000 
-0.671826 -0.542365 0.000000 
-0.658496 -0.104336 0.000000 
0.698824 -0.485898 0.000000 
-0.392645 0.224465 0.000000 
-0.531093 0.621825 0.000000 
0.899598 -0.104657 0.000000 
-0.366074 -0.981549 0.000000 
-0.597389 -0.673718 0.000000 
-0.911153 0.617995 0.000000 
-0.535415 -0.284731 0.000000 
-0.844949 -0.059433 0.000000 
-0.948677 -0.950934 0.000000 
-0.881021 0.348091 0.000000 
0.744349 0.516063 0.000000 
0.822387 -0.234049 0.000000 
0.586663 0.877120 0.000000 
0.166285 0.916262 0.000000 
0.559054 0.109860 0.000000 
-0.086713 -0.781874 0.000000 
-0.492723 -0.842991 0.000000 
-0.019331 0.589743 0.000000 
-0.856883 -0.623190 0.000000 
0.770780 -0.796214 0.000000 
-0.426685 0.736628 0.000000 
0.394783 -0.679167 0.000000 
0.122661 -0.951617 0.000000 
0.827591 0.827297 0.000000 
-0.285596 -0.929416 0.000000 
-0.505268 0.723725 0.000000 
0.405544 0.730519 0.000000 
-0.884872 0.618909 0.000000 
-0.983414 0.208380 0.000000 
-0.270837 0.403511 0.000000 
0.681883 0.000865 0.000000 
0.684612 -0.409696 0.000000 
-0.573571 0.093917 0.000000 
0.415238 -0.738886 0.000000 
0.533524 0.867951 0.000000 
-0.965812 -0.546865 0.000000 
0.364144 0.512426 0.000000 
0.595096 0.204299 0.000000 
0.946884 -0.970983 0.000000 
0.514118 -0.159040 0.000000 
0.826186 -0.425839 0.000000 
0.963337 0.277900 0.000000 
0.863696 -0.832543 0.000000 
-0.743089 0.973880 0.000000 
-0.880813 -0.126090 0.000000 
-0.555549 0.592100 0.000000 
-0.136568 0.552414 0.000000 
-0.460886 -0.749074 0.000000 
0.116466 0.250650 0.000000 
0.482219 0.316359 0.000000 
0.776650 0.090718 0.000000 
-0.865130 0.288156 0.000000 
-0.111363 0.995328 0.000000 
0.682158 0.670061 0.000000 
0.230085 -0.634331 0.000000 
0.785388 0.220314 0.000000 
-0.734034 0.579939 0.000000 
-0.558696 -0.250767 0.000000 
-0.854255 0.747092 0.000000 
0.231718 0.432507 0.000000 
-0.561100 -0.255748 0.000000 
0.780632 -0.736563 0.000000 
0.215752 0.144397 0.000000 
-0.462433 -0.410582 0.000000 
0.895071 -0.589311 0.000000 
-0.054573 -0.391856 0.000000 
0.137421 -0.008774 0.000000 
0.436584 0.249403 0.000000 
0.367225 0.671535 0.000000 
-0.137294 0.237537 0.000000 
0.457138 -0.925163 0.000000 
-0.012881 0.618774 0.000000 
0.163955 -0.615998 0.000000 
-0.488009 0.010061 0.000000 
0.037156 -0.202007 0.000000 
-0.159751 -0.816189 0.000000 
-0.500136 -0.638783 0.000000 
-0.246673 0.821884 0.000000 
-0.651673 0.710070 0.000000 
-0.786702 -0.936703 0.000000 
-0.768596 0.279483 0.000000 
0.792053 -0.218419 0.000000 
0.579669 -0.959137 0.000000 
-0.405356 -0.214521 0.000000 
0.939676 0.170122 0.000000 
0.657172 0.502758 0.000000 
0.644454 0.870346 0.000000 
0.345486 0.307479 0.000000 
0.925074 -0.844026 0.000000 
0.810853 -0.434446 0.000000 
0.880351 -0.038274 0.000000 
0.481737 0.147657 0.000000 
0.444460 -0.430174 0.000000 
0.215264 -0.149243 0.000000 
-0.193502 -0.342111 0.000000 
0.342676 -0.836163 0.000000 
-0.104683 0.377974 0.000000 
0.413868 -0.084655 0.000000 
-0.075508 -0.813671 0.000000 
-0.274359 -0.007756 0.000000 
0.120271 -0.293425 0.000000 
0.183054 -0.797016 0.000000 
-0.727227 0.077951 0.000000 
-0.315983 0.789966 0.000000 
CELL_DATA 184 
SCALARS MASS float 
LOOKUP_TABLE default 
0.051252 
0.046008 
0.051531 
0.046188 
0.052854 
0.051531 
0.052854 
0.052854 
0.051531 
0.050859 
0.052854 
0.047395 
0.052854 
0.052854 
0.051434 
0.045995 
0.052854 
0.051281 
0.051530 
0.046441 
0.052854 
0.052854 
0.050612 
0.049065 
0.052975 
0.049197 
0.049245 
0.052975 
0.052990 
0.055938 
0.049713 
0.052094 
0.055938 
0.050456 
0.055938 
0.053198 
0.052878 
0.049051 
0.052807 
0.049481 
0.052974 
0.049465 
0.049257 
0.055938 
0.105225 
0.104629 
0.082126 
0.094264 
0.094771 
0.094259 
0.094771 
0.083366 
0.104047 
0.083092 
0.081316 
0.081315 
0.092719 
0.079469 
0.108073 
0.092710 
0.108073 
0.093129 
0.104035 
0.094961 
0.104398 
0.081316 
0.125285 
0.099128 
0.098320 
0.087841 
0.082650 
0.097481 
0.086914 
0.081921 
0.086680 
0.086680 
0.081485 
0.107769 
0.088711 
0.084874 
0.107874 
0.082612 
0.095190 
0.095229 
0.083942 
0.085089 
0.079923 
0.081132 
0.095301 
0.097917 
0.090576 
0.085268 
0.095896 
0.081062 
0.095454 
0.090083 
0.081027 
0.085251 
0.101961 
0.083022 
0.095445 
0.080604 
0.081018 
0.085240 
0.097826 
0.090495 
0.095435 
0.095845 
0.081023 
0.085241 
0.090072 
0.081024 
0.095436 
0.101966 
0.083028 
0.085242 
0.080610 
0.081024 
0.095437 
0.082345 
0.082694 
0.085242 
0.109264 
0.089885 
0.095437 
0.108636 
0.083028 
0.085242 
0.080610 
0.074817 
0.073569 
0.082490 
0.095437 
0.095617 
0.133784 
0.138292 
0.139667 
0.139695 
0.139694 
0.139689 
0.139693 
0.140105 
0.139774 
0.086622 
0.086622 
0.089038 
0.077179 
0.079159 
0.072465 
0.084345 
0.092656 
0.093083 
0.084037 
0.098826 
0.101847 
0.085968 
0.086444 
0.074619 
0.064825 
0.094138 
0.124406 
0.086607 
0.131576 
0.102571 
0.084703 
0.076503 
0.084191 
0.084191 
0.086793 
0.075696 
0.084714 
0.090949 
0.084009 
0.076569 
0.086383 
0.098391 
0.110757 
0.093222 
0.143196 
0.101090 
0.091038 
0.150913 
0.178131 
0.206980 
SCALARS MASS float 
LOOKUP_TABLE default 
0.051252 
0.046008 
0.051531 
0.046188 
0.052854 
0.051531 
0.052854 
0.052854 
0.051531 
0.050859 
0.052854 
0.047395 
0.052854 
0.052854 
0.051434 
0.045995 
0.052854 
0.051281 
0.051530 
0.046441 
0.052854 
0.052854 
0.050612 
0.049065 
0.052975 
0.049197 
0.049245 
0.052975 
0.052990 
0.055938 
0.049713 
0.052094 
0.055938 
0.050456 
0.055938 
0.053198 
0.052878 
0.049051 
0.052807 
0.049481 
0.052974 
0.049465 
0.049257 
0.055938 
0.105225 
0.104629 
0.082126 
0.094264 
0.094771 
0.094259 
0.094771 
0.083366 
0.104047 
0.083092 
0.081316 
0.081315 
0.092719 
0.079469 
0.108073 
0.092710 
0.108073 
0.093129 
0.104035 
0.094961 
0.104398 
0.081316 
0.125285 
0.099128 
0.098320 
0.087841 
0.082650 
0.097481 
0.086914 
0.081921 
0.086680 
0.086680 
0.081485 
0.107769 
0.088711 
0.084874 
0.107874 
0.082612 
0.095190 
0.095229 
0.083942 
0.085089 
0.079923 
0.081132 
0.095301 
0.097917 
0.090576 
0.085268 
0.095896 
0.081062 
0.095454 
0.090083 
0.081027 
0.085251 
0.101961 
0.083022 
0.095445 
0.080604 
0.081018 
0.085240 
0.097826 
0.090495 
0.095435 
0.095845 
0.081023 
0.085241 
0.090072 
0.081024 
0.095436 
0.101966 
0.083028 
0.085242 
0.080610 
0.081024 
0.095437 
0.082345 
0.082694 
0.085242 
0.109264 
0.089885 
0.095437 
0.108636 
0.083028 
0.085242 
0.080610 
0.074817 
0.073569 
0.082490 
0.095437 
0.095617 
0.133784 
0.138292 
0.139667 
0.139695 
0.139694 
0.139689 
0.139693 
0.140105 
0.139774 
0.086622 
0.086622 
0.089038 
0.077179 
0.079159 
0.072465 
0.084345 
0.092656 
0.093083 
0.084037 
0.098826 
0.101847 
0.085968 
0.086444 
0.074619 
0.064825 
0.094138 
0.124406 
0.086607 
0.131576 
0.102571 
0.084703 
0.076503 
0.084191 
0.084191 
0.086793 
0.075696 
0.084714 
0.090949 
0.084009 
0.076569 
0.086383 
0.098391 
0.110757 
0.093222 
0.143196 
0.101090 
0.091038 
0.150913 
0.178131 
0.206980 
SCALARS DENSITY float 
LOOKUP_TABLE default 
20.000000 
20.000000 
20.000000 
20.000000 
20.000000 
20.000000 
20.000000 
20.000000 
20.000000 
20.000000 
20.000000 
20.000000 
20.000000 
20.000000 
20.000000 
20.000000 
20.000000 
20.000000 
20.000000 
20.000000 
20.000000 
20.000000 
20.000000 
20.000000 
20.000000 
20.000000 
20.000000 
20.000000 
20.000000 
20.000000 
20.000000 
20.000000 
20.000000 
20.000000 
20.000000 
20.000000 
20.000000 
20.000000 
20.000000 
20.000000 
20.000000 
20.000000 
20.000000 
20.000000 
20.000000 
20.000000 
20.000000 
20.000000 
20.000000 
20.000000 
20.000000 
20.000000 
20.000000 
20.000000 
20.000000 
20.000000 
20.000000 
20.000000 
20.000000 
20.000000 
20.000000 
20.000000 
20.000000 
20.000000 
20.000000 
20.000000 
20.000000 
20.000000 
20.000000 
20.000000 
20.000000 
20.000000 
20.000000 
20.000000 
20.000000 
20.000000 
20.000000 
20.000000 
20.000000 
20.000000 
20.000000 
20.000000 
20.000000 
20.000000 
20.000000 
20.000000 
20.000000 
20.000000 
20.000000 
20.000000 
20.000000 
20.000000 
20.000000 
20.000000 
20.000000 
20.000000 
20.000000 
20.000000 
20.000000 
20.000000 
20.000000 
20.000000 
20.000000 
20.000000 
20.000000 
20.000000 
20.000000 
20.000000 
20.000000 
20.000000 
20.000000 
20.000000 
20.000000 
20.000000 
20.000000 
20.000000 
20.000000 
20.000000 
20.000000 
20.000000 
20.000000 
20.000000 
20.000000 
20.000000 
20.000000 
20.000000 
20.000000 
20.000000 
20.000000 
20.000000 
20.000000 
20.000000 
20.000000 
20.000000 
20.000000 
20.000000 
20.000000 
20.000000 
20.000000 
20.000000 
20.000000 
20.000000 
20.000000 
20.000000 
20.000000 
20.000000 
20.000000 
20.000000 
20.000000 
20.000000 
20.000000 
20.000000 
20.000000 
20.000000 
20.000000 
20.000000 
20.000000 
20.000000 
20.000000 
20.000000 
20.000000 
20.000000 
20.000000 
20.000000 
20.000000 
20.000000 
20.000000 
20.000000 
20.000000 
20.000000 
20.000000 
20.000000 
20.000000 
20.000000 
20.000000 
20.000000 
20.000000 
20.000000 
20.000000 
20.000000 
20.000000 
20.000000 
20.000000 
20.000000 
SCALARS ELEM_i float 
LOOKUP_TABLE default 
210 
228 
169 
229 
187 
190 
210 
207 
169 
228 
168 
210 
207 
169 
229 
187 
190 
230 
187 
170 
228 
168 
210 
227 
169 
229 
187 
190 
230 
207 
170 
228 
168 
210 
207 
169 
229 
167 
190 
229 
187 
170 
228 
168 
210 
169 
190 
187 
207 
228 
168 
230 
229 
169 
190 
187 
207 
228 
168 
168 
207 
210 
229 
228 
190 
169 
210 
210 
210 
210 
210 
209 
210 
210 
209 
210 
209 
229 
229 
209 
229 
229 
209 
228 
228 
229 
228 
228 
228 
228 
208 
208 
208 
208 
208 
207 
207 
208 
207 
187 
208 
187 
187 
188 
187 
188 
188 
188 
188 
188 
168 
168 
188 
168 
169 
188 
169 
169 
168 
169 
169 
169 
169 
190 
189 
190 
190 
189 
190 
190 
190 
210 
190 
190 
209 
209 
208 
188 
189 
188 
189 
208 
208 
209 
189 
209 
209 
209 
209 
209 
208 
209 
208 
209 
208 
208 
208 
209 
209 
208 
209 
189 
189 
208 
189 
189 
189 
189 
188 
188 
188 
188 
188 
188 
188 
188 
189 
189 
188 
189 
189 
189 
208 
189 
VECTORS VELOCITY float 
-0.000000 -2.256300 0.000000 
-0.000000 -2.256300 0.000000 
0.000000 -2.256300 0.000000 
0.000000 -2.256300 0.000000 
-0.000000 -2.256300 0.000000 
0.000000 -2.256300 0.000000 
-0.000000 -2.256300 0.000000 
0.000000 -2.256300 0.000000 
-0.000000 -2.256300 0.000000 
-0.000000 -2.256300 0.000000 
-0.000000 -2.256300 0.000000 
0.000000 -2.256300 0.000000 
0.000000 -2.256300 0.000000 
-0.000000 -2.256300 0.000000 
0.000000 -2.256300 0.000000 
-0.000000 -2.256300 0.000000 
0.000000 -2.256300 0.000000 
0.000000 -2.256300 0.000000 
-0.000000 -2.256300 0.000000 
0.000000 -2.256300 0.000000 
-0.000000 -2.256300 0.000000 
0.000000 -2.256300 0.000000 
0.000000 -2.256300 0.000000 
0.000000 -2.256300 0.000000 
0.000000 -2.256300 0.000000 
0.000000 -2.256300 0.000000 
-0.000000 -2.256300 0.000000 
0.000000 -2.256300 0.000000 
0.000000 -2.256300 0.000000 
0.000000 -2.256300 0.000000 
-0.000000 -2.256300 0.000000 
-0.000000 -2.256300 0.000000 
-0.000000 -2.256300 0.000000 
0.000000 -2.256300 0.000000 
0.000000 -2.256300 0.000000 
-0.000000 -2.256300 0.000000 
-0.000000 -2.256300 0.000000 
-0.000000 -2.256300 0.000000 
-0.000000 -2.256300 0.000000 
0.000000 -2.256300 0.000000 
-0.000000 -2.256300 0.000000 
0.000000 -2.256300 0.000000 
-0.000000 -2.256300 0.000000 
0.000000 -2.256300 0.000000 
-0.000000 -2.256300 0.000000 
-0.000000 -2.256300 0.000000 
0.000000 -2.256300 0.000000 
-0.000000 -2.256300 0.000000 
0.000000 -2.256300 0.000000 
-0.000000 -2.256300 0.000000 
-0.000000 -2.256300 0.000000 
0.000000 -2.256300 0.000000 
0.000000 -2.256300 0.000000 
-0.000000 -2.256300 0.000000 
0.000000 -2.256300 0.000000 
-0.000000 -2.256300 0.000000 
0.000000 -2.256300 0.000000 
-0.000000 -2.256300 0.000000 
0.000000 -2.256300 0.000000 
-0.000000 -2.256300 0.000000 
-0.000000 -2.256300 0.000000 
-0.000000 -2.256300 0.000000 
0.000000 -2.256300 0.000000 
-0.000000 -2.256300 0.000000 
0.000000 -2.256300 0.000000 
0.000000 -2.256300 0.000000 
-0.000000 -2.256300 0.000000 
-0.000000 -2.256300 0.000000 
0.000000 -2.256300 0.000000 
-0.000000 -2.256300 0.000000 
0.000000 -2.256300 0.000000 
-0.000000 -2.256300 0.000000 
-0.000000 -2.256300 0.000000 
0.000000 -2.256300 0.000000 
-0.000000 -2.256300 0.000000 
-0.000000 -2.256300 0.000000 
0.000000 -2.256300 0.000000 
0.000000 -2.256300 0.000000 
0.000000 -2.256300 0.000000 
0.000000 -2.256300 0.000000 
0.000000 -2.256300 0.000000 
-0.000000 -2.256300 0.000000 
-0.000000 -2.256300 0.000000 
-0.000000 -2.256300 0.000000 
-0.000000 -2.256300 0.000000 
-0.000000 -2.256300 0.000000 
-0.000000 -2.256300 0.000000 
-0.000000 -2.256300 0.000000 
-0.000000 -2.256300 0.000000 
0.000000 -2.256300 0.000000 
0.000000 -2.256300 0.000000 
-0.000000 -2.256300 0.000000 
0.000000 -2.256300 0.000000 
0.000000 -2.256300 0.000000 
0.000000 -2.256300 0.000000 
0.000000 -2.256300 0.000000 
0.000000 -2.256300 0.000000 
0.000000 -2.256300 0.000000 
0.000000 -2.256300 0.000000 
0.000000 -2.256300 0.000000 
0.000000 -2.256300 0.000000 
-0.000000 -2.256300 0.000000 
-0.000000 -2.256300 0.000000 
0.000000 -2.256300 0.000000 
-0.000000 -2.256300 0.000000 
-0.000000 -2.256300 0.000000 
-0.000000 -2.256300 0.000000 
-0.000000 -2.256300 0.000000 
-0.000000 -2.256300 0.000000 
-0.000000 -2.256300 0.000000 
-0.000000 -2.256300 0.000000 
-0.000000 -2.256300 0.000000 
-0.000000 -2.256300 0.000000 
0.000000 -2.256300 0.000000 
0.000000 -2.256300 0.000000 
-0.000000 -2.256300 0.000000 
0.000000 -2.256300 0.000000 
0.000000 -2.256300 0.000000 
-0.000000 -2.256300 0.000000 
-0.000000 -2.256300 0.000000 
0.000000 -2.256300 0.000000 
-0.000000 -2.256300 0.000000 
0.000000 -2.256300 0.000000 
0.000000 -2.256300 0.000000 
0.000000 -2.256300 0.000000 
0.000000 -2.256300 0.000000 
0.000000 -2.256300 0.000000 
0.000000 -2.256300 0.000000 
0.000000 -2.256300 0.000000 
0.000000 -2.256300 0.000000 
0.000000 -2.256300 0.000000 
-0.000000 -2.256300 0.000000 
0.000000 -2.256300 0.000000 
-0.000000 -2.256300 0.000000 
-0.000000 -2.256300 0.000000 
-0.000000 -2.256300 0.000000 
0.000000 -2.256300 0.000000 
-0.000000 -2.256300 0.000000 
-0.000000 -2.256300 0.000000 
-0.000000 -2.256300 0.000000 
0.000000 -2.256300 0.000000 
-0.000000 -2.256300 0.000000 
0.000000 -2.256300 0.000000 
-0.000000 -2.256300 0.000000 
-0.000000 -2.256300 0.000000 
-0.000000 -2.256300 0.000000 
-0.000000 -2.256300 0.000000 
-0.000000 -2.256300 0.000000 
-0.000000 -2.256300 0.000000 
-0.000000 -2.256300 0.000000 
-0.000000 -2.256300 0.000000 
-0.000000 -2.256300 0.000000 
-0.000000 -2.256300 0.000000 
-0.000000 -2.256300 0.000000 
0.000000 -2.256300 0.000000 
-0.000000 -2.256300 0.000000 
0.000000 -2.256300 0.000000 
-0.000000 -2.256300 0.000000 
0.000000 -2.256300 0.000000 
0.000000 -2.256300 0.000000 
-0.000000 -2.256300 0.000000 
-0.000000 -2.256300 0.000000 
-0.000000 -2.256300 0.000000 
0.000000 -2.256300 0.000000 
-0.000000 -2.256300 0.000000 
-0.000000 -2.256300 0.000000 
0.000000 -2.256300 0.000000 
-0.000000 -2.256300 0.000000 
0.000000 -2.256300 0.000000 
0.000000 -2.256300 0.000000 
0.000000 -2.256300 0.000000 
0.000000 -2.256300 0.000000 
0.000000 -2.256300 0.000000 