# vtk DataFile Version 3.0 
vtk output 
ASCII 
DATASET UNSTRUCTURED_GRID 
POINTS 184 float 
-0.028811 -0.000481 0.000000 
-0.337228 -0.812087 0.000000 
0.473826 -0.502861 0.000000 
-0.447224 -0.308104 0.000000 
0.165656 -0.918554 0.000000 
0.222713 -0.055223 0.000000 
-0.284076 -0.094931 0.000000 
-0.100762 -0.937608 0.000000 
0.418839 -0.251059 0.000000 
-0.462804 -0.581365 0.000000 
0.379480 -0.758487 0.000000 
-0.166786 -0.027968 0.000000 
-0.227178 -0.890458 0.000000 
0.463197 -0.373649 0.000000 
-0.473871 -0.445963 0.000000 
0.286252 -0.856267 0.000000 
0.100762 -0.011215 0.000000 
-0.377333 -0.186242 0.000000 
0.039274 -0.947464 0.000000 
0.337021 -0.136815 0.000000 
-0.416046 -0.701590 0.000000 
0.444142 -0.640068 0.000000 
-0.121270 -0.014604 0.000000 
-0.301377 -0.843153 0.000000 
0.473826 -0.455422 0.000000 
-0.460589 -0.353621 0.000000 
0.246344 -0.881914 0.000000 
0.179561 -0.035516 0.000000 
-0.346268 -0.150390 0.000000 
-0.053807 -0.944360 0.000000 
0.368087 -0.172667 0.000000 
-0.449439 -0.626881 0.000000 
0.424436 -0.683219 0.000000 
-0.209938 -0.047675 0.000000 
-0.146279 -0.924244 0.000000 
0.438546 -0.294210 0.000000 
-0.473871 -0.493401 0.000000 
0.322103 -0.825201 0.000000 
0.018627 -0.000481 0.000000 
-0.427517 -0.264953 0.000000 
0.086229 -0.940713 0.000000 
0.301170 -0.105750 0.000000 
-0.368294 -0.776236 0.000000 
0.457507 -0.594551 0.000000 
-0.079407 -0.032226 0.000000 
0.369154 -0.217800 0.000000 
0.048715 -0.028837 0.000000 
0.205703 -0.874326 0.000000 
-0.167159 -0.888560 0.000000 
-0.366567 -0.734928 0.000000 
0.386144 -0.698809 0.000000 
-0.305135 -0.146220 0.000000 
-0.387078 -0.245269 0.000000 
0.425252 -0.333358 0.000000 
0.140413 -0.048810 0.000000 
0.111975 -0.908364 0.000000 
-0.260069 -0.841426 0.000000 
-0.413756 -0.647762 0.000000 
0.439780 -0.552326 0.000000 
0.326273 -0.784068 0.000000 
-0.014533 -0.920805 0.000000 
-0.225527 -0.085967 0.000000 
-0.442908 -0.395847 0.000000 
-0.445123 -0.529680 0.000000 
0.255396 -0.104333 0.000000 
0.445470 -0.425335 0.000000 
-0.079333 -0.088500 0.000000 
-0.130417 -0.131310 0.000000 
-0.191597 -0.126692 0.000000 
-0.111867 -0.189918 0.000000 
-0.224051 -0.181213 0.000000 
-0.171272 -0.218212 0.000000 
-0.055594 -0.204146 0.000000 
-0.279041 -0.191777 0.000000 
-0.040187 -0.259868 0.000000 
-0.015041 -0.162942 0.000000 
-0.296573 -0.251041 0.000000 
-0.349226 -0.281326 0.000000 
-0.351226 -0.347030 0.000000 
-0.254824 -0.289796 0.000000 
-0.391103 -0.396351 0.000000 
-0.370336 -0.455955 0.000000 
-0.284940 -0.346982 0.000000 
-0.395089 -0.515448 0.000000 
-0.360392 -0.561623 0.000000 
-0.313327 -0.455380 0.000000 
-0.369688 -0.619971 0.000000 
-0.323258 -0.653766 0.000000 
-0.307698 -0.520041 0.000000 
-0.317847 -0.714894 0.000000 
-0.261652 -0.740090 0.000000 
-0.273358 -0.627573 0.000000 
-0.237999 -0.794249 0.000000 
-0.174943 -0.800120 0.000000 
-0.233858 -0.679160 0.000000 
-0.136993 -0.845400 0.000000 
-0.076092 -0.836232 0.000000 
-0.147100 -0.751142 0.000000 
-0.021468 -0.869202 0.000000 
0.034383 -0.843249 0.000000 
-0.085997 -0.773175 0.000000 
0.090783 -0.860806 0.000000 
0.131601 -0.819938 0.000000 
0.025861 -0.786775 0.000000 
0.192839 -0.823268 0.000000 
0.225790 -0.771240 0.000000 
0.089168 -0.772259 0.000000 
0.282731 -0.755517 0.000000 
0.297512 -0.693938 0.000000 
0.190626 -0.723207 0.000000 
0.347718 -0.662811 0.000000 
0.347308 -0.601226 0.000000 
0.236036 -0.676768 0.000000 
0.387714 -0.551848 0.000000 
0.369971 -0.492873 0.000000 
0.294872 -0.580651 0.000000 
0.395378 -0.439545 0.000000 
0.360736 -0.393326 0.000000 
0.307967 -0.517033 0.000000 
0.372882 -0.338825 0.000000 
0.326072 -0.298805 0.000000 
0.305499 -0.404366 0.000000 
0.320446 -0.237799 0.000000 
0.261463 -0.208763 0.000000 
0.282122 -0.343767 0.000000 
0.233332 -0.151496 0.000000 
0.170485 -0.145543 0.000000 
0.219133 -0.250320 0.000000 
0.132530 -0.100278 0.000000 
0.077667 -0.110135 0.000000 
0.033502 -0.076289 0.000000 
-0.020231 -0.105904 0.000000 
0.166704 -0.211980 0.000000 
0.047676 -0.163190 0.000000 
-0.184513 -0.267531 0.000000 
-0.267808 -0.395728 0.000000 
-0.039895 -0.749672 0.000000 
0.233804 -0.625066 0.000000 
0.278138 -0.474745 0.000000 
0.115242 -0.727557 0.000000 
0.234165 -0.324319 0.000000 
-0.267095 -0.552196 0.000000 
-0.182363 -0.684340 0.000000 
-0.080635 -0.301093 0.000000 
0.015739 -0.274284 0.000000 
-0.141814 -0.303902 0.000000 
-0.170613 -0.361365 0.000000 
-0.215488 -0.400091 0.000000 
-0.205084 -0.463411 0.000000 
-0.129406 -0.398311 0.000000 
-0.218571 -0.523906 0.000000 
-0.148068 -0.455497 0.000000 
-0.174593 -0.570281 0.000000 
-0.076799 -0.364190 0.000000 
-0.155573 -0.632380 0.000000 
-0.126037 -0.540252 0.000000 
-0.074980 -0.566863 0.000000 
-0.112999 -0.485963 0.000000 
-0.052249 -0.469191 0.000000 
-0.031995 -0.522175 0.000000 
-0.034711 -0.404603 0.000000 
0.031192 -0.329918 0.000000 
0.063050 -0.218810 0.000000 
-0.089197 -0.630503 0.000000 
0.009049 -0.388199 0.000000 
0.051424 -0.438095 0.000000 
0.053332 -0.493233 0.000000 
0.098177 -0.408803 0.000000 
0.011239 -0.536077 0.000000 
0.028372 -0.597514 0.000000 
0.017947 -0.656940 0.000000 
0.077740 -0.684829 0.000000 
0.083331 -0.598155 0.000000 
0.117710 -0.640294 0.000000 
0.179025 -0.611364 0.000000 
0.098599 -0.537256 0.000000 
0.165702 -0.419377 0.000000 
0.087920 -0.349983 0.000000 
0.161326 -0.540630 0.000000 
0.191154 -0.361517 0.000000 
0.131959 -0.318667 0.000000 
0.122542 -0.243128 0.000000 
-0.040916 -0.674373 0.000000 
0.197397 -0.481176 0.000000 
CELLS 184 368 
1 0 
1 1 
1 2 
1 3 
1 4 
1 5 
1 6 
1 7 
1 8 
1 9 
1 10 
1 11 
1 12 
1 13 
1 14 
1 15 
1 16 
1 17 
1 18 
1 19 
1 20 
1 21 
1 22 
1 23 
1 24 
1 25 
1 26 
1 27 
1 28 
1 29 
1 30 
1 31 
1 32 
1 33 
1 34 
1 35 
1 36 
1 37 
1 38 
1 39 
1 40 
1 41 
1 42 
1 43 
1 44 
1 45 
1 46 
1 47 
1 48 
1 49 
1 50 
1 51 
1 52 
1 53 
1 54 
1 55 
1 56 
1 57 
1 58 
1 59 
1 60 
1 61 
1 62 
1 63 
1 64 
1 65 
1 66 
1 67 
1 68 
1 69 
1 70 
1 71 
1 72 
1 73 
1 74 
1 75 
1 76 
1 77 
1 78 
1 79 
1 80 
1 81 
1 82 
1 83 
1 84 
1 85 
1 86 
1 87 
1 88 
1 89 
1 90 
1 91 
1 92 
1 93 
1 94 
1 95 
1 96 
1 97 
1 98 
1 99 
1 100 
1 101 
1 102 
1 103 
1 104 
1 105 
1 106 
1 107 
1 108 
1 109 
1 110 
1 111 
1 112 
1 113 
1 114 
1 115 
1 116 
1 117 
1 118 
1 119 
1 120 
1 121 
1 122 
1 123 
1 124 
1 125 
1 126 
1 127 
1 128 
1 129 
1 130 
1 131 
1 132 
1 133 
1 134 
1 135 
1 136 
1 137 
1 138 
1 139 
1 140 
1 141 
1 142 
1 143 
1 144 
1 145 
1 146 
1 147 
1 148 
1 149 
1 150 
1 151 
1 152 
1 153 
1 154 
1 155 
1 156 
1 157 
1 158 
1 159 
1 160 
1 161 
1 162 
1 163 
1 164 
1 165 
1 166 
1 167 
1 168 
1 169 
1 170 
1 171 
1 172 
1 173 
1 174 
1 175 
1 176 
1 177 
1 178 
1 179 
1 180 
1 181 
1 182 
1 183 
CELL_TYPES 184 
1 
1 
1 
1 
1 
1 
1 
1 
1 
1 
1 
1 
1 
1 
1 
1 
1 
1 
1 
1 
1 
1 
1 
1 
1 
1 
1 
1 
1 
1 
1 
1 
1 
1 
1 
1 
1 
1 
1 
1 
1 
1 
1 
1 
1 
1 
1 
1 
1 
1 
1 
1 
1 
1 
1 
1 
1 
1 
1 
1 
1 
1 
1 
1 
1 
1 
1 
1 
1 
1 
1 
1 
1 
1 
1 
1 
1 
1 
1 
1 
1 
1 
1 
1 
1 
1 
1 
1 
1 
1 
1 
1 
1 
1 
1 
1 
1 
1 
1 
1 
1 
1 
1 
1 
1 
1 
1 
1 
1 
1 
1 
1 
1 
1 
1 
1 
1 
1 
1 
1 
1 
1 
1 
1 
1 
1 
1 
1 
1 
1 
1 
1 
1 
1 
1 
1 
1 
1 
1 
1 
1 
1 
1 
1 
1 
1 
1 
1 
1 
1 
1 
1 
1 
1 
1 
1 
1 
1 
1 
1 
1 
1 
1 
1 
1 
1 
1 
1 
1 
1 
1 
1 
1 
1 
1 
1 
1 
1 
1 
1 
1 
1 
1 
1 
POINT_DATA 184 
VECTORS X_GC float 
-0.028811 -0.000481 0.000000 
-0.337228 -0.812087 0.000000 
0.473826 -0.502861 0.000000 
-0.447224 -0.308104 0.000000 
0.165656 -0.918554 0.000000 
0.222713 -0.055223 0.000000 
-0.284076 -0.094931 0.000000 
-0.100762 -0.937608 0.000000 
0.418839 -0.251059 0.000000 
-0.462804 -0.581365 0.000000 
0.379480 -0.758487 0.000000 
-0.166786 -0.027968 0.000000 
-0.227178 -0.890458 0.000000 
0.463197 -0.373649 0.000000 
-0.473871 -0.445963 0.000000 
0.286252 -0.856267 0.000000 
0.100762 -0.011215 0.000000 
-0.377333 -0.186242 0.000000 
0.039274 -0.947464 0.000000 
0.337021 -0.136815 0.000000 
-0.416046 -0.701590 0.000000 
0.444142 -0.640068 0.000000 
-0.121270 -0.014604 0.000000 
-0.301377 -0.843153 0.000000 
0.473826 -0.455422 0.000000 
-0.460589 -0.353621 0.000000 
0.246344 -0.881914 0.000000 
0.179561 -0.035516 0.000000 
-0.346268 -0.150390 0.000000 
-0.053807 -0.944360 0.000000 
0.368087 -0.172667 0.000000 
-0.449439 -0.626881 0.000000 
0.424436 -0.683219 0.000000 
-0.209938 -0.047675 0.000000 
-0.146279 -0.924244 0.000000 
0.438546 -0.294210 0.000000 
-0.473871 -0.493401 0.000000 
0.322103 -0.825201 0.000000 
0.018627 -0.000481 0.000000 
-0.427517 -0.264953 0.000000 
0.086229 -0.940713 0.000000 
0.301170 -0.105750 0.000000 
-0.368294 -0.776236 0.000000 
0.457507 -0.594551 0.000000 
-0.079407 -0.032226 0.000000 
0.369154 -0.217800 0.000000 
0.048715 -0.028837 0.000000 
0.205703 -0.874326 0.000000 
-0.167159 -0.888560 0.000000 
-0.366567 -0.734928 0.000000 
0.386144 -0.698809 0.000000 
-0.305135 -0.146220 0.000000 
-0.387078 -0.245269 0.000000 
0.425252 -0.333358 0.000000 
0.140413 -0.048810 0.000000 
0.111975 -0.908364 0.000000 
-0.260069 -0.841426 0.000000 
-0.413756 -0.647762 0.000000 
0.439780 -0.552326 0.000000 
0.326273 -0.784068 0.000000 
-0.014533 -0.920805 0.000000 
-0.225527 -0.085967 0.000000 
-0.442908 -0.395847 0.000000 
-0.445123 -0.529680 0.000000 
0.255396 -0.104333 0.000000 
0.445470 -0.425335 0.000000 
-0.079333 -0.088500 0.000000 
-0.130417 -0.131310 0.000000 
-0.191597 -0.126692 0.000000 
-0.111867 -0.189918 0.000000 
-0.224051 -0.181213 0.000000 
-0.171272 -0.218212 0.000000 
-0.055594 -0.204146 0.000000 
-0.279041 -0.191777 0.000000 
-0.040187 -0.259868 0.000000 
-0.015041 -0.162942 0.000000 
-0.296573 -0.251041 0.000000 
-0.349226 -0.281326 0.000000 
-0.351226 -0.347030 0.000000 
-0.254824 -0.289796 0.000000 
-0.391103 -0.396351 0.000000 
-0.370336 -0.455955 0.000000 
-0.284940 -0.346982 0.000000 
-0.395089 -0.515448 0.000000 
-0.360392 -0.561623 0.000000 
-0.313327 -0.455380 0.000000 
-0.369688 -0.619971 0.000000 
-0.323258 -0.653766 0.000000 
-0.307698 -0.520041 0.000000 
-0.317847 -0.714894 0.000000 
-0.261652 -0.740090 0.000000 
-0.273358 -0.627573 0.000000 
-0.237999 -0.794249 0.000000 
-0.174943 -0.800120 0.000000 
-0.233858 -0.679160 0.000000 
-0.136993 -0.845400 0.000000 
-0.076092 -0.836232 0.000000 
-0.147100 -0.751142 0.000000 
-0.021468 -0.869202 0.000000 
0.034383 -0.843249 0.000000 
-0.085997 -0.773175 0.000000 
0.090783 -0.860806 0.000000 
0.131601 -0.819938 0.000000 
0.025861 -0.786775 0.000000 
0.192839 -0.823268 0.000000 
0.225790 -0.771240 0.000000 
0.089168 -0.772259 0.000000 
0.282731 -0.755517 0.000000 
0.297512 -0.693938 0.000000 
0.190626 -0.723207 0.000000 
0.347718 -0.662811 0.000000 
0.347308 -0.601226 0.000000 
0.236036 -0.676768 0.000000 
0.387714 -0.551848 0.000000 
0.369971 -0.492873 0.000000 
0.294872 -0.580651 0.000000 
0.395378 -0.439545 0.000000 
0.360736 -0.393326 0.000000 
0.307967 -0.517033 0.000000 
0.372882 -0.338825 0.000000 
0.326072 -0.298805 0.000000 
0.305499 -0.404366 0.000000 
0.320446 -0.237799 0.000000 
0.261463 -0.208763 0.000000 
0.282122 -0.343767 0.000000 
0.233332 -0.151496 0.000000 
0.170485 -0.145543 0.000000 
0.219133 -0.250320 0.000000 
0.132530 -0.100278 0.000000 
0.077667 -0.110135 0.000000 
0.033502 -0.076289 0.000000 
-0.020231 -0.105904 0.000000 
0.166704 -0.211980 0.000000 
0.047676 -0.163190 0.000000 
-0.184513 -0.267531 0.000000 
-0.267808 -0.395728 0.000000 
-0.039895 -0.749672 0.000000 
0.233804 -0.625066 0.000000 
0.278138 -0.474745 0.000000 
0.115242 -0.727557 0.000000 
0.234165 -0.324319 0.000000 
-0.267095 -0.552196 0.000000 
-0.182363 -0.684340 0.000000 
-0.080635 -0.301093 0.000000 
0.015739 -0.274284 0.000000 
-0.141814 -0.303902 0.000000 
-0.170613 -0.361365 0.000000 
-0.215488 -0.400091 0.000000 
-0.205084 -0.463411 0.000000 
-0.129406 -0.398311 0.000000 
-0.218571 -0.523906 0.000000 
-0.148068 -0.455497 0.000000 
-0.174593 -0.570281 0.000000 
-0.076799 -0.364190 0.000000 
-0.155573 -0.632380 0.000000 
-0.126037 -0.540252 0.000000 
-0.074980 -0.566863 0.000000 
-0.112999 -0.485963 0.000000 
-0.052249 -0.469191 0.000000 
-0.031995 -0.522175 0.000000 
-0.034711 -0.404603 0.000000 
0.031192 -0.329918 0.000000 
0.063050 -0.218810 0.000000 
-0.089197 -0.630503 0.000000 
0.009049 -0.388199 0.000000 
0.051424 -0.438095 0.000000 
0.053332 -0.493233 0.000000 
0.098177 -0.408803 0.000000 
0.011239 -0.536077 0.000000 
0.028372 -0.597514 0.000000 
0.017947 -0.656940 0.000000 
0.077740 -0.684829 0.000000 
0.083331 -0.598155 0.000000 
0.117710 -0.640294 0.000000 
0.179025 -0.611364 0.000000 
0.098599 -0.537256 0.000000 
0.165702 -0.419377 0.000000 
0.087920 -0.349983 0.000000 
0.161326 -0.540630 0.000000 
0.191154 -0.361517 0.000000 
0.131959 -0.318667 0.000000 
0.122542 -0.243128 0.000000 
-0.040916 -0.674373 0.000000 
0.197397 -0.481176 0.000000 
VECTORS X_EC float 
-0.807924 -0.996792 0.000000 
-0.751813 0.413914 0.000000 
-0.158839 0.352404 0.000000 
-0.018508 -0.945974 0.000000 
-0.104376 -0.876308 0.000000 
-0.484750 -0.631849 0.000000 
0.893837 -0.367126 0.000000 
-0.328251 -0.749277 0.000000 
0.207737 0.673726 0.000000 
0.085362 0.875765 0.000000 
0.470130 0.056581 0.000000 
0.111910 -0.813543 0.000000 
0.514522 0.936385 0.000000 
-0.087979 -0.509005 0.000000 
0.159142 -0.026912 0.000000 
-0.908345 0.708444 0.000000 
0.328251 -0.925235 0.000000 
-0.484444 0.241611 0.000000 
0.738177 -0.683575 0.000000 
0.753192 -0.087898 0.000000 
-0.226359 -0.322734 0.000000 
0.039052 -0.732879 0.000000 
-0.191535 -0.902643 0.000000 
-0.990822 0.621017 0.000000 
-0.158839 0.036149 0.000000 
0.070591 -0.642529 0.000000 
-0.642294 0.879425 0.000000 
-0.197074 -0.763226 0.000000 
-0.691547 0.002601 0.000000 
-0.641287 -0.704269 0.000000 
0.546089 0.151112 0.000000 
-0.003737 -0.820791 0.000000 
0.170429 -0.445204 0.000000 
0.399586 -0.682166 0.000000 
-0.024807 -0.838376 0.000000 
0.076360 0.961402 0.000000 
0.159142 0.289343 0.000000 
0.852645 0.501341 0.000000 
0.875821 -0.996792 0.000000 
-0.149885 0.766351 0.000000 
0.425140 -0.728583 0.000000 
0.992201 -0.295001 0.000000 
-0.544710 0.174904 0.000000 
-0.050047 0.963676 0.000000 
-0.470623 -0.785163 0.000000 
0.538976 0.452001 0.000000 
0.675236 -0.807755 0.000000 
-0.371350 0.828841 0.000000 
0.114395 0.923733 0.000000 
-0.556219 -0.100481 0.000000 
0.425709 -0.341274 0.000000 
-0.965766 -0.025198 0.000000 
-0.419479 0.635125 0.000000 
0.164988 -0.777611 0.000000 
0.063913 -0.674598 0.000000 
0.253500 -0.944242 0.000000 
0.733793 0.609507 0.000000 
-0.241628 -0.681589 0.000000 
0.068130 0.682172 0.000000 
0.824846 0.227121 0.000000 
-0.903111 -0.861302 0.000000 
0.503515 -0.426886 0.000000 
-0.047282 -0.361022 0.000000 
-0.032511 0.531200 0.000000 
-0.702641 -0.304444 0.000000 
0.030198 -0.164436 0.000000 
-0.471115 -0.409998 0.000000 
-0.130555 -0.124602 0.000000 
0.277311 -0.155388 0.000000 
-0.254217 0.266117 0.000000 
0.493676 0.208084 0.000000 
0.141813 0.454744 0.000000 
-0.629371 0.360973 0.000000 
0.860276 0.278514 0.000000 
-0.732087 0.732453 0.000000 
-0.899724 0.086279 0.000000 
0.977153 0.673606 0.000000 
-0.671826 0.875507 0.000000 
-0.658496 -0.686464 0.000000 
0.698824 0.931974 0.000000 
-0.392645 -0.357663 0.000000 
-0.531093 0.039697 0.000000 
0.899598 -0.686785 0.000000 
-0.366074 0.436323 0.000000 
-0.597389 0.744154 0.000000 
-0.911153 0.035867 0.000000 
-0.535415 -0.866859 0.000000 
-0.844949 -0.641561 0.000000 
-0.948677 0.466938 0.000000 
-0.881021 -0.234037 0.000000 
0.744349 -0.066065 0.000000 
0.822387 -0.816177 0.000000 
0.586663 0.294992 0.000000 
0.166285 0.334134 0.000000 
0.559054 -0.472268 0.000000 
-0.086713 0.635998 0.000000 
-0.492723 0.574881 0.000000 
-0.019331 0.007615 0.000000 
-0.856883 0.794682 0.000000 
0.770780 0.621658 0.000000 
-0.426685 0.154500 0.000000 
0.394783 0.738705 0.000000 
0.122661 0.466255 0.000000 
0.827591 0.245169 0.000000 
-0.285596 0.488456 0.000000 
-0.505268 0.141597 0.000000 
0.405544 0.148391 0.000000 
-0.884872 0.036781 0.000000 
-0.983414 -0.373748 0.000000 
-0.270837 -0.178617 0.000000 
0.681883 -0.581263 0.000000 
0.684612 -0.991824 0.000000 
-0.573571 -0.488211 0.000000 
0.415238 0.678986 0.000000 
0.533524 0.285823 0.000000 
-0.965812 0.871007 0.000000 
0.364144 -0.069702 0.000000 
0.595096 -0.377829 0.000000 
0.946884 0.446889 0.000000 
0.514118 -0.741168 0.000000 
0.826186 0.992033 0.000000 
0.963337 -0.304228 0.000000 
0.863696 0.585329 0.000000 
-0.743089 0.391752 0.000000 
-0.880813 -0.708218 0.000000 
-0.555549 0.009972 0.000000 
-0.136568 -0.029714 0.000000 
-0.460886 0.668798 0.000000 
0.116466 -0.331478 0.000000 
0.482219 -0.265769 0.000000 
0.776650 -0.491410 0.000000 
-0.865130 -0.293972 0.000000 
-0.111363 0.413200 0.000000 
0.682158 0.087933 0.000000 
0.230085 0.783541 0.000000 
0.785388 -0.361814 0.000000 
-0.734034 -0.002189 0.000000 
-0.558696 -0.832895 0.000000 
-0.854255 0.164964 0.000000 
0.231718 -0.149621 0.000000 
-0.561100 -0.837876 0.000000 
0.780632 0.681309 0.000000 
0.215752 -0.437731 0.000000 
-0.462433 -0.992710 0.000000 
0.895071 0.828561 0.000000 
-0.054573 -0.973984 0.000000 
0.137421 -0.590902 0.000000 
0.436584 -0.332725 0.000000 
0.367225 0.089407 0.000000 
-0.137294 -0.344591 0.000000 
0.457138 0.492709 0.000000 
-0.012881 0.036646 0.000000 
0.163955 0.801874 0.000000 
-0.488009 -0.572067 0.000000 
0.037156 -0.784135 0.000000 
-0.159751 0.601683 0.000000 
-0.500136 0.779089 0.000000 
-0.246673 0.239756 0.000000 
-0.651673 0.127942 0.000000 
-0.786702 0.481169 0.000000 
-0.768596 -0.302645 0.000000 
0.792053 -0.800547 0.000000 
0.579669 0.458735 0.000000 
-0.405356 -0.796649 0.000000 
0.939676 -0.412006 0.000000 
0.657172 -0.079370 0.000000 
0.644454 0.288218 0.000000 
0.345486 -0.274649 0.000000 
0.925074 0.573846 0.000000 
0.810853 0.983426 0.000000 
0.880351 -0.620402 0.000000 
0.481737 -0.434471 0.000000 
0.444460 0.987698 0.000000 
0.215264 -0.731371 0.000000 
-0.193502 -0.924239 0.000000 
0.342676 0.581709 0.000000 
-0.104683 -0.204154 0.000000 
0.413868 -0.666783 0.000000 
-0.075508 0.604201 0.000000 
-0.274359 -0.589884 0.000000 
0.120271 -0.875553 0.000000 
0.183054 0.620856 0.000000 
-0.727227 -0.504177 0.000000 
-0.315983 0.207838 0.000000 
CELL_DATA 184 
SCALARS MASS float 
LOOKUP_TABLE default 
0.051252 
0.046008 
0.051531 
0.046188 
0.052854 
0.051531 
0.052854 
0.052854 
0.051531 
0.050859 
0.052854 
0.047395 
0.052854 
0.052854 
0.051434 
0.045995 
0.052854 
0.051281 
0.051530 
0.046441 
0.052854 
0.052854 
0.050612 
0.049065 
0.052975 
0.049197 
0.049245 
0.052975 
0.052990 
0.055938 
0.049713 
0.052094 
0.055938 
0.050456 
0.055938 
0.053198 
0.052878 
0.049051 
0.052807 
0.049481 
0.052974 
0.049465 
0.049257 
0.055938 
0.105225 
0.104629 
0.082126 
0.094264 
0.094771 
0.094259 
0.094771 
0.083366 
0.104047 
0.083092 
0.081316 
0.081315 
0.092719 
0.079469 
0.108073 
0.092710 
0.108073 
0.093129 
0.104035 
0.094961 
0.104398 
0.081316 
0.125285 
0.099128 
0.098320 
0.087841 
0.082650 
0.097481 
0.086914 
0.081921 
0.086680 
0.086680 
0.081485 
0.107769 
0.088711 
0.084874 
0.107874 
0.082612 
0.095190 
0.095229 
0.083942 
0.085089 
0.079923 
0.081132 
0.095301 
0.097917 
0.090576 
0.085268 
0.095896 
0.081062 
0.095454 
0.090083 
0.081027 
0.085251 
0.101961 
0.083022 
0.095445 
0.080604 
0.081018 
0.085240 
0.097826 
0.090495 
0.095435 
0.095845 
0.081023 
0.085241 
0.090072 
0.081024 
0.095436 
0.101966 
0.083028 
0.085242 
0.080610 
0.081024 
0.095437 
0.082345 
0.082694 
0.085242 
0.109264 
0.089885 
0.095437 
0.108636 
0.083028 
0.085242 
0.080610 
0.074817 
0.073569 
0.082490 
0.095437 
0.095617 
0.133784 
0.138292 
0.139667 
0.139695 
0.139694 
0.139689 
0.139693 
0.140105 
0.139774 
0.086622 
0.086622 
0.089038 
0.077179 
0.079159 
0.072465 
0.084345 
0.092656 
0.093083 
0.084037 
0.098826 
0.101847 
0.085968 
0.086444 
0.074619 
0.064825 
0.094138 
0.124406 
0.086607 
0.131576 
0.102571 
0.084703 
0.076503 
0.084191 
0.084191 
0.086793 
0.075696 
0.084714 
0.090949 
0.084009 
0.076569 
0.086383 
0.098391 
0.110757 
0.093222 
0.143196 
0.101090 
0.091038 
0.150913 
0.178131 
0.206980 
SCALARS MASS float 
LOOKUP_TABLE default 
0.051252 
0.046008 
0.051531 
0.046188 
0.052854 
0.051531 
0.052854 
0.052854 
0.051531 
0.050859 
0.052854 
0.047395 
0.052854 
0.052854 
0.051434 
0.045995 
0.052854 
0.051281 
0.051530 
0.046441 
0.052854 
0.052854 
0.050612 
0.049065 
0.052975 
0.049197 
0.049245 
0.052975 
0.052990 
0.055938 
0.049713 
0.052094 
0.055938 
0.050456 
0.055938 
0.053198 
0.052878 
0.049051 
0.052807 
0.049481 
0.052974 
0.049465 
0.049257 
0.055938 
0.105225 
0.104629 
0.082126 
0.094264 
0.094771 
0.094259 
0.094771 
0.083366 
0.104047 
0.083092 
0.081316 
0.081315 
0.092719 
0.079469 
0.108073 
0.092710 
0.108073 
0.093129 
0.104035 
0.094961 
0.104398 
0.081316 
0.125285 
0.099128 
0.098320 
0.087841 
0.082650 
0.097481 
0.086914 
0.081921 
0.086680 
0.086680 
0.081485 
0.107769 
0.088711 
0.084874 
0.107874 
0.082612 
0.095190 
0.095229 
0.083942 
0.085089 
0.079923 
0.081132 
0.095301 
0.097917 
0.090576 
0.085268 
0.095896 
0.081062 
0.095454 
0.090083 
0.081027 
0.085251 
0.101961 
0.083022 
0.095445 
0.080604 
0.081018 
0.085240 
0.097826 
0.090495 
0.095435 
0.095845 
0.081023 
0.085241 
0.090072 
0.081024 
0.095436 
0.101966 
0.083028 
0.085242 
0.080610 
0.081024 
0.095437 
0.082345 
0.082694 
0.085242 
0.109264 
0.089885 
0.095437 
0.108636 
0.083028 
0.085242 
0.080610 
0.074817 
0.073569 
0.082490 
0.095437 
0.095617 
0.133784 
0.138292 
0.139667 
0.139695 
0.139694 
0.139689 
0.139693 
0.140105 
0.139774 
0.086622 
0.086622 
0.089038 
0.077179 
0.079159 
0.072465 
0.084345 
0.092656 
0.093083 
0.084037 
0.098826 
0.101847 
0.085968 
0.086444 
0.074619 
0.064825 
0.094138 
0.124406 
0.086607 
0.131576 
0.102571 
0.084703 
0.076503 
0.084191 
0.084191 
0.086793 
0.075696 
0.084714 
0.090949 
0.084009 
0.076569 
0.086383 
0.098391 
0.110757 
0.093222 
0.143196 
0.101090 
0.091038 
0.150913 
0.178131 
0.206980 
SCALARS DENSITY float 
LOOKUP_TABLE default 
20.000000 
20.000000 
20.000000 
20.000000 
20.000000 
20.000000 
20.000000 
20.000000 
20.000000 
20.000000 
20.000000 
20.000000 
20.000000 
20.000000 
20.000000 
20.000000 
20.000000 
20.000000 
20.000000 
20.000000 
20.000000 
20.000000 
20.000000 
20.000000 
20.000000 
20.000000 
20.000000 
20.000000 
20.000000 
20.000000 
20.000000 
20.000000 
20.000000 
20.000000 
20.000000 
20.000000 
20.000000 
20.000000 
20.000000 
20.000000 
20.000000 
20.000000 
20.000000 
20.000000 
20.000000 
20.000000 
20.000000 
20.000000 
20.000000 
20.000000 
20.000000 
20.000000 
20.000000 
20.000000 
20.000000 
20.000000 
20.000000 
20.000000 
20.000000 
20.000000 
20.000000 
20.000000 
20.000000 
20.000000 
20.000000 
20.000000 
20.000000 
20.000000 
20.000000 
20.000000 
20.000000 
20.000000 
20.000000 
20.000000 
20.000000 
20.000000 
20.000000 
20.000000 
20.000000 
20.000000 
20.000000 
20.000000 
20.000000 
20.000000 
20.000000 
20.000000 
20.000000 
20.000000 
20.000000 
20.000000 
20.000000 
20.000000 
20.000000 
20.000000 
20.000000 
20.000000 
20.000000 
20.000000 
20.000000 
20.000000 
20.000000 
20.000000 
20.000000 
20.000000 
20.000000 
20.000000 
20.000000 
20.000000 
20.000000 
20.000000 
20.000000 
20.000000 
20.000000 
20.000000 
20.000000 
20.000000 
20.000000 
20.000000 
20.000000 
20.000000 
20.000000 
20.000000 
20.000000 
20.000000 
20.000000 
20.000000 
20.000000 
20.000000 
20.000000 
20.000000 
20.000000 
20.000000 
20.000000 
20.000000 
20.000000 
20.000000 
20.000000 
20.000000 
20.000000 
20.000000 
20.000000 
20.000000 
20.000000 
20.000000 
20.000000 
20.000000 
20.000000 
20.000000 
20.000000 
20.000000 
20.000000 
20.000000 
20.000000 
20.000000 
20.000000 
20.000000 
20.000000 
20.000000 
20.000000 
20.000000 
20.000000 
20.000000 
20.000000 
20.000000 
20.000000 
20.000000 
20.000000 
20.000000 
20.000000 
20.000000 
20.000000 
20.000000 
20.000000 
20.000000 
20.000000 
20.000000 
20.000000 
20.000000 
20.000000 
20.000000 
20.000000 
20.000000 
20.000000 
20.000000 
SCALARS ELEM_i float 
LOOKUP_TABLE default 
209 
227 
168 
228 
186 
189 
209 
206 
169 
228 
167 
209 
207 
168 
228 
187 
189 
229 
186 
169 
227 
167 
209 
227 
168 
228 
187 
189 
229 
206 
169 
227 
167 
209 
206 
169 
228 
167 
189 
229 
186 
169 
227 
168 
209 
169 
189 
187 
207 
227 
167 
229 
229 
168 
189 
186 
207 
227 
168 
167 
206 
209 
228 
228 
189 
168 
209 
209 
209 
209 
209 
209 
209 
209 
209 
209 
209 
229 
228 
209 
228 
228 
208 
228 
228 
228 
227 
227 
228 
227 
207 
207 
207 
207 
207 
207 
207 
207 
207 
187 
207 
187 
187 
187 
187 
187 
187 
187 
187 
187 
167 
167 
187 
168 
168 
188 
168 
168 
168 
168 
169 
168 
169 
189 
188 
189 
189 
189 
189 
189 
189 
209 
189 
189 
209 
208 
207 
187 
188 
187 
188 
208 
207 
208 
189 
208 
208 
208 
208 
208 
208 
208 
208 
208 
207 
208 
208 
208 
208 
208 
208 
188 
189 
207 
188 
188 
188 
188 
188 
188 
187 
187 
188 
187 
187 
188 
188 
188 
188 
188 
188 
189 
207 
188 
VECTORS VELOCITY float 
-0.000000 -3.041100 0.000000 
0.000000 -3.041100 0.000000 
-0.000000 -3.041100 0.000000 
-0.000000 -3.041100 0.000000 
0.000000 -3.041100 0.000000 
-0.000000 -3.041100 0.000000 
0.000000 -3.041100 0.000000 
0.000000 -3.041100 0.000000 
0.000000 -3.041100 0.000000 
-0.000000 -3.041100 0.000000 
0.000000 -3.041100 0.000000 
0.000000 -3.041100 0.000000 
0.000000 -3.041100 0.000000 
0.000000 -3.041100 0.000000 
-0.000000 -3.041100 0.000000 
-0.000000 -3.041100 0.000000 
-0.000000 -3.041100 0.000000 
-0.000000 -3.041100 0.000000 
0.000000 -3.041100 0.000000 
0.000000 -3.041100 0.000000 
-0.000000 -3.041100 0.000000 
-0.000000 -3.041100 0.000000 
0.000000 -3.041100 0.000000 
0.000000 -3.041100 0.000000 
0.000000 -3.041100 0.000000 
0.000000 -3.041100 0.000000 
0.000000 -3.041100 0.000000 
-0.000000 -3.041100 0.000000 
-0.000000 -3.041100 0.000000 
0.000000 -3.041100 0.000000 
0.000000 -3.041100 0.000000 
-0.000000 -3.041100 0.000000 
-0.000000 -3.041100 0.000000 
-0.000000 -3.041100 0.000000 
0.000000 -3.041100 0.000000 
0.000000 -3.041100 0.000000 
-0.000000 -3.041100 0.000000 
0.000000 -3.041100 0.000000 
-0.000000 -3.041100 0.000000 
-0.000000 -3.041100 0.000000 
0.000000 -3.041100 0.000000 
-0.000000 -3.041100 0.000000 
-0.000000 -3.041100 0.000000 
-0.000000 -3.041100 0.000000 
0.000000 -3.041100 0.000000 
0.000000 -3.041100 0.000000 
0.000000 -3.041100 0.000000 
0.000000 -3.041100 0.000000 
0.000000 -3.041100 0.000000 
-0.000000 -3.041100 0.000000 
0.000000 -3.041100 0.000000 
0.000000 -3.041100 0.000000 
-0.000000 -3.041100 0.000000 
-0.000000 -3.041100 0.000000 
-0.000000 -3.041100 0.000000 
0.000000 -3.041100 0.000000 
0.000000 -3.041100 0.000000 
-0.000000 -3.041100 0.000000 
-0.000000 -3.041100 0.000000 
0.000000 -3.041100 0.000000 
0.000000 -3.041100 0.000000 
-0.000000 -3.041100 0.000000 
-0.000000 -3.041100 0.000000 
-0.000000 -3.041100 0.000000 
-0.000000 -3.041100 0.000000 
0.000000 -3.041100 0.000000 
-0.000000 -3.041100 0.000000 
0.000000 -3.041100 0.000000 
0.000000 -3.041100 0.000000 
0.000000 -3.041100 0.000000 
0.000000 -3.041100 0.000000 
0.000000 -3.041100 0.000000 
0.000000 -3.041100 0.000000 
0.000000 -3.041100 0.000000 
0.000000 -3.041100 0.000000 
-0.000000 -3.041100 0.000000 
0.000000 -3.041100 0.000000 
0.000000 -3.041100 0.000000 
0.000000 -3.041100 0.000000 
0.000000 -3.041100 0.000000 
-0.000000 -3.041100 0.000000 
-0.000000 -3.041100 0.000000 
0.000000 -3.041100 0.000000 
-0.000000 -3.041100 0.000000 
-0.000000 -3.041100 0.000000 
-0.000000 -3.041100 0.000000 
-0.000000 -3.041100 0.000000 
-0.000000 -3.041100 0.000000 
-0.000000 -3.041100 0.000000 
-0.000000 -3.041100 0.000000 
-0.000000 -3.041100 0.000000 
-0.000000 -3.041100 0.000000 
-0.000000 -3.041100 0.000000 
0.000000 -3.041100 0.000000 
-0.000000 -3.041100 0.000000 
0.000000 -3.041100 0.000000 
0.000000 -3.041100 0.000000 
0.000000 -3.041100 0.000000 
0.000000 -3.041100 0.000000 
0.000000 -3.041100 0.000000 
0.000000 -3.041100 0.000000 
0.000000 -3.041100 0.000000 
0.000000 -3.041100 0.000000 
0.000000 -3.041100 0.000000 
0.000000 -3.041100 0.000000 
0.000000 -3.041100 0.000000 
0.000000 -3.041100 0.000000 
0.000000 -3.041100 0.000000 
0.000000 -3.041100 0.000000 
0.000000 -3.041100 0.000000 
-0.000000 -3.041100 0.000000 
0.000000 -3.041100 0.000000 
0.000000 -3.041100 0.000000 
0.000000 -3.041100 0.000000 
-0.000000 -3.041100 0.000000 
0.000000 -3.041100 0.000000 
0.000000 -3.041100 0.000000 
-0.000000 -3.041100 0.000000 
0.000000 -3.041100 0.000000 
-0.000000 -3.041100 0.000000 
-0.000000 -3.041100 0.000000 
-0.000000 -3.041100 0.000000 
-0.000000 -3.041100 0.000000 
-0.000000 -3.041100 0.000000 
-0.000000 -3.041100 0.000000 
-0.000000 -3.041100 0.000000 
-0.000000 -3.041100 0.000000 
-0.000000 -3.041100 0.000000 
-0.000000 -3.041100 0.000000 
-0.000000 -3.041100 0.000000 
-0.000000 -3.041100 0.000000 
-0.000000 -3.041100 0.000000 
-0.000000 -3.041100 0.000000 
-0.000000 -3.041100 0.000000 
0.000000 -3.041100 0.000000 
-0.000000 -3.041100 0.000000 
0.000000 -3.041100 0.000000 
0.000000 -3.041100 0.000000 
0.000000 -3.041100 0.000000 
0.000000 -3.041100 0.000000 
-0.000000 -3.041100 0.000000 
-0.000000 -3.041100 0.000000 
-0.000000 -3.041100 0.000000 
0.000000 -3.041100 0.000000 
0.000000 -3.041100 0.000000 
0.000000 -3.041100 0.000000 
0.000000 -3.041100 0.000000 
0.000000 -3.041100 0.000000 
-0.000000 -3.041100 0.000000 
0.000000 -3.041100 0.000000 
-0.000000 -3.041100 0.000000 
-0.000000 -3.041100 0.000000 
-0.000000 -3.041100 0.000000 
0.000000 -3.041100 0.000000 
-0.000000 -3.041100 0.000000 
-0.000000 -3.041100 0.000000 
-0.000000 -3.041100 0.000000 
-0.000000 -3.041100 0.000000 
0.000000 -3.041100 0.000000 
0.000000 -3.041100 0.000000 
0.000000 -3.041100 0.000000 
0.000000 -3.041100 0.000000 
-0.000000 -3.041100 0.000000 
-0.000000 -3.041100 0.000000 
0.000000 -3.041100 0.000000 
0.000000 -3.041100 0.000000 
0.000000 -3.041100 0.000000 
0.000000 -3.041100 0.000000 
0.000000 -3.041100 0.000000 
0.000000 -3.041100 0.000000 
0.000000 -3.041100 0.000000 