# vtk DataFile Version 3.0 
vtk output 
ASCII 
DATASET UNSTRUCTURED_GRID 
POINTS 184 float 
-0.028811 -0.096423 0.000000 
-0.337228 -0.908029 0.000000 
0.473826 -0.598802 0.000000 
-0.447224 -0.404046 0.000000 
0.165656 -1.014496 0.000000 
0.222713 -0.151164 0.000000 
-0.284076 -0.190873 0.000000 
-0.100762 -1.033550 0.000000 
0.418839 -0.347001 0.000000 
-0.462804 -0.677306 0.000000 
0.379480 -0.854429 0.000000 
-0.166786 -0.123910 0.000000 
-0.227178 -0.986399 0.000000 
0.463197 -0.469591 0.000000 
-0.473871 -0.541905 0.000000 
0.286252 -0.952208 0.000000 
0.100762 -0.107157 0.000000 
-0.377333 -0.282183 0.000000 
0.039274 -1.043406 0.000000 
0.337021 -0.232757 0.000000 
-0.416046 -0.797532 0.000000 
0.444142 -0.736010 0.000000 
-0.121270 -0.110545 0.000000 
-0.301377 -0.939094 0.000000 
0.473826 -0.551364 0.000000 
-0.460589 -0.449562 0.000000 
0.246344 -0.977855 0.000000 
0.179561 -0.131458 0.000000 
-0.346268 -0.246332 0.000000 
-0.053807 -1.040301 0.000000 
0.368087 -0.268609 0.000000 
-0.449439 -0.722823 0.000000 
0.424436 -0.779161 0.000000 
-0.209938 -0.143617 0.000000 
-0.146279 -1.020185 0.000000 
0.438546 -0.390152 0.000000 
-0.473871 -0.589343 0.000000 
0.322103 -0.921143 0.000000 
0.018627 -0.096423 0.000000 
-0.427517 -0.360894 0.000000 
0.086229 -1.036654 0.000000 
0.301170 -0.201692 0.000000 
-0.368294 -0.872177 0.000000 
0.457507 -0.690493 0.000000 
-0.079407 -0.128167 0.000000 
0.369154 -0.313742 0.000000 
0.048715 -0.124779 0.000000 
0.205703 -0.970268 0.000000 
-0.167159 -0.984502 0.000000 
-0.366567 -0.830870 0.000000 
0.386144 -0.794751 0.000000 
-0.305135 -0.242162 0.000000 
-0.387078 -0.341210 0.000000 
0.425252 -0.429300 0.000000 
0.140413 -0.144752 0.000000 
0.111975 -1.004306 0.000000 
-0.260069 -0.937368 0.000000 
-0.413756 -0.743703 0.000000 
0.439780 -0.648268 0.000000 
0.326273 -0.880010 0.000000 
-0.014533 -1.016746 0.000000 
-0.225527 -0.181909 0.000000 
-0.442908 -0.491789 0.000000 
-0.445123 -0.625622 0.000000 
0.255396 -0.200275 0.000000 
0.445470 -0.521276 0.000000 
-0.079333 -0.184442 0.000000 
-0.130417 -0.227251 0.000000 
-0.191597 -0.222634 0.000000 
-0.111867 -0.285859 0.000000 
-0.224051 -0.277154 0.000000 
-0.171272 -0.314153 0.000000 
-0.055594 -0.300088 0.000000 
-0.279041 -0.287719 0.000000 
-0.040187 -0.355810 0.000000 
-0.015041 -0.258884 0.000000 
-0.296573 -0.346983 0.000000 
-0.349226 -0.377268 0.000000 
-0.351226 -0.442972 0.000000 
-0.254824 -0.385738 0.000000 
-0.391103 -0.492292 0.000000 
-0.370336 -0.551896 0.000000 
-0.284940 -0.442924 0.000000 
-0.395089 -0.611390 0.000000 
-0.360392 -0.657565 0.000000 
-0.313327 -0.551322 0.000000 
-0.369688 -0.715913 0.000000 
-0.323258 -0.749708 0.000000 
-0.307698 -0.615983 0.000000 
-0.317847 -0.810836 0.000000 
-0.261652 -0.836032 0.000000 
-0.273358 -0.723515 0.000000 
-0.237999 -0.890191 0.000000 
-0.174943 -0.896062 0.000000 
-0.233858 -0.775102 0.000000 
-0.136993 -0.941341 0.000000 
-0.076092 -0.932174 0.000000 
-0.147100 -0.847084 0.000000 
-0.021468 -0.965144 0.000000 
0.034383 -0.939191 0.000000 
-0.085997 -0.869117 0.000000 
0.090783 -0.956748 0.000000 
0.131601 -0.915880 0.000000 
0.025861 -0.882717 0.000000 
0.192839 -0.919210 0.000000 
0.225790 -0.867181 0.000000 
0.089168 -0.868200 0.000000 
0.282731 -0.851459 0.000000 
0.297512 -0.789880 0.000000 
0.190626 -0.819149 0.000000 
0.347718 -0.758752 0.000000 
0.347308 -0.697168 0.000000 
0.236036 -0.772710 0.000000 
0.387714 -0.647790 0.000000 
0.369971 -0.588815 0.000000 
0.294872 -0.676593 0.000000 
0.395378 -0.535486 0.000000 
0.360736 -0.489268 0.000000 
0.307967 -0.612975 0.000000 
0.372882 -0.434767 0.000000 
0.326072 -0.394747 0.000000 
0.305499 -0.500308 0.000000 
0.320446 -0.333741 0.000000 
0.261463 -0.304705 0.000000 
0.282122 -0.439709 0.000000 
0.233332 -0.247438 0.000000 
0.170485 -0.241485 0.000000 
0.219133 -0.346262 0.000000 
0.132530 -0.196220 0.000000 
0.077667 -0.206076 0.000000 
0.033502 -0.172230 0.000000 
-0.020231 -0.201846 0.000000 
0.166704 -0.307922 0.000000 
0.047676 -0.259132 0.000000 
-0.184513 -0.363473 0.000000 
-0.267808 -0.491670 0.000000 
-0.039895 -0.845614 0.000000 
0.233804 -0.721008 0.000000 
0.278138 -0.570686 0.000000 
0.115242 -0.823499 0.000000 
0.234165 -0.420260 0.000000 
-0.267095 -0.648138 0.000000 
-0.182363 -0.780282 0.000000 
-0.080635 -0.397035 0.000000 
0.015739 -0.370226 0.000000 
-0.141814 -0.399844 0.000000 
-0.170613 -0.457307 0.000000 
-0.215488 -0.496033 0.000000 
-0.205084 -0.559353 0.000000 
-0.129406 -0.494253 0.000000 
-0.218571 -0.619848 0.000000 
-0.148068 -0.551439 0.000000 
-0.174593 -0.666223 0.000000 
-0.076799 -0.460132 0.000000 
-0.155573 -0.728322 0.000000 
-0.126037 -0.636194 0.000000 
-0.074980 -0.662805 0.000000 
-0.112999 -0.581905 0.000000 
-0.052249 -0.565133 0.000000 
-0.031995 -0.618117 0.000000 
-0.034711 -0.500545 0.000000 
0.031192 -0.425860 0.000000 
0.063050 -0.314752 0.000000 
-0.089197 -0.726444 0.000000 
0.009049 -0.484141 0.000000 
0.051424 -0.534036 0.000000 
0.053332 -0.589174 0.000000 
0.098177 -0.504744 0.000000 
0.011239 -0.632019 0.000000 
0.028372 -0.693456 0.000000 
0.017947 -0.752882 0.000000 
0.077740 -0.780771 0.000000 
0.083331 -0.694096 0.000000 
0.117710 -0.736236 0.000000 
0.179025 -0.707306 0.000000 
0.098599 -0.633198 0.000000 
0.165702 -0.515319 0.000000 
0.087920 -0.445924 0.000000 
0.161326 -0.636572 0.000000 
0.191154 -0.457459 0.000000 
0.131959 -0.414609 0.000000 
0.122542 -0.339070 0.000000 
-0.040916 -0.770315 0.000000 
0.197397 -0.577117 0.000000 
CELLS 184 368 
1 0 
1 1 
1 2 
1 3 
1 4 
1 5 
1 6 
1 7 
1 8 
1 9 
1 10 
1 11 
1 12 
1 13 
1 14 
1 15 
1 16 
1 17 
1 18 
1 19 
1 20 
1 21 
1 22 
1 23 
1 24 
1 25 
1 26 
1 27 
1 28 
1 29 
1 30 
1 31 
1 32 
1 33 
1 34 
1 35 
1 36 
1 37 
1 38 
1 39 
1 40 
1 41 
1 42 
1 43 
1 44 
1 45 
1 46 
1 47 
1 48 
1 49 
1 50 
1 51 
1 52 
1 53 
1 54 
1 55 
1 56 
1 57 
1 58 
1 59 
1 60 
1 61 
1 62 
1 63 
1 64 
1 65 
1 66 
1 67 
1 68 
1 69 
1 70 
1 71 
1 72 
1 73 
1 74 
1 75 
1 76 
1 77 
1 78 
1 79 
1 80 
1 81 
1 82 
1 83 
1 84 
1 85 
1 86 
1 87 
1 88 
1 89 
1 90 
1 91 
1 92 
1 93 
1 94 
1 95 
1 96 
1 97 
1 98 
1 99 
1 100 
1 101 
1 102 
1 103 
1 104 
1 105 
1 106 
1 107 
1 108 
1 109 
1 110 
1 111 
1 112 
1 113 
1 114 
1 115 
1 116 
1 117 
1 118 
1 119 
1 120 
1 121 
1 122 
1 123 
1 124 
1 125 
1 126 
1 127 
1 128 
1 129 
1 130 
1 131 
1 132 
1 133 
1 134 
1 135 
1 136 
1 137 
1 138 
1 139 
1 140 
1 141 
1 142 
1 143 
1 144 
1 145 
1 146 
1 147 
1 148 
1 149 
1 150 
1 151 
1 152 
1 153 
1 154 
1 155 
1 156 
1 157 
1 158 
1 159 
1 160 
1 161 
1 162 
1 163 
1 164 
1 165 
1 166 
1 167 
1 168 
1 169 
1 170 
1 171 
1 172 
1 173 
1 174 
1 175 
1 176 
1 177 
1 178 
1 179 
1 180 
1 181 
1 182 
1 183 
CELL_TYPES 184 
1 
1 
1 
1 
1 
1 
1 
1 
1 
1 
1 
1 
1 
1 
1 
1 
1 
1 
1 
1 
1 
1 
1 
1 
1 
1 
1 
1 
1 
1 
1 
1 
1 
1 
1 
1 
1 
1 
1 
1 
1 
1 
1 
1 
1 
1 
1 
1 
1 
1 
1 
1 
1 
1 
1 
1 
1 
1 
1 
1 
1 
1 
1 
1 
1 
1 
1 
1 
1 
1 
1 
1 
1 
1 
1 
1 
1 
1 
1 
1 
1 
1 
1 
1 
1 
1 
1 
1 
1 
1 
1 
1 
1 
1 
1 
1 
1 
1 
1 
1 
1 
1 
1 
1 
1 
1 
1 
1 
1 
1 
1 
1 
1 
1 
1 
1 
1 
1 
1 
1 
1 
1 
1 
1 
1 
1 
1 
1 
1 
1 
1 
1 
1 
1 
1 
1 
1 
1 
1 
1 
1 
1 
1 
1 
1 
1 
1 
1 
1 
1 
1 
1 
1 
1 
1 
1 
1 
1 
1 
1 
1 
1 
1 
1 
1 
1 
1 
1 
1 
1 
1 
1 
1 
1 
1 
1 
1 
1 
1 
1 
1 
1 
1 
1 
POINT_DATA 184 
VECTORS X_GC float 
-0.028811 -0.096423 0.000000 
-0.337228 -0.908029 0.000000 
0.473826 -0.598802 0.000000 
-0.447224 -0.404046 0.000000 
0.165656 -1.014496 0.000000 
0.222713 -0.151164 0.000000 
-0.284076 -0.190873 0.000000 
-0.100762 -1.033550 0.000000 
0.418839 -0.347001 0.000000 
-0.462804 -0.677306 0.000000 
0.379480 -0.854429 0.000000 
-0.166786 -0.123910 0.000000 
-0.227178 -0.986399 0.000000 
0.463197 -0.469591 0.000000 
-0.473871 -0.541905 0.000000 
0.286252 -0.952208 0.000000 
0.100762 -0.107157 0.000000 
-0.377333 -0.282183 0.000000 
0.039274 -1.043406 0.000000 
0.337021 -0.232757 0.000000 
-0.416046 -0.797532 0.000000 
0.444142 -0.736010 0.000000 
-0.121270 -0.110545 0.000000 
-0.301377 -0.939094 0.000000 
0.473826 -0.551364 0.000000 
-0.460589 -0.449562 0.000000 
0.246344 -0.977855 0.000000 
0.179561 -0.131458 0.000000 
-0.346268 -0.246332 0.000000 
-0.053807 -1.040301 0.000000 
0.368087 -0.268609 0.000000 
-0.449439 -0.722823 0.000000 
0.424436 -0.779161 0.000000 
-0.209938 -0.143617 0.000000 
-0.146279 -1.020185 0.000000 
0.438546 -0.390152 0.000000 
-0.473871 -0.589343 0.000000 
0.322103 -0.921143 0.000000 
0.018627 -0.096423 0.000000 
-0.427517 -0.360894 0.000000 
0.086229 -1.036654 0.000000 
0.301170 -0.201692 0.000000 
-0.368294 -0.872177 0.000000 
0.457507 -0.690493 0.000000 
-0.079407 -0.128167 0.000000 
0.369154 -0.313742 0.000000 
0.048715 -0.124779 0.000000 
0.205703 -0.970268 0.000000 
-0.167159 -0.984502 0.000000 
-0.366567 -0.830870 0.000000 
0.386144 -0.794751 0.000000 
-0.305135 -0.242162 0.000000 
-0.387078 -0.341210 0.000000 
0.425252 -0.429300 0.000000 
0.140413 -0.144752 0.000000 
0.111975 -1.004306 0.000000 
-0.260069 -0.937368 0.000000 
-0.413756 -0.743703 0.000000 
0.439780 -0.648268 0.000000 
0.326273 -0.880010 0.000000 
-0.014533 -1.016746 0.000000 
-0.225527 -0.181909 0.000000 
-0.442908 -0.491789 0.000000 
-0.445123 -0.625622 0.000000 
0.255396 -0.200275 0.000000 
0.445470 -0.521276 0.000000 
-0.079333 -0.184442 0.000000 
-0.130417 -0.227251 0.000000 
-0.191597 -0.222634 0.000000 
-0.111867 -0.285859 0.000000 
-0.224051 -0.277154 0.000000 
-0.171272 -0.314153 0.000000 
-0.055594 -0.300088 0.000000 
-0.279041 -0.287719 0.000000 
-0.040187 -0.355810 0.000000 
-0.015041 -0.258884 0.000000 
-0.296573 -0.346983 0.000000 
-0.349226 -0.377268 0.000000 
-0.351226 -0.442972 0.000000 
-0.254824 -0.385738 0.000000 
-0.391103 -0.492292 0.000000 
-0.370336 -0.551896 0.000000 
-0.284940 -0.442924 0.000000 
-0.395089 -0.611390 0.000000 
-0.360392 -0.657565 0.000000 
-0.313327 -0.551322 0.000000 
-0.369688 -0.715913 0.000000 
-0.323258 -0.749708 0.000000 
-0.307698 -0.615983 0.000000 
-0.317847 -0.810836 0.000000 
-0.261652 -0.836032 0.000000 
-0.273358 -0.723515 0.000000 
-0.237999 -0.890191 0.000000 
-0.174943 -0.896062 0.000000 
-0.233858 -0.775102 0.000000 
-0.136993 -0.941341 0.000000 
-0.076092 -0.932174 0.000000 
-0.147100 -0.847084 0.000000 
-0.021468 -0.965144 0.000000 
0.034383 -0.939191 0.000000 
-0.085997 -0.869117 0.000000 
0.090783 -0.956748 0.000000 
0.131601 -0.915880 0.000000 
0.025861 -0.882717 0.000000 
0.192839 -0.919210 0.000000 
0.225790 -0.867181 0.000000 
0.089168 -0.868200 0.000000 
0.282731 -0.851459 0.000000 
0.297512 -0.789880 0.000000 
0.190626 -0.819149 0.000000 
0.347718 -0.758752 0.000000 
0.347308 -0.697168 0.000000 
0.236036 -0.772710 0.000000 
0.387714 -0.647790 0.000000 
0.369971 -0.588815 0.000000 
0.294872 -0.676593 0.000000 
0.395378 -0.535486 0.000000 
0.360736 -0.489268 0.000000 
0.307967 -0.612975 0.000000 
0.372882 -0.434767 0.000000 
0.326072 -0.394747 0.000000 
0.305499 -0.500308 0.000000 
0.320446 -0.333741 0.000000 
0.261463 -0.304705 0.000000 
0.282122 -0.439709 0.000000 
0.233332 -0.247438 0.000000 
0.170485 -0.241485 0.000000 
0.219133 -0.346262 0.000000 
0.132530 -0.196220 0.000000 
0.077667 -0.206076 0.000000 
0.033502 -0.172230 0.000000 
-0.020231 -0.201846 0.000000 
0.166704 -0.307922 0.000000 
0.047676 -0.259132 0.000000 
-0.184513 -0.363473 0.000000 
-0.267808 -0.491670 0.000000 
-0.039895 -0.845614 0.000000 
0.233804 -0.721008 0.000000 
0.278138 -0.570686 0.000000 
0.115242 -0.823499 0.000000 
0.234165 -0.420260 0.000000 
-0.267095 -0.648138 0.000000 
-0.182363 -0.780282 0.000000 
-0.080635 -0.397035 0.000000 
0.015739 -0.370226 0.000000 
-0.141814 -0.399844 0.000000 
-0.170613 -0.457307 0.000000 
-0.215488 -0.496033 0.000000 
-0.205084 -0.559353 0.000000 
-0.129406 -0.494253 0.000000 
-0.218571 -0.619848 0.000000 
-0.148068 -0.551439 0.000000 
-0.174593 -0.666223 0.000000 
-0.076799 -0.460132 0.000000 
-0.155573 -0.728322 0.000000 
-0.126037 -0.636194 0.000000 
-0.074980 -0.662805 0.000000 
-0.112999 -0.581905 0.000000 
-0.052249 -0.565133 0.000000 
-0.031995 -0.618117 0.000000 
-0.034711 -0.500545 0.000000 
0.031192 -0.425860 0.000000 
0.063050 -0.314752 0.000000 
-0.089197 -0.726444 0.000000 
0.009049 -0.484141 0.000000 
0.051424 -0.534036 0.000000 
0.053332 -0.589174 0.000000 
0.098177 -0.504744 0.000000 
0.011239 -0.632019 0.000000 
0.028372 -0.693456 0.000000 
0.017947 -0.752882 0.000000 
0.077740 -0.780771 0.000000 
0.083331 -0.694096 0.000000 
0.117710 -0.736236 0.000000 
0.179025 -0.707306 0.000000 
0.098599 -0.633198 0.000000 
0.165702 -0.515319 0.000000 
0.087920 -0.445924 0.000000 
0.161326 -0.636572 0.000000 
0.191154 -0.457459 0.000000 
0.131959 -0.414609 0.000000 
0.122542 -0.339070 0.000000 
-0.040916 -0.770315 0.000000 
0.197397 -0.577117 0.000000 
VECTORS X_EC float 
-0.807924 -0.357180 0.000000 
-0.751813 -0.946474 0.000000 
-0.158839 0.992016 0.000000 
-0.018508 -0.306362 0.000000 
-0.104376 -0.236696 0.000000 
-0.484750 0.007763 0.000000 
0.893837 0.272486 0.000000 
-0.328251 -0.109665 0.000000 
0.207737 -0.686662 0.000000 
0.085362 -0.484623 0.000000 
0.470130 0.696193 0.000000 
0.111910 -0.173931 0.000000 
0.514522 -0.424003 0.000000 
-0.087979 0.130607 0.000000 
0.159142 0.612700 0.000000 
-0.908345 -0.651944 0.000000 
0.328251 -0.285623 0.000000 
-0.484444 0.881223 0.000000 
0.738177 -0.043963 0.000000 
0.753192 0.551714 0.000000 
-0.226359 0.316878 0.000000 
0.039052 -0.093267 0.000000 
-0.191535 -0.263031 0.000000 
-0.990822 -0.739371 0.000000 
-0.158839 0.675761 0.000000 
0.070591 -0.002917 0.000000 
-0.642294 -0.480963 0.000000 
-0.197074 -0.123614 0.000000 
-0.691547 0.642213 0.000000 
-0.641287 -0.064657 0.000000 
0.546089 0.790724 0.000000 
-0.003737 -0.181179 0.000000 
0.170429 0.194408 0.000000 
0.399586 -0.042554 0.000000 
-0.024807 -0.198764 0.000000 
0.076360 -0.398986 0.000000 
0.159142 0.928955 0.000000 
0.852645 -0.859047 0.000000 
0.875821 -0.357180 0.000000 
-0.149885 -0.594037 0.000000 
0.425140 -0.088971 0.000000 
0.992201 0.344611 0.000000 
-0.544710 0.814516 0.000000 
-0.050047 -0.396712 0.000000 
-0.470623 -0.145551 0.000000 
0.538976 -0.908387 0.000000 
0.675236 -0.168143 0.000000 
-0.371350 -0.531547 0.000000 
0.114395 -0.436655 0.000000 
-0.556219 0.539131 0.000000 
0.425709 0.298338 0.000000 
-0.965766 0.614414 0.000000 
-0.419479 -0.725263 0.000000 
0.164988 -0.137999 0.000000 
0.063913 -0.034986 0.000000 
0.253500 -0.304630 0.000000 
0.733793 -0.750881 0.000000 
-0.241628 -0.041977 0.000000 
0.068130 -0.678216 0.000000 
0.824846 0.866733 0.000000 
-0.903111 -0.221690 0.000000 
0.503515 0.212726 0.000000 
-0.047282 0.278590 0.000000 
-0.032511 -0.829188 0.000000 
-0.702641 0.335168 0.000000 
0.030198 0.475176 0.000000 
-0.471115 0.229614 0.000000 
-0.130555 0.515010 0.000000 
0.277311 0.484224 0.000000 
-0.254217 0.905729 0.000000 
0.493676 0.847696 0.000000 
0.141813 -0.905644 0.000000 
-0.629371 -0.999415 0.000000 
0.860276 0.918126 0.000000 
-0.732087 -0.627935 0.000000 
-0.899724 0.725891 0.000000 
0.977153 -0.686782 0.000000 
-0.671826 -0.484881 0.000000 
-0.658496 -0.046852 0.000000 
0.698824 -0.428414 0.000000 
-0.392645 0.281949 0.000000 
-0.531093 0.679309 0.000000 
0.899598 -0.047173 0.000000 
-0.366074 -0.924065 0.000000 
-0.597389 -0.616234 0.000000 
-0.911153 0.675479 0.000000 
-0.535415 -0.227247 0.000000 
-0.844949 -0.001949 0.000000 
-0.948677 -0.893450 0.000000 
-0.881021 0.405575 0.000000 
0.744349 0.573547 0.000000 
0.822387 -0.176565 0.000000 
0.586663 0.934604 0.000000 
0.166285 0.973746 0.000000 
0.559054 0.167344 0.000000 
-0.086713 -0.724390 0.000000 
-0.492723 -0.785507 0.000000 
-0.019331 0.647227 0.000000 
-0.856883 -0.565706 0.000000 
0.770780 -0.738730 0.000000 
-0.426685 0.794112 0.000000 
0.394783 -0.621683 0.000000 
0.122661 -0.894133 0.000000 
0.827591 0.884781 0.000000 
-0.285596 -0.871932 0.000000 
-0.505268 0.781209 0.000000 
0.405544 0.788003 0.000000 
-0.884872 0.676393 0.000000 
-0.983414 0.265864 0.000000 
-0.270837 0.460995 0.000000 
0.681883 0.058349 0.000000 
0.684612 -0.352212 0.000000 
-0.573571 0.151401 0.000000 
0.415238 -0.681402 0.000000 
0.533524 0.925435 0.000000 
-0.965812 -0.489381 0.000000 
0.364144 0.569910 0.000000 
0.595096 0.261783 0.000000 
0.946884 -0.913499 0.000000 
0.514118 -0.101556 0.000000 
0.826186 -0.368355 0.000000 
0.963337 0.335384 0.000000 
0.863696 -0.775059 0.000000 
-0.743089 -0.968636 0.000000 
-0.880813 -0.068606 0.000000 
-0.555549 0.649584 0.000000 
-0.136568 0.609898 0.000000 
-0.460886 -0.691590 0.000000 
0.116466 0.308134 0.000000 
0.482219 0.373843 0.000000 
0.776650 0.148202 0.000000 
-0.865130 0.345640 0.000000 
-0.111363 -0.947188 0.000000 
0.682158 0.727545 0.000000 
0.230085 -0.576847 0.000000 
0.785388 0.277798 0.000000 
-0.734034 0.637423 0.000000 
-0.558696 -0.193283 0.000000 
-0.854255 0.804576 0.000000 
0.231718 0.489991 0.000000 
-0.561100 -0.198264 0.000000 
0.780632 -0.679079 0.000000 
0.215752 0.201881 0.000000 
-0.462433 -0.353098 0.000000 
0.895071 -0.531827 0.000000 
-0.054573 -0.334372 0.000000 
0.137421 0.048710 0.000000 
0.436584 0.306887 0.000000 
0.367225 0.729019 0.000000 
-0.137294 0.295021 0.000000 
0.457138 -0.867679 0.000000 
-0.012881 0.676258 0.000000 
0.163955 -0.558514 0.000000 
-0.488009 0.067545 0.000000 
0.037156 -0.144523 0.000000 
-0.159751 -0.758705 0.000000 
-0.500136 -0.581299 0.000000 
-0.246673 0.879368 0.000000 
-0.651673 0.767554 0.000000 
-0.786702 -0.879219 0.000000 
-0.768596 0.336967 0.000000 
0.792053 -0.160935 0.000000 
0.579669 -0.901653 0.000000 
-0.405356 -0.157037 0.000000 
0.939676 0.227606 0.000000 
0.657172 0.560242 0.000000 
0.644454 0.927830 0.000000 
0.345486 0.364963 0.000000 
0.925074 -0.786542 0.000000 
0.810853 -0.376962 0.000000 
0.880351 0.019210 0.000000 
0.481737 0.205141 0.000000 
0.444460 -0.372690 0.000000 
0.215264 -0.091759 0.000000 
-0.193502 -0.284627 0.000000 
0.342676 -0.778679 0.000000 
-0.104683 0.435458 0.000000 
0.413868 -0.027171 0.000000 
-0.075508 -0.756187 0.000000 
-0.274359 0.049728 0.000000 
0.120271 -0.235941 0.000000 
0.183054 -0.739532 0.000000 
-0.727227 0.135435 0.000000 
-0.315983 0.847450 0.000000 
CELL_DATA 184 
SCALARS MASS float 
LOOKUP_TABLE default 
0.051252 
0.046008 
0.051531 
0.046188 
0.052854 
0.051531 
0.052854 
0.052854 
0.051531 
0.050859 
0.052854 
0.047395 
0.052854 
0.052854 
0.051434 
0.045995 
0.052854 
0.051281 
0.051530 
0.046441 
0.052854 
0.052854 
0.050612 
0.049065 
0.052975 
0.049197 
0.049245 
0.052975 
0.052990 
0.055938 
0.049713 
0.052094 
0.055938 
0.050456 
0.055938 
0.053198 
0.052878 
0.049051 
0.052807 
0.049481 
0.052974 
0.049465 
0.049257 
0.055938 
0.105225 
0.104629 
0.082126 
0.094264 
0.094771 
0.094259 
0.094771 
0.083366 
0.104047 
0.083092 
0.081316 
0.081315 
0.092719 
0.079469 
0.108073 
0.092710 
0.108073 
0.093129 
0.104035 
0.094961 
0.104398 
0.081316 
0.125285 
0.099128 
0.098320 
0.087841 
0.082650 
0.097481 
0.086914 
0.081921 
0.086680 
0.086680 
0.081485 
0.107769 
0.088711 
0.084874 
0.107874 
0.082612 
0.095190 
0.095229 
0.083942 
0.085089 
0.079923 
0.081132 
0.095301 
0.097917 
0.090576 
0.085268 
0.095896 
0.081062 
0.095454 
0.090083 
0.081027 
0.085251 
0.101961 
0.083022 
0.095445 
0.080604 
0.081018 
0.085240 
0.097826 
0.090495 
0.095435 
0.095845 
0.081023 
0.085241 
0.090072 
0.081024 
0.095436 
0.101966 
0.083028 
0.085242 
0.080610 
0.081024 
0.095437 
0.082345 
0.082694 
0.085242 
0.109264 
0.089885 
0.095437 
0.108636 
0.083028 
0.085242 
0.080610 
0.074817 
0.073569 
0.082490 
0.095437 
0.095617 
0.133784 
0.138292 
0.139667 
0.139695 
0.139694 
0.139689 
0.139693 
0.140105 
0.139774 
0.086622 
0.086622 
0.089038 
0.077179 
0.079159 
0.072465 
0.084345 
0.092656 
0.093083 
0.084037 
0.098826 
0.101847 
0.085968 
0.086444 
0.074619 
0.064825 
0.094138 
0.124406 
0.086607 
0.131576 
0.102571 
0.084703 
0.076503 
0.084191 
0.084191 
0.086793 
0.075696 
0.084714 
0.090949 
0.084009 
0.076569 
0.086383 
0.098391 
0.110757 
0.093222 
0.143196 
0.101090 
0.091038 
0.150913 
0.178131 
0.206980 
SCALARS MASS float 
LOOKUP_TABLE default 
0.051252 
0.046008 
0.051531 
0.046188 
0.052854 
0.051531 
0.052854 
0.052854 
0.051531 
0.050859 
0.052854 
0.047395 
0.052854 
0.052854 
0.051434 
0.045995 
0.052854 
0.051281 
0.051530 
0.046441 
0.052854 
0.052854 
0.050612 
0.049065 
0.052975 
0.049197 
0.049245 
0.052975 
0.052990 
0.055938 
0.049713 
0.052094 
0.055938 
0.050456 
0.055938 
0.053198 
0.052878 
0.049051 
0.052807 
0.049481 
0.052974 
0.049465 
0.049257 
0.055938 
0.105225 
0.104629 
0.082126 
0.094264 
0.094771 
0.094259 
0.094771 
0.083366 
0.104047 
0.083092 
0.081316 
0.081315 
0.092719 
0.079469 
0.108073 
0.092710 
0.108073 
0.093129 
0.104035 
0.094961 
0.104398 
0.081316 
0.125285 
0.099128 
0.098320 
0.087841 
0.082650 
0.097481 
0.086914 
0.081921 
0.086680 
0.086680 
0.081485 
0.107769 
0.088711 
0.084874 
0.107874 
0.082612 
0.095190 
0.095229 
0.083942 
0.085089 
0.079923 
0.081132 
0.095301 
0.097917 
0.090576 
0.085268 
0.095896 
0.081062 
0.095454 
0.090083 
0.081027 
0.085251 
0.101961 
0.083022 
0.095445 
0.080604 
0.081018 
0.085240 
0.097826 
0.090495 
0.095435 
0.095845 
0.081023 
0.085241 
0.090072 
0.081024 
0.095436 
0.101966 
0.083028 
0.085242 
0.080610 
0.081024 
0.095437 
0.082345 
0.082694 
0.085242 
0.109264 
0.089885 
0.095437 
0.108636 
0.083028 
0.085242 
0.080610 
0.074817 
0.073569 
0.082490 
0.095437 
0.095617 
0.133784 
0.138292 
0.139667 
0.139695 
0.139694 
0.139689 
0.139693 
0.140105 
0.139774 
0.086622 
0.086622 
0.089038 
0.077179 
0.079159 
0.072465 
0.084345 
0.092656 
0.093083 
0.084037 
0.098826 
0.101847 
0.085968 
0.086444 
0.074619 
0.064825 
0.094138 
0.124406 
0.086607 
0.131576 
0.102571 
0.084703 
0.076503 
0.084191 
0.084191 
0.086793 
0.075696 
0.084714 
0.090949 
0.084009 
0.076569 
0.086383 
0.098391 
0.110757 
0.093222 
0.143196 
0.101090 
0.091038 
0.150913 
0.178131 
0.206980 
SCALARS DENSITY float 
LOOKUP_TABLE default 
20.000000 
20.000000 
20.000000 
20.000000 
20.000000 
20.000000 
20.000000 
20.000000 
20.000000 
20.000000 
20.000000 
20.000000 
20.000000 
20.000000 
20.000000 
20.000000 
20.000000 
20.000000 
20.000000 
20.000000 
20.000000 
20.000000 
20.000000 
20.000000 
20.000000 
20.000000 
20.000000 
20.000000 
20.000000 
20.000000 
20.000000 
20.000000 
20.000000 
20.000000 
20.000000 
20.000000 
20.000000 
20.000000 
20.000000 
20.000000 
20.000000 
20.000000 
20.000000 
20.000000 
20.000000 
20.000000 
20.000000 
20.000000 
20.000000 
20.000000 
20.000000 
20.000000 
20.000000 
20.000000 
20.000000 
20.000000 
20.000000 
20.000000 
20.000000 
20.000000 
20.000000 
20.000000 
20.000000 
20.000000 
20.000000 
20.000000 
20.000000 
20.000000 
20.000000 
20.000000 
20.000000 
20.000000 
20.000000 
20.000000 
20.000000 
20.000000 
20.000000 
20.000000 
20.000000 
20.000000 
20.000000 
20.000000 
20.000000 
20.000000 
20.000000 
20.000000 
20.000000 
20.000000 
20.000000 
20.000000 
20.000000 
20.000000 
20.000000 
20.000000 
20.000000 
20.000000 
20.000000 
20.000000 
20.000000 
20.000000 
20.000000 
20.000000 
20.000000 
20.000000 
20.000000 
20.000000 
20.000000 
20.000000 
20.000000 
20.000000 
20.000000 
20.000000 
20.000000 
20.000000 
20.000000 
20.000000 
20.000000 
20.000000 
20.000000 
20.000000 
20.000000 
20.000000 
20.000000 
20.000000 
20.000000 
20.000000 
20.000000 
20.000000 
20.000000 
20.000000 
20.000000 
20.000000 
20.000000 
20.000000 
20.000000 
20.000000 
20.000000 
20.000000 
20.000000 
20.000000 
20.000000 
20.000000 
20.000000 
20.000000 
20.000000 
20.000000 
20.000000 
20.000000 
20.000000 
20.000000 
20.000000 
20.000000 
20.000000 
20.000000 
20.000000 
20.000000 
20.000000 
20.000000 
20.000000 
20.000000 
20.000000 
20.000000 
20.000000 
20.000000 
20.000000 
20.000000 
20.000000 
20.000000 
20.000000 
20.000000 
20.000000 
20.000000 
20.000000 
20.000000 
20.000000 
20.000000 
20.000000 
20.000000 
20.000000 
20.000000 
20.000000 
20.000000 
20.000000 
20.000000 
SCALARS ELEM_i float 
LOOKUP_TABLE default 
209 
226 
168 
228 
186 
189 
209 
206 
168 
227 
167 
209 
206 
168 
228 
186 
189 
229 
186 
169 
227 
167 
209 
226 
168 
228 
186 
189 
229 
206 
169 
227 
167 
209 
206 
168 
228 
166 
189 
228 
186 
169 
227 
167 
209 
168 
189 
186 
206 
227 
167 
229 
228 
168 
189 
186 
206 
227 
167 
167 
206 
209 
228 
227 
189 
168 
209 
209 
209 
209 
209 
208 
208 
209 
208 
209 
208 
228 
228 
208 
228 
228 
208 
227 
227 
228 
227 
227 
227 
227 
207 
207 
207 
207 
207 
206 
206 
207 
206 
186 
207 
186 
186 
187 
186 
187 
187 
187 
187 
187 
167 
167 
187 
167 
168 
187 
168 
168 
167 
168 
168 
168 
168 
188 
188 
189 
189 
188 
189 
189 
189 
209 
188 
189 
208 
208 
207 
187 
188 
187 
188 
207 
207 
208 
188 
208 
208 
208 
208 
208 
207 
208 
207 
208 
207 
207 
207 
208 
208 
207 
208 
188 
188 
207 
188 
188 
188 
188 
187 
187 
187 
187 
187 
187 
187 
187 
188 
188 
187 
188 
188 
188 
207 
188 
VECTORS VELOCITY float 
0.000000 -3.335400 0.000000 
0.000000 -3.335400 0.000000 
-0.000000 -3.335400 0.000000 
-0.000000 -3.335400 0.000000 
-0.000000 -3.335400 0.000000 
0.000000 -3.335400 0.000000 
-0.000000 -3.335400 0.000000 
-0.000000 -3.335400 0.000000 
0.000000 -3.335400 0.000000 
0.000000 -3.335400 0.000000 
0.000000 -3.335400 0.000000 
0.000000 -3.335400 0.000000 
0.000000 -3.335400 0.000000 
-0.000000 -3.335400 0.000000 
0.000000 -3.335400 0.000000 
0.000000 -3.335400 0.000000 
-0.000000 -3.335400 0.000000 
-0.000000 -3.335400 0.000000 
-0.000000 -3.335400 0.000000 
0.000000 -3.335400 0.000000 
0.000000 -3.335400 0.000000 
-0.000000 -3.335400 0.000000 
0.000000 -3.335400 0.000000 
0.000000 -3.335400 0.000000 
-0.000000 -3.335400 0.000000 
0.000000 -3.335400 0.000000 
0.000000 -3.335400 0.000000 
0.000000 -3.335400 0.000000 
-0.000000 -3.335400 0.000000 
-0.000000 -3.335400 0.000000 
-0.000000 -3.335400 0.000000 
0.000000 -3.335400 0.000000 
-0.000000 -3.335400 0.000000 
-0.000000 -3.335400 0.000000 
-0.000000 -3.335400 0.000000 
0.000000 -3.335400 0.000000 
0.000000 -3.335400 0.000000 
0.000000 -3.335400 0.000000 
-0.000000 -3.335400 0.000000 
-0.000000 -3.335400 0.000000 
-0.000000 -3.335400 0.000000 
-0.000000 -3.335400 0.000000 
0.000000 -3.335400 0.000000 
-0.000000 -3.335400 0.000000 
0.000000 -3.335400 0.000000 
-0.000000 -3.335400 0.000000 
0.000000 -3.335400 0.000000 
-0.000000 -3.335400 0.000000 
-0.000000 -3.335400 0.000000 
0.000000 -3.335400 0.000000 
-0.000000 -3.335400 0.000000 
-0.000000 -3.335400 0.000000 
-0.000000 -3.335400 0.000000 
-0.000000 -3.335400 0.000000 
0.000000 -3.335400 0.000000 
-0.000000 -3.335400 0.000000 
0.000000 -3.335400 0.000000 
0.000000 -3.335400 0.000000 
-0.000000 -3.335400 0.000000 
0.000000 -3.335400 0.000000 
-0.000000 -3.335400 0.000000 
-0.000000 -3.335400 0.000000 
0.000000 -3.335400 0.000000 
0.000000 -3.335400 0.000000 
-0.000000 -3.335400 0.000000 
-0.000000 -3.335400 0.000000 
0.000000 -3.335400 0.000000 
0.000000 -3.335400 0.000000 
-0.000000 -3.335400 0.000000 
0.000000 -3.335400 0.000000 
-0.000000 -3.335400 0.000000 
0.000000 -3.335400 0.000000 
0.000000 -3.335400 0.000000 
-0.000000 -3.335400 0.000000 
0.000000 -3.335400 0.000000 
0.000000 -3.335400 0.000000 
-0.000000 -3.335400 0.000000 
-0.000000 -3.335400 0.000000 
-0.000000 -3.335400 0.000000 
-0.000000 -3.335400 0.000000 
0.000000 -3.335400 0.000000 
0.000000 -3.335400 0.000000 
-0.000000 -3.335400 0.000000 
0.000000 -3.335400 0.000000 
0.000000 -3.335400 0.000000 
-0.000000 -3.335400 0.000000 
0.000000 -3.335400 0.000000 
0.000000 -3.335400 0.000000 
-0.000000 -3.335400 0.000000 
0.000000 -3.335400 0.000000 
0.000000 -3.335400 0.000000 
-0.000000 -3.335400 0.000000 
-0.000000 -3.335400 0.000000 
-0.000000 -3.335400 0.000000 
-0.000000 -3.335400 0.000000 
-0.000000 -3.335400 0.000000 
-0.000000 -3.335400 0.000000 
-0.000000 -3.335400 0.000000 
-0.000000 -3.335400 0.000000 
-0.000000 -3.335400 0.000000 
-0.000000 -3.335400 0.000000 
-0.000000 -3.335400 0.000000 
-0.000000 -3.335400 0.000000 
-0.000000 -3.335400 0.000000 
0.000000 -3.335400 0.000000 
0.000000 -3.335400 0.000000 
-0.000000 -3.335400 0.000000 
0.000000 -3.335400 0.000000 
0.000000 -3.335400 0.000000 
-0.000000 -3.335400 0.000000 
-0.000000 -3.335400 0.000000 
-0.000000 -3.335400 0.000000 
-0.000000 -3.335400 0.000000 
-0.000000 -3.335400 0.000000 
-0.000000 -3.335400 0.000000 
-0.000000 -3.335400 0.000000 
-0.000000 -3.335400 0.000000 
-0.000000 -3.335400 0.000000 
-0.000000 -3.335400 0.000000 
-0.000000 -3.335400 0.000000 
-0.000000 -3.335400 0.000000 
-0.000000 -3.335400 0.000000 
-0.000000 -3.335400 0.000000 
0.000000 -3.335400 0.000000 
0.000000 -3.335400 0.000000 
0.000000 -3.335400 0.000000 
0.000000 -3.335400 0.000000 
0.000000 -3.335400 0.000000 
0.000000 -3.335400 0.000000 
0.000000 -3.335400 0.000000 
0.000000 -3.335400 0.000000 
0.000000 -3.335400 0.000000 
0.000000 -3.335400 0.000000 
0.000000 -3.335400 0.000000 
0.000000 -3.335400 0.000000 
-0.000000 -3.335400 0.000000 
-0.000000 -3.335400 0.000000 
-0.000000 -3.335400 0.000000 
-0.000000 -3.335400 0.000000 
-0.000000 -3.335400 0.000000 
0.000000 -3.335400 0.000000 
-0.000000 -3.335400 0.000000 
-0.000000 -3.335400 0.000000 
0.000000 -3.335400 0.000000 
0.000000 -3.335400 0.000000 
0.000000 -3.335400 0.000000 
0.000000 -3.335400 0.000000 
-0.000000 -3.335400 0.000000 
-0.000000 -3.335400 0.000000 
0.000000 -3.335400 0.000000 
-0.000000 -3.335400 0.000000 
0.000000 -3.335400 0.000000 
0.000000 -3.335400 0.000000 
0.000000 -3.335400 0.000000 
-0.000000 -3.335400 0.000000 
0.000000 -3.335400 0.000000 
0.000000 -3.335400 0.000000 
0.000000 -3.335400 0.000000 
0.000000 -3.335400 0.000000 
0.000000 -3.335400 0.000000 
0.000000 -3.335400 0.000000 
0.000000 -3.335400 0.000000 
0.000000 -3.335400 0.000000 
-0.000000 -3.335400 0.000000 
0.000000 -3.335400 0.000000 
0.000000 -3.335400 0.000000 
0.000000 -3.335400 0.000000 
0.000000 -3.335400 0.000000 
0.000000 -3.335400 0.000000 
-0.000000 -3.335400 0.000000 
-0.000000 -3.335400 0.000000 