# vtk DataFile Version 3.0 
vtk output 
ASCII 
DATASET UNSTRUCTURED_GRID 
POINTS 184 float 
-0.028811 -0.362706 0.000000 
-0.337228 -1.174311 0.000000 
0.473826 -0.865085 0.000000 
-0.447224 -0.670328 0.000000 
0.165656 -1.280778 0.000000 
0.222713 -0.417447 0.000000 
-0.284076 -0.457156 0.000000 
-0.100762 -1.299833 0.000000 
0.418839 -0.613283 0.000000 
-0.462804 -0.943589 0.000000 
0.379480 -1.120712 0.000000 
-0.166786 -0.390193 0.000000 
-0.227178 -1.252682 0.000000 
0.463197 -0.735874 0.000000 
-0.473871 -0.808188 0.000000 
0.286252 -1.218491 0.000000 
0.100762 -0.373439 0.000000 
-0.377333 -0.548466 0.000000 
0.039274 -1.309688 0.000000 
0.337021 -0.499040 0.000000 
-0.416046 -1.063814 0.000000 
0.444142 -1.002293 0.000000 
-0.121270 -0.376828 0.000000 
-0.301377 -1.205377 0.000000 
0.473826 -0.817647 0.000000 
-0.460589 -0.715845 0.000000 
0.246344 -1.244138 0.000000 
0.179561 -0.397741 0.000000 
-0.346268 -0.512615 0.000000 
-0.053807 -1.306584 0.000000 
0.368087 -0.534891 0.000000 
-0.449439 -0.989106 0.000000 
0.424436 -1.045444 0.000000 
-0.209938 -0.409900 0.000000 
-0.146279 -1.286468 0.000000 
0.438546 -0.656435 0.000000 
-0.473871 -0.855626 0.000000 
0.322103 -1.187426 0.000000 
0.018627 -0.362706 0.000000 
-0.427517 -0.627177 0.000000 
0.086229 -1.302937 0.000000 
0.301170 -0.467974 0.000000 
-0.368294 -1.138460 0.000000 
0.457507 -0.956776 0.000000 
-0.079407 -0.394450 0.000000 
0.369154 -0.580025 0.000000 
0.048715 -0.391061 0.000000 
0.205703 -1.236551 0.000000 
-0.167159 -1.250784 0.000000 
-0.366567 -1.097152 0.000000 
0.386144 -1.061033 0.000000 
-0.305135 -0.508445 0.000000 
-0.387078 -0.607493 0.000000 
0.425252 -0.695583 0.000000 
0.140413 -0.411035 0.000000 
0.111975 -1.270588 0.000000 
-0.260069 -1.203651 0.000000 
-0.413756 -1.009986 0.000000 
0.439780 -0.914550 0.000000 
0.326273 -1.146293 0.000000 
-0.014533 -1.283029 0.000000 
-0.225527 -0.448192 0.000000 
-0.442908 -0.758071 0.000000 
-0.445123 -0.891904 0.000000 
0.255396 -0.466558 0.000000 
0.445470 -0.787559 0.000000 
-0.079333 -0.450725 0.000000 
-0.130417 -0.493534 0.000000 
-0.191597 -0.488916 0.000000 
-0.111867 -0.552142 0.000000 
-0.224051 -0.543437 0.000000 
-0.171272 -0.580436 0.000000 
-0.055594 -0.566370 0.000000 
-0.279041 -0.554001 0.000000 
-0.040187 -0.622092 0.000000 
-0.015041 -0.525166 0.000000 
-0.296573 -0.613265 0.000000 
-0.349226 -0.643550 0.000000 
-0.351226 -0.709255 0.000000 
-0.254824 -0.652021 0.000000 
-0.391103 -0.758575 0.000000 
-0.370336 -0.818179 0.000000 
-0.284940 -0.709207 0.000000 
-0.395089 -0.877673 0.000000 
-0.360392 -0.923848 0.000000 
-0.313327 -0.817605 0.000000 
-0.369688 -0.982196 0.000000 
-0.323258 -1.015990 0.000000 
-0.307698 -0.882265 0.000000 
-0.317847 -1.077119 0.000000 
-0.261652 -1.102315 0.000000 
-0.273358 -0.989798 0.000000 
-0.237999 -1.156473 0.000000 
-0.174943 -1.162345 0.000000 
-0.233858 -1.041384 0.000000 
-0.136993 -1.207624 0.000000 
-0.076092 -1.198457 0.000000 
-0.147100 -1.113367 0.000000 
-0.021468 -1.231427 0.000000 
0.034383 -1.205473 0.000000 
-0.085997 -1.135399 0.000000 
0.090783 -1.223030 0.000000 
0.131601 -1.182163 0.000000 
0.025861 -1.149000 0.000000 
0.192839 -1.185493 0.000000 
0.225790 -1.133464 0.000000 
0.089168 -1.134483 0.000000 
0.282731 -1.117742 0.000000 
0.297512 -1.056162 0.000000 
0.190626 -1.085432 0.000000 
0.347718 -1.025035 0.000000 
0.347308 -0.963451 0.000000 
0.236036 -1.038993 0.000000 
0.387714 -0.914072 0.000000 
0.369971 -0.855098 0.000000 
0.294872 -0.942875 0.000000 
0.395378 -0.801769 0.000000 
0.360736 -0.755550 0.000000 
0.307967 -0.879258 0.000000 
0.372882 -0.701049 0.000000 
0.326072 -0.661029 0.000000 
0.305499 -0.766590 0.000000 
0.320446 -0.600024 0.000000 
0.261463 -0.570987 0.000000 
0.282122 -0.705992 0.000000 
0.233332 -0.513720 0.000000 
0.170485 -0.507767 0.000000 
0.219133 -0.612544 0.000000 
0.132530 -0.462503 0.000000 
0.077667 -0.472359 0.000000 
0.033502 -0.438513 0.000000 
-0.020231 -0.468129 0.000000 
0.166704 -0.574204 0.000000 
0.047676 -0.525414 0.000000 
-0.184513 -0.629756 0.000000 
-0.267808 -0.757952 0.000000 
-0.039895 -1.111896 0.000000 
0.233804 -0.987290 0.000000 
0.278138 -0.836969 0.000000 
0.115242 -1.089781 0.000000 
0.234165 -0.686543 0.000000 
-0.267095 -0.914421 0.000000 
-0.182363 -1.046565 0.000000 
-0.080635 -0.663318 0.000000 
0.015739 -0.636509 0.000000 
-0.141814 -0.666127 0.000000 
-0.170613 -0.723589 0.000000 
-0.215488 -0.762316 0.000000 
-0.205084 -0.825635 0.000000 
-0.129406 -0.760536 0.000000 
-0.218571 -0.886131 0.000000 
-0.148068 -0.817721 0.000000 
-0.174593 -0.932506 0.000000 
-0.076799 -0.726414 0.000000 
-0.155573 -0.994604 0.000000 
-0.126037 -0.902477 0.000000 
-0.074980 -0.929088 0.000000 
-0.112999 -0.848188 0.000000 
-0.052249 -0.831416 0.000000 
-0.031995 -0.884400 0.000000 
-0.034711 -0.766828 0.000000 
0.031192 -0.692142 0.000000 
0.063050 -0.581035 0.000000 
-0.089197 -0.992727 0.000000 
0.009049 -0.750424 0.000000 
0.051424 -0.800319 0.000000 
0.053332 -0.855457 0.000000 
0.098177 -0.771027 0.000000 
0.011239 -0.898301 0.000000 
0.028372 -0.959738 0.000000 
0.017947 -1.019164 0.000000 
0.077740 -1.047054 0.000000 
0.083331 -0.960379 0.000000 
0.117710 -1.002519 0.000000 
0.179025 -0.973589 0.000000 
0.098599 -0.899481 0.000000 
0.165702 -0.781601 0.000000 
0.087920 -0.712207 0.000000 
0.161326 -0.902855 0.000000 
0.191154 -0.723742 0.000000 
0.131959 -0.680891 0.000000 
0.122542 -0.605353 0.000000 
-0.040916 -1.036598 0.000000 
0.197397 -0.843400 0.000000 
CELLS 184 368 
1 0 
1 1 
1 2 
1 3 
1 4 
1 5 
1 6 
1 7 
1 8 
1 9 
1 10 
1 11 
1 12 
1 13 
1 14 
1 15 
1 16 
1 17 
1 18 
1 19 
1 20 
1 21 
1 22 
1 23 
1 24 
1 25 
1 26 
1 27 
1 28 
1 29 
1 30 
1 31 
1 32 
1 33 
1 34 
1 35 
1 36 
1 37 
1 38 
1 39 
1 40 
1 41 
1 42 
1 43 
1 44 
1 45 
1 46 
1 47 
1 48 
1 49 
1 50 
1 51 
1 52 
1 53 
1 54 
1 55 
1 56 
1 57 
1 58 
1 59 
1 60 
1 61 
1 62 
1 63 
1 64 
1 65 
1 66 
1 67 
1 68 
1 69 
1 70 
1 71 
1 72 
1 73 
1 74 
1 75 
1 76 
1 77 
1 78 
1 79 
1 80 
1 81 
1 82 
1 83 
1 84 
1 85 
1 86 
1 87 
1 88 
1 89 
1 90 
1 91 
1 92 
1 93 
1 94 
1 95 
1 96 
1 97 
1 98 
1 99 
1 100 
1 101 
1 102 
1 103 
1 104 
1 105 
1 106 
1 107 
1 108 
1 109 
1 110 
1 111 
1 112 
1 113 
1 114 
1 115 
1 116 
1 117 
1 118 
1 119 
1 120 
1 121 
1 122 
1 123 
1 124 
1 125 
1 126 
1 127 
1 128 
1 129 
1 130 
1 131 
1 132 
1 133 
1 134 
1 135 
1 136 
1 137 
1 138 
1 139 
1 140 
1 141 
1 142 
1 143 
1 144 
1 145 
1 146 
1 147 
1 148 
1 149 
1 150 
1 151 
1 152 
1 153 
1 154 
1 155 
1 156 
1 157 
1 158 
1 159 
1 160 
1 161 
1 162 
1 163 
1 164 
1 165 
1 166 
1 167 
1 168 
1 169 
1 170 
1 171 
1 172 
1 173 
1 174 
1 175 
1 176 
1 177 
1 178 
1 179 
1 180 
1 181 
1 182 
1 183 
CELL_TYPES 184 
1 
1 
1 
1 
1 
1 
1 
1 
1 
1 
1 
1 
1 
1 
1 
1 
1 
1 
1 
1 
1 
1 
1 
1 
1 
1 
1 
1 
1 
1 
1 
1 
1 
1 
1 
1 
1 
1 
1 
1 
1 
1 
1 
1 
1 
1 
1 
1 
1 
1 
1 
1 
1 
1 
1 
1 
1 
1 
1 
1 
1 
1 
1 
1 
1 
1 
1 
1 
1 
1 
1 
1 
1 
1 
1 
1 
1 
1 
1 
1 
1 
1 
1 
1 
1 
1 
1 
1 
1 
1 
1 
1 
1 
1 
1 
1 
1 
1 
1 
1 
1 
1 
1 
1 
1 
1 
1 
1 
1 
1 
1 
1 
1 
1 
1 
1 
1 
1 
1 
1 
1 
1 
1 
1 
1 
1 
1 
1 
1 
1 
1 
1 
1 
1 
1 
1 
1 
1 
1 
1 
1 
1 
1 
1 
1 
1 
1 
1 
1 
1 
1 
1 
1 
1 
1 
1 
1 
1 
1 
1 
1 
1 
1 
1 
1 
1 
1 
1 
1 
1 
1 
1 
1 
1 
1 
1 
1 
1 
1 
1 
1 
1 
1 
1 
POINT_DATA 184 
VECTORS X_GC float 
-0.028811 -0.362706 0.000000 
-0.337228 -1.174311 0.000000 
0.473826 -0.865085 0.000000 
-0.447224 -0.670328 0.000000 
0.165656 -1.280778 0.000000 
0.222713 -0.417447 0.000000 
-0.284076 -0.457156 0.000000 
-0.100762 -1.299833 0.000000 
0.418839 -0.613283 0.000000 
-0.462804 -0.943589 0.000000 
0.379480 -1.120712 0.000000 
-0.166786 -0.390193 0.000000 
-0.227178 -1.252682 0.000000 
0.463197 -0.735874 0.000000 
-0.473871 -0.808188 0.000000 
0.286252 -1.218491 0.000000 
0.100762 -0.373439 0.000000 
-0.377333 -0.548466 0.000000 
0.039274 -1.309688 0.000000 
0.337021 -0.499040 0.000000 
-0.416046 -1.063814 0.000000 
0.444142 -1.002293 0.000000 
-0.121270 -0.376828 0.000000 
-0.301377 -1.205377 0.000000 
0.473826 -0.817647 0.000000 
-0.460589 -0.715845 0.000000 
0.246344 -1.244138 0.000000 
0.179561 -0.397741 0.000000 
-0.346268 -0.512615 0.000000 
-0.053807 -1.306584 0.000000 
0.368087 -0.534891 0.000000 
-0.449439 -0.989106 0.000000 
0.424436 -1.045444 0.000000 
-0.209938 -0.409900 0.000000 
-0.146279 -1.286468 0.000000 
0.438546 -0.656435 0.000000 
-0.473871 -0.855626 0.000000 
0.322103 -1.187426 0.000000 
0.018627 -0.362706 0.000000 
-0.427517 -0.627177 0.000000 
0.086229 -1.302937 0.000000 
0.301170 -0.467974 0.000000 
-0.368294 -1.138460 0.000000 
0.457507 -0.956776 0.000000 
-0.079407 -0.394450 0.000000 
0.369154 -0.580025 0.000000 
0.048715 -0.391061 0.000000 
0.205703 -1.236551 0.000000 
-0.167159 -1.250784 0.000000 
-0.366567 -1.097152 0.000000 
0.386144 -1.061033 0.000000 
-0.305135 -0.508445 0.000000 
-0.387078 -0.607493 0.000000 
0.425252 -0.695583 0.000000 
0.140413 -0.411035 0.000000 
0.111975 -1.270588 0.000000 
-0.260069 -1.203651 0.000000 
-0.413756 -1.009986 0.000000 
0.439780 -0.914550 0.000000 
0.326273 -1.146293 0.000000 
-0.014533 -1.283029 0.000000 
-0.225527 -0.448192 0.000000 
-0.442908 -0.758071 0.000000 
-0.445123 -0.891904 0.000000 
0.255396 -0.466558 0.000000 
0.445470 -0.787559 0.000000 
-0.079333 -0.450725 0.000000 
-0.130417 -0.493534 0.000000 
-0.191597 -0.488916 0.000000 
-0.111867 -0.552142 0.000000 
-0.224051 -0.543437 0.000000 
-0.171272 -0.580436 0.000000 
-0.055594 -0.566370 0.000000 
-0.279041 -0.554001 0.000000 
-0.040187 -0.622092 0.000000 
-0.015041 -0.525166 0.000000 
-0.296573 -0.613265 0.000000 
-0.349226 -0.643550 0.000000 
-0.351226 -0.709255 0.000000 
-0.254824 -0.652021 0.000000 
-0.391103 -0.758575 0.000000 
-0.370336 -0.818179 0.000000 
-0.284940 -0.709207 0.000000 
-0.395089 -0.877673 0.000000 
-0.360392 -0.923848 0.000000 
-0.313327 -0.817605 0.000000 
-0.369688 -0.982196 0.000000 
-0.323258 -1.015990 0.000000 
-0.307698 -0.882265 0.000000 
-0.317847 -1.077119 0.000000 
-0.261652 -1.102315 0.000000 
-0.273358 -0.989798 0.000000 
-0.237999 -1.156473 0.000000 
-0.174943 -1.162345 0.000000 
-0.233858 -1.041384 0.000000 
-0.136993 -1.207624 0.000000 
-0.076092 -1.198457 0.000000 
-0.147100 -1.113367 0.000000 
-0.021468 -1.231427 0.000000 
0.034383 -1.205473 0.000000 
-0.085997 -1.135399 0.000000 
0.090783 -1.223030 0.000000 
0.131601 -1.182163 0.000000 
0.025861 -1.149000 0.000000 
0.192839 -1.185493 0.000000 
0.225790 -1.133464 0.000000 
0.089168 -1.134483 0.000000 
0.282731 -1.117742 0.000000 
0.297512 -1.056162 0.000000 
0.190626 -1.085432 0.000000 
0.347718 -1.025035 0.000000 
0.347308 -0.963451 0.000000 
0.236036 -1.038993 0.000000 
0.387714 -0.914072 0.000000 
0.369971 -0.855098 0.000000 
0.294872 -0.942875 0.000000 
0.395378 -0.801769 0.000000 
0.360736 -0.755550 0.000000 
0.307967 -0.879258 0.000000 
0.372882 -0.701049 0.000000 
0.326072 -0.661029 0.000000 
0.305499 -0.766590 0.000000 
0.320446 -0.600024 0.000000 
0.261463 -0.570987 0.000000 
0.282122 -0.705992 0.000000 
0.233332 -0.513720 0.000000 
0.170485 -0.507767 0.000000 
0.219133 -0.612544 0.000000 
0.132530 -0.462503 0.000000 
0.077667 -0.472359 0.000000 
0.033502 -0.438513 0.000000 
-0.020231 -0.468129 0.000000 
0.166704 -0.574204 0.000000 
0.047676 -0.525414 0.000000 
-0.184513 -0.629756 0.000000 
-0.267808 -0.757952 0.000000 
-0.039895 -1.111896 0.000000 
0.233804 -0.987290 0.000000 
0.278138 -0.836969 0.000000 
0.115242 -1.089781 0.000000 
0.234165 -0.686543 0.000000 
-0.267095 -0.914421 0.000000 
-0.182363 -1.046565 0.000000 
-0.080635 -0.663318 0.000000 
0.015739 -0.636509 0.000000 
-0.141814 -0.666127 0.000000 
-0.170613 -0.723589 0.000000 
-0.215488 -0.762316 0.000000 
-0.205084 -0.825635 0.000000 
-0.129406 -0.760536 0.000000 
-0.218571 -0.886131 0.000000 
-0.148068 -0.817721 0.000000 
-0.174593 -0.932506 0.000000 
-0.076799 -0.726414 0.000000 
-0.155573 -0.994604 0.000000 
-0.126037 -0.902477 0.000000 
-0.074980 -0.929088 0.000000 
-0.112999 -0.848188 0.000000 
-0.052249 -0.831416 0.000000 
-0.031995 -0.884400 0.000000 
-0.034711 -0.766828 0.000000 
0.031192 -0.692142 0.000000 
0.063050 -0.581035 0.000000 
-0.089197 -0.992727 0.000000 
0.009049 -0.750424 0.000000 
0.051424 -0.800319 0.000000 
0.053332 -0.855457 0.000000 
0.098177 -0.771027 0.000000 
0.011239 -0.898301 0.000000 
0.028372 -0.959738 0.000000 
0.017947 -1.019164 0.000000 
0.077740 -1.047054 0.000000 
0.083331 -0.960379 0.000000 
0.117710 -1.002519 0.000000 
0.179025 -0.973589 0.000000 
0.098599 -0.899481 0.000000 
0.165702 -0.781601 0.000000 
0.087920 -0.712207 0.000000 
0.161326 -0.902855 0.000000 
0.191154 -0.723742 0.000000 
0.131959 -0.680891 0.000000 
0.122542 -0.605353 0.000000 
-0.040916 -1.036598 0.000000 
0.197397 -0.843400 0.000000 
VECTORS X_EC float 
-0.807924 -0.581962 0.000000 
-0.751813 0.828743 0.000000 
-0.158839 0.767234 0.000000 
-0.018508 -0.531144 0.000000 
-0.104376 -0.461478 0.000000 
-0.484750 -0.217019 0.000000 
0.893837 0.047704 0.000000 
-0.328251 -0.334447 0.000000 
0.207737 -0.911444 0.000000 
0.085362 -0.709406 0.000000 
0.470130 0.471411 0.000000 
0.111910 -0.398714 0.000000 
0.514522 -0.648786 0.000000 
-0.087979 -0.094175 0.000000 
0.159142 0.387917 0.000000 
-0.908345 -0.876726 0.000000 
0.328251 -0.510405 0.000000 
-0.484444 0.656440 0.000000 
0.738177 -0.268745 0.000000 
0.753192 0.326932 0.000000 
-0.226359 0.092096 0.000000 
0.039052 -0.318050 0.000000 
-0.191535 -0.487813 0.000000 
-0.990822 -0.964154 0.000000 
-0.158839 0.450979 0.000000 
0.070591 -0.227699 0.000000 
-0.642294 -0.705746 0.000000 
-0.197074 -0.348397 0.000000 
-0.691547 0.417431 0.000000 
-0.641287 -0.289440 0.000000 
0.546089 0.565942 0.000000 
-0.003737 -0.405961 0.000000 
0.170429 -0.030374 0.000000 
0.399586 -0.267337 0.000000 
-0.024807 -0.423547 0.000000 
0.076360 -0.623769 0.000000 
0.159142 0.704172 0.000000 
0.852645 0.916171 0.000000 
0.875821 -0.581962 0.000000 
-0.149885 -0.818820 0.000000 
0.425140 -0.313753 0.000000 
0.992201 0.119829 0.000000 
-0.544710 0.589734 0.000000 
-0.050047 -0.621495 0.000000 
-0.470623 -0.370333 0.000000 
0.538976 0.866831 0.000000 
0.675236 -0.392925 0.000000 
-0.371350 -0.756329 0.000000 
0.114395 -0.661438 0.000000 
-0.556219 0.314349 0.000000 
0.425709 0.073556 0.000000 
-0.965766 0.389632 0.000000 
-0.419479 -0.950046 0.000000 
0.164988 -0.362781 0.000000 
0.063913 -0.259768 0.000000 
0.253500 -0.529412 0.000000 
0.733793 -0.975663 0.000000 
-0.241628 -0.266759 0.000000 
0.068130 -0.902998 0.000000 
0.824846 0.641951 0.000000 
-0.903111 -0.446473 0.000000 
0.503515 -0.012056 0.000000 
-0.047282 0.053808 0.000000 
-0.032511 0.946029 0.000000 
-0.702641 0.110386 0.000000 
0.030198 0.250394 0.000000 
-0.471115 0.004832 0.000000 
-0.130555 0.290227 0.000000 
0.277311 0.259442 0.000000 
-0.254217 0.680947 0.000000 
0.493676 0.622914 0.000000 
0.141813 0.869573 0.000000 
-0.629371 0.775803 0.000000 
0.860276 0.693343 0.000000 
-0.732087 -0.852717 0.000000 
-0.899724 0.501109 0.000000 
0.977153 -0.911564 0.000000 
-0.671826 -0.709663 0.000000 
-0.658496 -0.271635 0.000000 
0.698824 -0.653197 0.000000 
-0.392645 0.057166 0.000000 
-0.531093 0.454527 0.000000 
0.899598 -0.271956 0.000000 
-0.366074 0.851153 0.000000 
-0.597389 -0.841017 0.000000 
-0.911153 0.450697 0.000000 
-0.535415 -0.452030 0.000000 
-0.844949 -0.226731 0.000000 
-0.948677 0.881768 0.000000 
-0.881021 0.180792 0.000000 
0.744349 0.348765 0.000000 
0.822387 -0.401347 0.000000 
0.586663 0.709821 0.000000 
0.166285 0.748964 0.000000 
0.559054 -0.057439 0.000000 
-0.086713 -0.949172 0.000000 
-0.492723 0.989711 0.000000 
-0.019331 0.422444 0.000000 
-0.856883 -0.790488 0.000000 
0.770780 -0.963512 0.000000 
-0.426685 0.569330 0.000000 
0.394783 -0.846465 0.000000 
0.122661 0.881084 0.000000 
0.827591 0.659999 0.000000 
-0.285596 0.903286 0.000000 
-0.505268 0.556426 0.000000 
0.405544 0.563221 0.000000 
-0.884872 0.451611 0.000000 
-0.983414 0.041082 0.000000 
-0.270837 0.236213 0.000000 
0.681883 -0.166433 0.000000 
0.684612 -0.576994 0.000000 
-0.573571 -0.073382 0.000000 
0.415238 -0.906185 0.000000 
0.533524 0.700653 0.000000 
-0.965812 -0.714164 0.000000 
0.364144 0.345127 0.000000 
0.595096 0.037001 0.000000 
0.946884 0.861719 0.000000 
0.514118 -0.326338 0.000000 
0.826186 -0.593138 0.000000 
0.963337 0.110601 0.000000 
0.863696 -0.999842 0.000000 
-0.743089 0.806582 0.000000 
-0.880813 -0.293389 0.000000 
-0.555549 0.424801 0.000000 
-0.136568 0.385115 0.000000 
-0.460886 -0.916372 0.000000 
0.116466 0.083352 0.000000 
0.482219 0.149060 0.000000 
0.776650 -0.076580 0.000000 
-0.865130 0.120857 0.000000 
-0.111363 0.828029 0.000000 
0.682158 0.502762 0.000000 
0.230085 -0.801629 0.000000 
0.785388 0.053016 0.000000 
-0.734034 0.412641 0.000000 
-0.558696 -0.418066 0.000000 
-0.854255 0.579794 0.000000 
0.231718 0.265209 0.000000 
-0.561100 -0.423046 0.000000 
0.780632 -0.903861 0.000000 
0.215752 -0.022902 0.000000 
-0.462433 -0.577881 0.000000 
0.895071 -0.756609 0.000000 
-0.054573 -0.559154 0.000000 
0.137421 -0.176072 0.000000 
0.436584 0.082104 0.000000 
0.367225 0.504236 0.000000 
-0.137294 0.070239 0.000000 
0.457138 0.907538 0.000000 
-0.012881 0.451475 0.000000 
0.163955 -0.783296 0.000000 
-0.488009 -0.157238 0.000000 
0.037156 -0.369305 0.000000 
-0.159751 -0.983488 0.000000 
-0.500136 -0.806082 0.000000 
-0.246673 0.654586 0.000000 
-0.651673 0.542772 0.000000 
-0.786702 0.895999 0.000000 
-0.768596 0.112185 0.000000 
0.792053 -0.385718 0.000000 
0.579669 0.873565 0.000000 
-0.405356 -0.381819 0.000000 
0.939676 0.002823 0.000000 
0.657172 0.335460 0.000000 
0.644454 0.703047 0.000000 
0.345486 0.140180 0.000000 
0.925074 0.988675 0.000000 
0.810853 -0.601745 0.000000 
0.880351 -0.205572 0.000000 
0.481737 -0.019641 0.000000 
0.444460 -0.597473 0.000000 
0.215264 -0.316541 0.000000 
-0.193502 -0.509410 0.000000 
0.342676 0.996539 0.000000 
-0.104683 0.210676 0.000000 
0.413868 -0.251953 0.000000 
-0.075508 -0.980969 0.000000 
-0.274359 -0.175054 0.000000 
0.120271 -0.460723 0.000000 
0.183054 -0.964314 0.000000 
-0.727227 -0.089347 0.000000 
-0.315983 0.622667 0.000000 
CELL_DATA 184 
SCALARS MASS float 
LOOKUP_TABLE default 
0.051252 
0.046008 
0.051531 
0.046188 
0.052854 
0.051531 
0.052854 
0.052854 
0.051531 
0.050859 
0.052854 
0.047395 
0.052854 
0.052854 
0.051434 
0.045995 
0.052854 
0.051281 
0.051530 
0.046441 
0.052854 
0.052854 
0.050612 
0.049065 
0.052975 
0.049197 
0.049245 
0.052975 
0.052990 
0.055938 
0.049713 
0.052094 
0.055938 
0.050456 
0.055938 
0.053198 
0.052878 
0.049051 
0.052807 
0.049481 
0.052974 
0.049465 
0.049257 
0.055938 
0.105225 
0.104629 
0.082126 
0.094264 
0.094771 
0.094259 
0.094771 
0.083366 
0.104047 
0.083092 
0.081316 
0.081315 
0.092719 
0.079469 
0.108073 
0.092710 
0.108073 
0.093129 
0.104035 
0.094961 
0.104398 
0.081316 
0.125285 
0.099128 
0.098320 
0.087841 
0.082650 
0.097481 
0.086914 
0.081921 
0.086680 
0.086680 
0.081485 
0.107769 
0.088711 
0.084874 
0.107874 
0.082612 
0.095190 
0.095229 
0.083942 
0.085089 
0.079923 
0.081132 
0.095301 
0.097917 
0.090576 
0.085268 
0.095896 
0.081062 
0.095454 
0.090083 
0.081027 
0.085251 
0.101961 
0.083022 
0.095445 
0.080604 
0.081018 
0.085240 
0.097826 
0.090495 
0.095435 
0.095845 
0.081023 
0.085241 
0.090072 
0.081024 
0.095436 
0.101966 
0.083028 
0.085242 
0.080610 
0.081024 
0.095437 
0.082345 
0.082694 
0.085242 
0.109264 
0.089885 
0.095437 
0.108636 
0.083028 
0.085242 
0.080610 
0.074817 
0.073569 
0.082490 
0.095437 
0.095617 
0.133784 
0.138292 
0.139667 
0.139695 
0.139694 
0.139689 
0.139693 
0.140105 
0.139774 
0.086622 
0.086622 
0.089038 
0.077179 
0.079159 
0.072465 
0.084345 
0.092656 
0.093083 
0.084037 
0.098826 
0.101847 
0.085968 
0.086444 
0.074619 
0.064825 
0.094138 
0.124406 
0.086607 
0.131576 
0.102571 
0.084703 
0.076503 
0.084191 
0.084191 
0.086793 
0.075696 
0.084714 
0.090949 
0.084009 
0.076569 
0.086383 
0.098391 
0.110757 
0.093222 
0.143196 
0.101090 
0.091038 
0.150913 
0.178131 
0.206980 
SCALARS MASS float 
LOOKUP_TABLE default 
0.051252 
0.046008 
0.051531 
0.046188 
0.052854 
0.051531 
0.052854 
0.052854 
0.051531 
0.050859 
0.052854 
0.047395 
0.052854 
0.052854 
0.051434 
0.045995 
0.052854 
0.051281 
0.051530 
0.046441 
0.052854 
0.052854 
0.050612 
0.049065 
0.052975 
0.049197 
0.049245 
0.052975 
0.052990 
0.055938 
0.049713 
0.052094 
0.055938 
0.050456 
0.055938 
0.053198 
0.052878 
0.049051 
0.052807 
0.049481 
0.052974 
0.049465 
0.049257 
0.055938 
0.105225 
0.104629 
0.082126 
0.094264 
0.094771 
0.094259 
0.094771 
0.083366 
0.104047 
0.083092 
0.081316 
0.081315 
0.092719 
0.079469 
0.108073 
0.092710 
0.108073 
0.093129 
0.104035 
0.094961 
0.104398 
0.081316 
0.125285 
0.099128 
0.098320 
0.087841 
0.082650 
0.097481 
0.086914 
0.081921 
0.086680 
0.086680 
0.081485 
0.107769 
0.088711 
0.084874 
0.107874 
0.082612 
0.095190 
0.095229 
0.083942 
0.085089 
0.079923 
0.081132 
0.095301 
0.097917 
0.090576 
0.085268 
0.095896 
0.081062 
0.095454 
0.090083 
0.081027 
0.085251 
0.101961 
0.083022 
0.095445 
0.080604 
0.081018 
0.085240 
0.097826 
0.090495 
0.095435 
0.095845 
0.081023 
0.085241 
0.090072 
0.081024 
0.095436 
0.101966 
0.083028 
0.085242 
0.080610 
0.081024 
0.095437 
0.082345 
0.082694 
0.085242 
0.109264 
0.089885 
0.095437 
0.108636 
0.083028 
0.085242 
0.080610 
0.074817 
0.073569 
0.082490 
0.095437 
0.095617 
0.133784 
0.138292 
0.139667 
0.139695 
0.139694 
0.139689 
0.139693 
0.140105 
0.139774 
0.086622 
0.086622 
0.089038 
0.077179 
0.079159 
0.072465 
0.084345 
0.092656 
0.093083 
0.084037 
0.098826 
0.101847 
0.085968 
0.086444 
0.074619 
0.064825 
0.094138 
0.124406 
0.086607 
0.131576 
0.102571 
0.084703 
0.076503 
0.084191 
0.084191 
0.086793 
0.075696 
0.084714 
0.090949 
0.084009 
0.076569 
0.086383 
0.098391 
0.110757 
0.093222 
0.143196 
0.101090 
0.091038 
0.150913 
0.178131 
0.206980 
SCALARS DENSITY float 
LOOKUP_TABLE default 
20.000000 
20.000000 
20.000000 
20.000000 
20.000000 
20.000000 
20.000000 
20.000000 
20.000000 
20.000000 
20.000000 
20.000000 
20.000000 
20.000000 
20.000000 
20.000000 
20.000000 
20.000000 
20.000000 
20.000000 
20.000000 
20.000000 
20.000000 
20.000000 
20.000000 
20.000000 
20.000000 
20.000000 
20.000000 
20.000000 
20.000000 
20.000000 
20.000000 
20.000000 
20.000000 
20.000000 
20.000000 
20.000000 
20.000000 
20.000000 
20.000000 
20.000000 
20.000000 
20.000000 
20.000000 
20.000000 
20.000000 
20.000000 
20.000000 
20.000000 
20.000000 
20.000000 
20.000000 
20.000000 
20.000000 
20.000000 
20.000000 
20.000000 
20.000000 
20.000000 
20.000000 
20.000000 
20.000000 
20.000000 
20.000000 
20.000000 
20.000000 
20.000000 
20.000000 
20.000000 
20.000000 
20.000000 
20.000000 
20.000000 
20.000000 
20.000000 
20.000000 
20.000000 
20.000000 
20.000000 
20.000000 
20.000000 
20.000000 
20.000000 
20.000000 
20.000000 
20.000000 
20.000000 
20.000000 
20.000000 
20.000000 
20.000000 
20.000000 
20.000000 
20.000000 
20.000000 
20.000000 
20.000000 
20.000000 
20.000000 
20.000000 
20.000000 
20.000000 
20.000000 
20.000000 
20.000000 
20.000000 
20.000000 
20.000000 
20.000000 
20.000000 
20.000000 
20.000000 
20.000000 
20.000000 
20.000000 
20.000000 
20.000000 
20.000000 
20.000000 
20.000000 
20.000000 
20.000000 
20.000000 
20.000000 
20.000000 
20.000000 
20.000000 
20.000000 
20.000000 
20.000000 
20.000000 
20.000000 
20.000000 
20.000000 
20.000000 
20.000000 
20.000000 
20.000000 
20.000000 
20.000000 
20.000000 
20.000000 
20.000000 
20.000000 
20.000000 
20.000000 
20.000000 
20.000000 
20.000000 
20.000000 
20.000000 
20.000000 
20.000000 
20.000000 
20.000000 
20.000000 
20.000000 
20.000000 
20.000000 
20.000000 
20.000000 
20.000000 
20.000000 
20.000000 
20.000000 
20.000000 
20.000000 
20.000000 
20.000000 
20.000000 
20.000000 
20.000000 
20.000000 
20.000000 
20.000000 
20.000000 
20.000000 
20.000000 
20.000000 
20.000000 
20.000000 
20.000000 
20.000000 
SCALARS ELEM_i float 
LOOKUP_TABLE default 
208 
226 
167 
227 
185 
188 
208 
205 
167 
226 
166 
208 
205 
167 
227 
185 
188 
228 
185 
168 
226 
166 
208 
225 
167 
227 
185 
188 
228 
205 
168 
226 
166 
208 
205 
167 
227 
166 
188 
227 
185 
168 
226 
166 
208 
168 
188 
185 
205 
226 
166 
228 
227 
167 
188 
185 
205 
226 
166 
166 
205 
208 
227 
227 
188 
167 
208 
208 
208 
208 
208 
208 
208 
208 
207 
208 
207 
227 
227 
207 
227 
227 
207 
227 
226 
227 
226 
226 
227 
226 
206 
206 
206 
206 
206 
205 
206 
206 
205 
185 
206 
185 
186 
186 
186 
186 
186 
186 
186 
186 
166 
166 
186 
166 
167 
186 
167 
167 
167 
167 
167 
167 
167 
188 
187 
188 
188 
187 
188 
188 
188 
208 
188 
188 
207 
207 
206 
186 
187 
186 
187 
206 
206 
207 
187 
207 
207 
207 
207 
207 
207 
207 
206 
207 
206 
206 
206 
207 
207 
207 
207 
187 
188 
206 
187 
187 
187 
187 
187 
186 
186 
186 
186 
186 
186 
187 
187 
187 
186 
187 
187 
187 
206 
187 
VECTORS VELOCITY float 
-0.000000 -4.041720 0.000000 
0.000000 -4.041720 0.000000 
-0.000000 -4.041720 0.000000 
0.000000 -4.041720 0.000000 
-0.000000 -4.041720 0.000000 
0.000000 -4.041720 0.000000 
0.000000 -4.041720 0.000000 
-0.000000 -4.041720 0.000000 
0.000000 -4.041720 0.000000 
0.000000 -4.041720 0.000000 
-0.000000 -4.041720 0.000000 
0.000000 -4.041720 0.000000 
-0.000000 -4.041720 0.000000 
-0.000000 -4.041720 0.000000 
0.000000 -4.041720 0.000000 
0.000000 -4.041720 0.000000 
0.000000 -4.041720 0.000000 
0.000000 -4.041720 0.000000 
-0.000000 -4.041720 0.000000 
0.000000 -4.041720 0.000000 
0.000000 -4.041720 0.000000 
-0.000000 -4.041720 0.000000 
0.000000 -4.041720 0.000000 
-0.000000 -4.041720 0.000000 
-0.000000 -4.041720 0.000000 
0.000000 -4.041720 0.000000 
-0.000000 -4.041720 0.000000 
0.000000 -4.041720 0.000000 
0.000000 -4.041720 0.000000 
-0.000000 -4.041720 0.000000 
0.000000 -4.041720 0.000000 
0.000000 -4.041720 0.000000 
-0.000000 -4.041720 0.000000 
-0.000000 -4.041720 0.000000 
-0.000000 -4.041720 0.000000 
0.000000 -4.041720 0.000000 
0.000000 -4.041720 0.000000 
-0.000000 -4.041720 0.000000 
-0.000000 -4.041720 0.000000 
0.000000 -4.041720 0.000000 
-0.000000 -4.041720 0.000000 
0.000000 -4.041720 0.000000 
0.000000 -4.041720 0.000000 
-0.000000 -4.041720 0.000000 
0.000000 -4.041720 0.000000 
-0.000000 -4.041720 0.000000 
0.000000 -4.041720 0.000000 
-0.000000 -4.041720 0.000000 
-0.000000 -4.041720 0.000000 
0.000000 -4.041720 0.000000 
-0.000000 -4.041720 0.000000 
0.000000 -4.041720 0.000000 
0.000000 -4.041720 0.000000 
-0.000000 -4.041720 0.000000 
-0.000000 -4.041720 0.000000 
-0.000000 -4.041720 0.000000 
-0.000000 -4.041720 0.000000 
0.000000 -4.041720 0.000000 
-0.000000 -4.041720 0.000000 
-0.000000 -4.041720 0.000000 
-0.000000 -4.041720 0.000000 
-0.000000 -4.041720 0.000000 
0.000000 -4.041720 0.000000 
0.000000 -4.041720 0.000000 
0.000000 -4.041720 0.000000 
-0.000000 -4.041720 0.000000 
-0.000000 -4.041720 0.000000 
-0.000000 -4.041720 0.000000 
0.000000 -4.041720 0.000000 
-0.000000 -4.041720 0.000000 
0.000000 -4.041720 0.000000 
-0.000000 -4.041720 0.000000 
-0.000000 -4.041720 0.000000 
0.000000 -4.041720 0.000000 
-0.000000 -4.041720 0.000000 
-0.000000 -4.041720 0.000000 
0.000000 -4.041720 0.000000 
0.000000 -4.041720 0.000000 
0.000000 -4.041720 0.000000 
0.000000 -4.041720 0.000000 
0.000000 -4.041720 0.000000 
0.000000 -4.041720 0.000000 
0.000000 -4.041720 0.000000 
0.000000 -4.041720 0.000000 
0.000000 -4.041720 0.000000 
0.000000 -4.041720 0.000000 
0.000000 -4.041720 0.000000 
0.000000 -4.041720 0.000000 
0.000000 -4.041720 0.000000 
-0.000000 -4.041720 0.000000 
-0.000000 -4.041720 0.000000 
-0.000000 -4.041720 0.000000 
-0.000000 -4.041720 0.000000 
-0.000000 -4.041720 0.000000 
0.000000 -4.041720 0.000000 
-0.000000 -4.041720 0.000000 
-0.000000 -4.041720 0.000000 
-0.000000 -4.041720 0.000000 
-0.000000 -4.041720 0.000000 
-0.000000 -4.041720 0.000000 
0.000000 -4.041720 0.000000 
-0.000000 -4.041720 0.000000 
0.000000 -4.041720 0.000000 
0.000000 -4.041720 0.000000 
0.000000 -4.041720 0.000000 
-0.000000 -4.041720 0.000000 
0.000000 -4.041720 0.000000 
-0.000000 -4.041720 0.000000 
-0.000000 -4.041720 0.000000 
0.000000 -4.041720 0.000000 
-0.000000 -4.041720 0.000000 
-0.000000 -4.041720 0.000000 
-0.000000 -4.041720 0.000000 
-0.000000 -4.041720 0.000000 
-0.000000 -4.041720 0.000000 
-0.000000 -4.041720 0.000000 
-0.000000 -4.041720 0.000000 
0.000000 -4.041720 0.000000 
-0.000000 -4.041720 0.000000 
-0.000000 -4.041720 0.000000 
0.000000 -4.041720 0.000000 
0.000000 -4.041720 0.000000 
0.000000 -4.041720 0.000000 
-0.000000 -4.041720 0.000000 
0.000000 -4.041720 0.000000 
0.000000 -4.041720 0.000000 
0.000000 -4.041720 0.000000 
0.000000 -4.041720 0.000000 
-0.000000 -4.041720 0.000000 
-0.000000 -4.041720 0.000000 
-0.000000 -4.041720 0.000000 
-0.000000 -4.041720 0.000000 
-0.000000 -4.041720 0.000000 
-0.000000 -4.041720 0.000000 
-0.000000 -4.041720 0.000000 
0.000000 -4.041720 0.000000 
0.000000 -4.041720 0.000000 
-0.000000 -4.041720 0.000000 
0.000000 -4.041720 0.000000 
0.000000 -4.041720 0.000000 
0.000000 -4.041720 0.000000 
0.000000 -4.041720 0.000000 
0.000000 -4.041720 0.000000 
0.000000 -4.041720 0.000000 
-0.000000 -4.041720 0.000000 
0.000000 -4.041720 0.000000 
0.000000 -4.041720 0.000000 
0.000000 -4.041720 0.000000 
0.000000 -4.041720 0.000000 
0.000000 -4.041720 0.000000 
0.000000 -4.041720 0.000000 
0.000000 -4.041720 0.000000 
0.000000 -4.041720 0.000000 
-0.000000 -4.041720 0.000000 
0.000000 -4.041720 0.000000 
0.000000 -4.041720 0.000000 
0.000000 -4.041720 0.000000 
0.000000 -4.041720 0.000000 
0.000000 -4.041720 0.000000 
0.000000 -4.041720 0.000000 
-0.000000 -4.041720 0.000000 
-0.000000 -4.041720 0.000000 
-0.000000 -4.041720 0.000000 
0.000000 -4.041720 0.000000 
-0.000000 -4.041720 0.000000 
-0.000000 -4.041720 0.000000 
0.000000 -4.041720 0.000000 
0.000000 -4.041720 0.000000 
0.000000 -4.041720 0.000000 
0.000000 -4.041720 0.000000 
0.000000 -4.041720 0.000000 