# vtk DataFile Version 3.0 
vtk output 
ASCII 
DATASET UNSTRUCTURED_GRID 
POINTS 184 float 
-0.034194 -2.093244 0.000000 
-0.389862 -2.940204 0.000000 
0.472519 -2.588914 0.000000 
-0.446285 -2.406604 0.000000 
0.183416 -3.111917 0.000000 
0.220105 -2.145720 0.000000 
-0.286513 -2.187630 0.000000 
-0.107803 -3.153739 0.000000 
0.418396 -2.340365 0.000000 
-0.462331 -2.665634 0.000000 
0.404252 -2.862798 0.000000 
-0.167521 -2.120612 0.000000 
-0.231912 -3.056395 0.000000 
0.464939 -2.464059 0.000000 
-0.471997 -2.540176 0.000000 
0.290950 -2.982828 0.000000 
0.098115 -2.101934 0.000000 
-0.378394 -2.279851 0.000000 
0.055810 -3.175407 0.000000 
0.334942 -2.224134 0.000000 
-0.434812 -2.782942 0.000000 
0.444263 -2.719111 0.000000 
-0.127003 -2.108947 0.000000 
-0.320065 -2.980071 0.000000 
0.472833 -2.543321 0.000000 
-0.459241 -2.453620 0.000000 
0.255374 -3.033231 0.000000 
0.173230 -2.126794 0.000000 
-0.348295 -2.242925 0.000000 
-0.054351 -3.162704 0.000000 
0.366326 -2.260417 0.000000 
-0.450082 -2.707261 0.000000 
0.429909 -2.764694 0.000000 
-0.211145 -2.142420 0.000000 
-0.155422 -3.125423 0.000000 
0.438911 -2.384419 0.000000 
-0.471717 -2.584571 0.000000 
0.347251 -2.958525 0.000000 
0.014643 -2.092314 0.000000 
-0.427315 -2.361364 0.000000 
0.106310 -3.161347 0.000000 
0.297878 -2.193565 0.000000 
-0.418699 -2.883820 0.000000 
0.456606 -2.676438 0.000000 
-0.080625 -2.125526 0.000000 
0.367837 -2.306801 0.000000 
0.045766 -2.121803 0.000000 
0.213403 -2.998645 0.000000 
-0.167089 -3.025136 0.000000 
-0.387866 -2.819578 0.000000 
0.392279 -2.779114 0.000000 
-0.307473 -2.239197 0.000000 
-0.387426 -2.340578 0.000000 
0.425899 -2.424589 0.000000 
0.137324 -2.140517 0.000000 
0.124661 -3.052436 0.000000 
-0.258734 -2.953746 0.000000 
-0.414897 -2.725836 0.000000 
0.438721 -2.635987 0.000000 
0.339195 -2.880275 0.000000 
-0.005401 -3.046349 0.000000 
-0.227766 -2.178608 0.000000 
-0.442982 -2.491740 0.000000 
-0.443786 -2.617835 0.000000 
0.251920 -2.193180 0.000000 
0.445532 -2.513936 0.000000 
-0.081196 -2.181161 0.000000 
-0.132242 -2.224415 0.000000 
-0.193603 -2.219739 0.000000 
-0.113229 -2.283163 0.000000 
-0.225441 -2.274959 0.000000 
-0.172499 -2.311686 0.000000 
-0.056922 -2.296909 0.000000 
-0.280326 -2.285890 0.000000 
-0.041352 -2.351702 0.000000 
-0.016543 -2.256021 0.000000 
-0.297691 -2.345605 0.000000 
-0.349750 -2.376832 0.000000 
-0.351201 -2.443228 0.000000 
-0.255857 -2.384077 0.000000 
-0.391120 -2.491877 0.000000 
-0.369491 -2.549223 0.000000 
-0.285395 -2.441514 0.000000 
-0.394047 -2.604465 0.000000 
-0.359633 -2.646905 0.000000 
-0.313135 -2.548416 0.000000 
-0.369554 -2.700241 0.000000 
-0.322599 -2.730092 0.000000 
-0.307352 -2.608255 0.000000 
-0.319641 -2.788690 0.000000 
-0.259294 -2.811698 0.000000 
-0.272235 -2.705841 0.000000 
-0.235325 -2.875961 0.000000 
-0.171569 -2.876674 0.000000 
-0.232066 -2.749995 0.000000 
-0.132835 -2.932930 0.000000 
-0.070850 -2.908908 0.000000 
-0.144138 -2.818879 0.000000 
-0.014138 -2.942623 0.000000 
0.040622 -2.910161 0.000000 
-0.082273 -2.838614 0.000000 
0.097467 -2.944166 0.000000 
0.135494 -2.893860 0.000000 
0.030203 -2.847848 0.000000 
0.195958 -2.906209 0.000000 
0.226976 -2.841880 0.000000 
0.092256 -2.836441 0.000000 
0.283066 -2.825474 0.000000 
0.296880 -2.762186 0.000000 
0.191588 -2.788317 0.000000 
0.347822 -2.736205 0.000000 
0.346247 -2.680874 0.000000 
0.235893 -2.744790 0.000000 
0.386681 -2.635262 0.000000 
0.369085 -2.579897 0.000000 
0.293593 -2.660918 0.000000 
0.394754 -2.528815 0.000000 
0.361067 -2.483752 0.000000 
0.307171 -2.602475 0.000000 
0.373313 -2.429750 0.000000 
0.326115 -2.389088 0.000000 
0.304649 -2.495811 0.000000 
0.319133 -2.327577 0.000000 
0.259305 -2.298914 0.000000 
0.282067 -2.434429 0.000000 
0.230609 -2.241376 0.000000 
0.168060 -2.236257 0.000000 
0.217896 -2.340826 0.000000 
0.129916 -2.191049 0.000000 
0.075570 -2.201904 0.000000 
0.031489 -2.168751 0.000000 
-0.021910 -2.198794 0.000000 
0.164888 -2.302941 0.000000 
0.045958 -2.255635 0.000000 
-0.185657 -2.360947 0.000000 
-0.267649 -2.490460 0.000000 
-0.036447 -2.812419 0.000000 
0.233114 -2.700717 0.000000 
0.277554 -2.563268 0.000000 
0.117060 -2.791469 0.000000 
0.233987 -2.415025 0.000000 
-0.266248 -2.637619 0.000000 
-0.180436 -2.753540 0.000000 
-0.081691 -2.393298 0.000000 
0.014667 -2.365581 0.000000 
-0.142854 -2.396887 0.000000 
-0.170944 -2.454802 0.000000 
-0.215372 -2.493865 0.000000 
-0.204921 -2.554385 0.000000 
-0.129491 -2.490646 0.000000 
-0.218067 -2.611142 0.000000 
-0.147921 -2.545832 0.000000 
-0.173662 -2.653368 0.000000 
-0.077300 -2.456450 0.000000 
-0.154477 -2.708079 0.000000 
-0.125399 -2.625590 0.000000 
-0.074226 -2.649427 0.000000 
-0.112721 -2.574387 0.000000 
-0.052062 -2.557379 0.000000 
-0.031536 -2.607988 0.000000 
-0.035021 -2.494963 0.000000 
0.030448 -2.421518 0.000000 
0.061597 -2.310477 0.000000 
-0.088150 -2.705281 0.000000 
0.008543 -2.478997 0.000000 
0.051236 -2.526732 0.000000 
0.053507 -2.580101 0.000000 
0.097666 -2.499091 0.000000 
0.011689 -2.620747 0.000000 
0.028969 -2.675653 0.000000 
0.019234 -2.725830 0.000000 
0.078878 -2.750463 0.000000 
0.083540 -2.676356 0.000000 
0.118052 -2.713016 0.000000 
0.178626 -2.688277 0.000000 
0.098617 -2.621624 0.000000 
0.165095 -2.509734 0.000000 
0.087396 -2.441564 0.000000 
0.161017 -2.624582 0.000000 
0.190747 -2.452852 0.000000 
0.131475 -2.409770 0.000000 
0.121237 -2.334180 0.000000 
-0.039235 -2.741215 0.000000 
0.197089 -2.568958 0.000000 
CELLS 184 368 
1 0 
1 1 
1 2 
1 3 
1 4 
1 5 
1 6 
1 7 
1 8 
1 9 
1 10 
1 11 
1 12 
1 13 
1 14 
1 15 
1 16 
1 17 
1 18 
1 19 
1 20 
1 21 
1 22 
1 23 
1 24 
1 25 
1 26 
1 27 
1 28 
1 29 
1 30 
1 31 
1 32 
1 33 
1 34 
1 35 
1 36 
1 37 
1 38 
1 39 
1 40 
1 41 
1 42 
1 43 
1 44 
1 45 
1 46 
1 47 
1 48 
1 49 
1 50 
1 51 
1 52 
1 53 
1 54 
1 55 
1 56 
1 57 
1 58 
1 59 
1 60 
1 61 
1 62 
1 63 
1 64 
1 65 
1 66 
1 67 
1 68 
1 69 
1 70 
1 71 
1 72 
1 73 
1 74 
1 75 
1 76 
1 77 
1 78 
1 79 
1 80 
1 81 
1 82 
1 83 
1 84 
1 85 
1 86 
1 87 
1 88 
1 89 
1 90 
1 91 
1 92 
1 93 
1 94 
1 95 
1 96 
1 97 
1 98 
1 99 
1 100 
1 101 
1 102 
1 103 
1 104 
1 105 
1 106 
1 107 
1 108 
1 109 
1 110 
1 111 
1 112 
1 113 
1 114 
1 115 
1 116 
1 117 
1 118 
1 119 
1 120 
1 121 
1 122 
1 123 
1 124 
1 125 
1 126 
1 127 
1 128 
1 129 
1 130 
1 131 
1 132 
1 133 
1 134 
1 135 
1 136 
1 137 
1 138 
1 139 
1 140 
1 141 
1 142 
1 143 
1 144 
1 145 
1 146 
1 147 
1 148 
1 149 
1 150 
1 151 
1 152 
1 153 
1 154 
1 155 
1 156 
1 157 
1 158 
1 159 
1 160 
1 161 
1 162 
1 163 
1 164 
1 165 
1 166 
1 167 
1 168 
1 169 
1 170 
1 171 
1 172 
1 173 
1 174 
1 175 
1 176 
1 177 
1 178 
1 179 
1 180 
1 181 
1 182 
1 183 
CELL_TYPES 184 
1 
1 
1 
1 
1 
1 
1 
1 
1 
1 
1 
1 
1 
1 
1 
1 
1 
1 
1 
1 
1 
1 
1 
1 
1 
1 
1 
1 
1 
1 
1 
1 
1 
1 
1 
1 
1 
1 
1 
1 
1 
1 
1 
1 
1 
1 
1 
1 
1 
1 
1 
1 
1 
1 
1 
1 
1 
1 
1 
1 
1 
1 
1 
1 
1 
1 
1 
1 
1 
1 
1 
1 
1 
1 
1 
1 
1 
1 
1 
1 
1 
1 
1 
1 
1 
1 
1 
1 
1 
1 
1 
1 
1 
1 
1 
1 
1 
1 
1 
1 
1 
1 
1 
1 
1 
1 
1 
1 
1 
1 
1 
1 
1 
1 
1 
1 
1 
1 
1 
1 
1 
1 
1 
1 
1 
1 
1 
1 
1 
1 
1 
1 
1 
1 
1 
1 
1 
1 
1 
1 
1 
1 
1 
1 
1 
1 
1 
1 
1 
1 
1 
1 
1 
1 
1 
1 
1 
1 
1 
1 
1 
1 
1 
1 
1 
1 
1 
1 
1 
1 
1 
1 
1 
1 
1 
1 
1 
1 
1 
1 
1 
1 
1 
1 
POINT_DATA 184 
VECTORS X_GC float 
-0.034194 -2.093244 0.000000 
-0.389862 -2.940204 0.000000 
0.472519 -2.588914 0.000000 
-0.446285 -2.406604 0.000000 
0.183416 -3.111917 0.000000 
0.220105 -2.145720 0.000000 
-0.286513 -2.187630 0.000000 
-0.107803 -3.153739 0.000000 
0.418396 -2.340365 0.000000 
-0.462331 -2.665634 0.000000 
0.404252 -2.862798 0.000000 
-0.167521 -2.120612 0.000000 
-0.231912 -3.056395 0.000000 
0.464939 -2.464059 0.000000 
-0.471997 -2.540176 0.000000 
0.290950 -2.982828 0.000000 
0.098115 -2.101934 0.000000 
-0.378394 -2.279851 0.000000 
0.055810 -3.175407 0.000000 
0.334942 -2.224134 0.000000 
-0.434812 -2.782942 0.000000 
0.444263 -2.719111 0.000000 
-0.127003 -2.108947 0.000000 
-0.320065 -2.980071 0.000000 
0.472833 -2.543321 0.000000 
-0.459241 -2.453620 0.000000 
0.255374 -3.033231 0.000000 
0.173230 -2.126794 0.000000 
-0.348295 -2.242925 0.000000 
-0.054351 -3.162704 0.000000 
0.366326 -2.260417 0.000000 
-0.450082 -2.707261 0.000000 
0.429909 -2.764694 0.000000 
-0.211145 -2.142420 0.000000 
-0.155422 -3.125423 0.000000 
0.438911 -2.384419 0.000000 
-0.471717 -2.584571 0.000000 
0.347251 -2.958525 0.000000 
0.014643 -2.092314 0.000000 
-0.427315 -2.361364 0.000000 
0.106310 -3.161347 0.000000 
0.297878 -2.193565 0.000000 
-0.418699 -2.883820 0.000000 
0.456606 -2.676438 0.000000 
-0.080625 -2.125526 0.000000 
0.367837 -2.306801 0.000000 
0.045766 -2.121803 0.000000 
0.213403 -2.998645 0.000000 
-0.167089 -3.025136 0.000000 
-0.387866 -2.819578 0.000000 
0.392279 -2.779114 0.000000 
-0.307473 -2.239197 0.000000 
-0.387426 -2.340578 0.000000 
0.425899 -2.424589 0.000000 
0.137324 -2.140517 0.000000 
0.124661 -3.052436 0.000000 
-0.258734 -2.953746 0.000000 
-0.414897 -2.725836 0.000000 
0.438721 -2.635987 0.000000 
0.339195 -2.880275 0.000000 
-0.005401 -3.046349 0.000000 
-0.227766 -2.178608 0.000000 
-0.442982 -2.491740 0.000000 
-0.443786 -2.617835 0.000000 
0.251920 -2.193180 0.000000 
0.445532 -2.513936 0.000000 
-0.081196 -2.181161 0.000000 
-0.132242 -2.224415 0.000000 
-0.193603 -2.219739 0.000000 
-0.113229 -2.283163 0.000000 
-0.225441 -2.274959 0.000000 
-0.172499 -2.311686 0.000000 
-0.056922 -2.296909 0.000000 
-0.280326 -2.285890 0.000000 
-0.041352 -2.351702 0.000000 
-0.016543 -2.256021 0.000000 
-0.297691 -2.345605 0.000000 
-0.349750 -2.376832 0.000000 
-0.351201 -2.443228 0.000000 
-0.255857 -2.384077 0.000000 
-0.391120 -2.491877 0.000000 
-0.369491 -2.549223 0.000000 
-0.285395 -2.441514 0.000000 
-0.394047 -2.604465 0.000000 
-0.359633 -2.646905 0.000000 
-0.313135 -2.548416 0.000000 
-0.369554 -2.700241 0.000000 
-0.322599 -2.730092 0.000000 
-0.307352 -2.608255 0.000000 
-0.319641 -2.788690 0.000000 
-0.259294 -2.811698 0.000000 
-0.272235 -2.705841 0.000000 
-0.235325 -2.875961 0.000000 
-0.171569 -2.876674 0.000000 
-0.232066 -2.749995 0.000000 
-0.132835 -2.932930 0.000000 
-0.070850 -2.908908 0.000000 
-0.144138 -2.818879 0.000000 
-0.014138 -2.942623 0.000000 
0.040622 -2.910161 0.000000 
-0.082273 -2.838614 0.000000 
0.097467 -2.944166 0.000000 
0.135494 -2.893860 0.000000 
0.030203 -2.847848 0.000000 
0.195958 -2.906209 0.000000 
0.226976 -2.841880 0.000000 
0.092256 -2.836441 0.000000 
0.283066 -2.825474 0.000000 
0.296880 -2.762186 0.000000 
0.191588 -2.788317 0.000000 
0.347822 -2.736205 0.000000 
0.346247 -2.680874 0.000000 
0.235893 -2.744790 0.000000 
0.386681 -2.635262 0.000000 
0.369085 -2.579897 0.000000 
0.293593 -2.660918 0.000000 
0.394754 -2.528815 0.000000 
0.361067 -2.483752 0.000000 
0.307171 -2.602475 0.000000 
0.373313 -2.429750 0.000000 
0.326115 -2.389088 0.000000 
0.304649 -2.495811 0.000000 
0.319133 -2.327577 0.000000 
0.259305 -2.298914 0.000000 
0.282067 -2.434429 0.000000 
0.230609 -2.241376 0.000000 
0.168060 -2.236257 0.000000 
0.217896 -2.340826 0.000000 
0.129916 -2.191049 0.000000 
0.075570 -2.201904 0.000000 
0.031489 -2.168751 0.000000 
-0.021910 -2.198794 0.000000 
0.164888 -2.302941 0.000000 
0.045958 -2.255635 0.000000 
-0.185657 -2.360947 0.000000 
-0.267649 -2.490460 0.000000 
-0.036447 -2.812419 0.000000 
0.233114 -2.700717 0.000000 
0.277554 -2.563268 0.000000 
0.117060 -2.791469 0.000000 
0.233987 -2.415025 0.000000 
-0.266248 -2.637619 0.000000 
-0.180436 -2.753540 0.000000 
-0.081691 -2.393298 0.000000 
0.014667 -2.365581 0.000000 
-0.142854 -2.396887 0.000000 
-0.170944 -2.454802 0.000000 
-0.215372 -2.493865 0.000000 
-0.204921 -2.554385 0.000000 
-0.129491 -2.490646 0.000000 
-0.218067 -2.611142 0.000000 
-0.147921 -2.545832 0.000000 
-0.173662 -2.653368 0.000000 
-0.077300 -2.456450 0.000000 
-0.154477 -2.708079 0.000000 
-0.125399 -2.625590 0.000000 
-0.074226 -2.649427 0.000000 
-0.112721 -2.574387 0.000000 
-0.052062 -2.557379 0.000000 
-0.031536 -2.607988 0.000000 
-0.035021 -2.494963 0.000000 
0.030448 -2.421518 0.000000 
0.061597 -2.310477 0.000000 
-0.088150 -2.705281 0.000000 
0.008543 -2.478997 0.000000 
0.051236 -2.526732 0.000000 
0.053507 -2.580101 0.000000 
0.097666 -2.499091 0.000000 
0.011689 -2.620747 0.000000 
0.028969 -2.675653 0.000000 
0.019234 -2.725830 0.000000 
0.078878 -2.750463 0.000000 
0.083540 -2.676356 0.000000 
0.118052 -2.713016 0.000000 
0.178626 -2.688277 0.000000 
0.098617 -2.621624 0.000000 
0.165095 -2.509734 0.000000 
0.087396 -2.441564 0.000000 
0.161017 -2.624582 0.000000 
0.190747 -2.452852 0.000000 
0.131475 -2.409770 0.000000 
0.121237 -2.334180 0.000000 
-0.039235 -2.741215 0.000000 
0.197089 -2.568958 0.000000 
VECTORS X_EC float 
-0.772041 0.954962 0.000000 
-0.400920 0.601360 0.000000 
-0.150124 0.259427 0.000000 
-0.024769 -0.955975 0.000000 
-0.248183 0.946404 0.000000 
-0.467366 -0.695198 0.000000 
0.910089 -0.415802 0.000000 
-0.208874 0.964511 0.000000 
0.210692 0.602430 0.000000 
0.082204 0.770892 0.000000 
0.304985 0.085318 0.000000 
0.116807 -0.862587 0.000000 
0.626334 0.986501 0.000000 
-0.099595 -0.572942 0.000000 
0.146646 -0.065490 0.000000 
-0.939664 0.885521 0.000000 
0.345902 -0.987105 0.000000 
-0.477370 0.199003 0.000000 
0.674495 0.937567 0.000000 
0.767056 -0.172440 0.000000 
-0.101252 -0.447056 0.000000 
0.038245 -0.872591 0.000000 
-0.153315 -0.940356 0.000000 
-0.866231 0.867139 0.000000 
-0.152218 -0.044528 0.000000 
0.061610 -0.642536 0.000000 
-0.678778 0.992812 0.000000 
-0.154865 -0.821371 0.000000 
-0.678033 -0.047168 0.000000 
-0.572427 0.921027 0.000000 
0.557829 0.069449 0.000000 
0.000545 -0.951591 0.000000 
0.133940 -0.568706 0.000000 
0.407630 -0.717197 0.000000 
0.119212 0.951185 0.000000 
0.073924 0.896125 0.000000 
0.144782 0.230472 0.000000 
0.684992 0.723499 0.000000 
0.902381 0.948761 0.000000 
-0.151234 0.742425 0.000000 
0.304228 0.957028 0.000000 
-0.985851 -0.376232 0.000000 
-0.208671 0.225470 0.000000 
-0.044038 0.842922 0.000000 
-0.462501 -0.829826 0.000000 
0.547751 0.378671 0.000000 
0.694896 -0.854646 0.000000 
-0.422684 0.990967 0.000000 
0.144528 0.997078 0.000000 
-0.414226 -0.202816 0.000000 
0.384809 -0.472575 0.000000 
-0.950182 -0.072020 0.000000 
-0.417158 0.603851 0.000000 
0.160676 -0.836076 0.000000 
0.084507 -0.729884 0.000000 
0.184510 0.990440 0.000000 
0.724891 0.691638 0.000000 
-0.234018 -0.827763 0.000000 
0.075192 0.573250 0.000000 
0.738699 0.201836 0.000000 
-0.895255 0.999530 0.000000 
0.518441 -0.475949 0.000000 
-0.046789 -0.388399 0.000000 
-0.041429 0.452234 0.000000 
-0.679465 -0.378803 0.000000 
0.029785 -0.240425 0.000000 
-0.458696 -0.458930 0.000000 
-0.118386 -0.170569 0.000000 
0.290687 -0.201741 0.000000 
-0.245141 0.221086 0.000000 
0.502939 0.166394 0.000000 
0.149991 0.411237 0.000000 
-0.620521 0.312726 0.000000 
0.868842 0.239266 0.000000 
-0.724323 0.678013 0.000000 
-0.889716 0.040142 0.000000 
0.984606 0.637369 0.000000 
-0.668331 0.845547 0.000000 
-0.658662 -0.711815 0.000000 
0.705712 0.893849 0.000000 
-0.392531 -0.387486 0.000000 
-0.536729 -0.005179 0.000000 
0.902633 -0.723240 0.000000 
-0.373023 0.363102 0.000000 
-0.602445 0.646031 0.000000 
-0.912430 -0.010559 0.000000 
-0.536305 -0.998393 0.000000 
-0.849338 -0.799385 0.000000 
-0.950985 0.388366 0.000000 
-0.869062 -0.408730 0.000000 
0.728627 -0.255348 0.000000 
0.814902 -0.961061 0.000000 
0.568832 0.173073 0.000000 
0.143795 0.177826 0.000000 
0.547104 -0.666702 0.000000 
-0.114432 0.552866 0.000000 
-0.527663 0.392717 0.000000 
-0.039080 -0.207474 0.000000 
-0.905745 0.617487 0.000000 
0.729188 0.401070 0.000000 
-0.451511 -0.075909 0.000000 
0.350223 0.627775 0.000000 
0.096703 0.292400 0.000000 
0.798649 -0.014344 0.000000 
-0.306384 0.374729 0.000000 
-0.513173 -0.054135 0.000000 
0.384959 -0.090391 0.000000 
-0.887109 -0.163505 0.000000 
-0.979197 -0.585424 0.000000 
-0.277251 -0.411223 0.000000 
0.681186 -0.758635 0.000000 
0.691686 0.872494 0.000000 
-0.572617 -0.701398 0.000000 
0.422128 0.568416 0.000000 
0.539430 0.199312 0.000000 
-0.957288 0.739457 0.000000 
0.368309 -0.141235 0.000000 
0.592887 -0.441653 0.000000 
0.952191 0.349833 0.000000 
0.511244 -0.801664 0.000000 
0.825899 0.927256 0.000000 
0.969007 -0.361262 0.000000 
0.872449 0.517182 0.000000 
-0.728700 0.326093 0.000000 
-0.880445 -0.770473 0.000000 
-0.537391 -0.057496 0.000000 
-0.120398 -0.091621 0.000000 
-0.452641 0.605507 0.000000 
0.133891 -0.393006 0.000000 
0.496202 -0.320642 0.000000 
0.790073 -0.541658 0.000000 
-0.853931 -0.341374 0.000000 
-0.099254 0.352943 0.000000 
0.693616 0.037566 0.000000 
0.237711 0.739645 0.000000 
0.784324 -0.396935 0.000000 
-0.757018 -0.250540 0.000000 
-0.554095 -0.995222 0.000000 
-0.850360 0.088450 0.000000 
0.219599 -0.390205 0.000000 
-0.559910 -0.899830 0.000000 
0.774986 0.584125 0.000000 
0.202909 -0.643066 0.000000 
-0.455396 0.955318 0.000000 
0.902220 0.770542 0.000000 
-0.047638 0.979247 0.000000 
0.139630 -0.634656 0.000000 
0.435814 -0.374231 0.000000 
0.366142 0.029233 0.000000 
-0.136728 -0.395696 0.000000 
0.453782 0.407613 0.000000 
-0.013857 -0.027789 0.000000 
0.157747 0.689121 0.000000 
-0.484667 -0.623663 0.000000 
0.029849 -0.946139 0.000000 
-0.164007 0.503934 0.000000 
-0.505162 0.662845 0.000000 
-0.248525 0.162581 0.000000 
-0.652917 0.049193 0.000000 
-0.789763 0.386586 0.000000 
-0.766529 -0.366914 0.000000 
0.797013 -0.856547 0.000000 
0.589350 0.403178 0.000000 
-0.412336 -0.964795 0.000000 
0.943045 -0.473356 0.000000 
0.658429 -0.155118 0.000000 
0.643286 0.200676 0.000000 
0.348895 -0.339395 0.000000 
0.922073 0.471649 0.000000 
0.806875 0.837686 0.000000 
0.871776 -0.827801 0.000000 
0.474148 -0.663578 0.000000 
0.443068 0.842375 0.000000 
0.212985 -0.913229 0.000000 
-0.190841 0.921848 0.000000 
0.342555 0.477495 0.000000 
-0.100631 -0.268439 0.000000 
0.417361 -0.722906 0.000000 
-0.073445 0.497215 0.000000 
-0.271649 -0.647651 0.000000 
0.123497 -0.934866 0.000000 
0.191756 0.561203 0.000000 
-0.738436 -0.725234 0.000000 
-0.313929 0.126390 0.000000 
CELL_DATA 184 
SCALARS MASS float 
LOOKUP_TABLE default 
0.051252 
0.046008 
0.051531 
0.046188 
0.052854 
0.051531 
0.052854 
0.052854 
0.051531 
0.050859 
0.052854 
0.047395 
0.052854 
0.052854 
0.051434 
0.045995 
0.052854 
0.051281 
0.051530 
0.046441 
0.052854 
0.052854 
0.050612 
0.049065 
0.052975 
0.049197 
0.049245 
0.052975 
0.052990 
0.055938 
0.049713 
0.052094 
0.055938 
0.050456 
0.055938 
0.053198 
0.052878 
0.049051 
0.052807 
0.049481 
0.052974 
0.049465 
0.049257 
0.055938 
0.105225 
0.104629 
0.082126 
0.094264 
0.094771 
0.094259 
0.094771 
0.083366 
0.104047 
0.083092 
0.081316 
0.081315 
0.092719 
0.079469 
0.108073 
0.092710 
0.108073 
0.093129 
0.104035 
0.094961 
0.104398 
0.081316 
0.125285 
0.099128 
0.098320 
0.087841 
0.082650 
0.097481 
0.086914 
0.081921 
0.086680 
0.086680 
0.081485 
0.107769 
0.088711 
0.084874 
0.107874 
0.082612 
0.095190 
0.095229 
0.083942 
0.085089 
0.079923 
0.081132 
0.095301 
0.097917 
0.090576 
0.085268 
0.095896 
0.081062 
0.095454 
0.090083 
0.081027 
0.085251 
0.101961 
0.083022 
0.095445 
0.080604 
0.081018 
0.085240 
0.097826 
0.090495 
0.095435 
0.095845 
0.081023 
0.085241 
0.090072 
0.081024 
0.095436 
0.101966 
0.083028 
0.085242 
0.080610 
0.081024 
0.095437 
0.082345 
0.082694 
0.085242 
0.109264 
0.089885 
0.095437 
0.108636 
0.083028 
0.085242 
0.080610 
0.074817 
0.073569 
0.082490 
0.095437 
0.095617 
0.133784 
0.138292 
0.139667 
0.139695 
0.139694 
0.139689 
0.139693 
0.140105 
0.139774 
0.086622 
0.086622 
0.089038 
0.077179 
0.079159 
0.072465 
0.084345 
0.092656 
0.093083 
0.084037 
0.098826 
0.101847 
0.085968 
0.086444 
0.074619 
0.064825 
0.094138 
0.124406 
0.086607 
0.131576 
0.102571 
0.084703 
0.076503 
0.084191 
0.084191 
0.086793 
0.075696 
0.084714 
0.090949 
0.084009 
0.076569 
0.086383 
0.098391 
0.110757 
0.093222 
0.143196 
0.101090 
0.091038 
0.150913 
0.178131 
0.206980 
SCALARS MASS float 
LOOKUP_TABLE default 
0.051252 
0.046008 
0.051531 
0.046188 
0.052854 
0.051531 
0.052854 
0.052854 
0.051531 
0.050859 
0.052854 
0.047395 
0.052854 
0.052854 
0.051434 
0.045995 
0.052854 
0.051281 
0.051530 
0.046441 
0.052854 
0.052854 
0.050612 
0.049065 
0.052975 
0.049197 
0.049245 
0.052975 
0.052990 
0.055938 
0.049713 
0.052094 
0.055938 
0.050456 
0.055938 
0.053198 
0.052878 
0.049051 
0.052807 
0.049481 
0.052974 
0.049465 
0.049257 
0.055938 
0.105225 
0.104629 
0.082126 
0.094264 
0.094771 
0.094259 
0.094771 
0.083366 
0.104047 
0.083092 
0.081316 
0.081315 
0.092719 
0.079469 
0.108073 
0.092710 
0.108073 
0.093129 
0.104035 
0.094961 
0.104398 
0.081316 
0.125285 
0.099128 
0.098320 
0.087841 
0.082650 
0.097481 
0.086914 
0.081921 
0.086680 
0.086680 
0.081485 
0.107769 
0.088711 
0.084874 
0.107874 
0.082612 
0.095190 
0.095229 
0.083942 
0.085089 
0.079923 
0.081132 
0.095301 
0.097917 
0.090576 
0.085268 
0.095896 
0.081062 
0.095454 
0.090083 
0.081027 
0.085251 
0.101961 
0.083022 
0.095445 
0.080604 
0.081018 
0.085240 
0.097826 
0.090495 
0.095435 
0.095845 
0.081023 
0.085241 
0.090072 
0.081024 
0.095436 
0.101966 
0.083028 
0.085242 
0.080610 
0.081024 
0.095437 
0.082345 
0.082694 
0.085242 
0.109264 
0.089885 
0.095437 
0.108636 
0.083028 
0.085242 
0.080610 
0.074817 
0.073569 
0.082490 
0.095437 
0.095617 
0.133784 
0.138292 
0.139667 
0.139695 
0.139694 
0.139689 
0.139693 
0.140105 
0.139774 
0.086622 
0.086622 
0.089038 
0.077179 
0.079159 
0.072465 
0.084345 
0.092656 
0.093083 
0.084037 
0.098826 
0.101847 
0.085968 
0.086444 
0.074619 
0.064825 
0.094138 
0.124406 
0.086607 
0.131576 
0.102571 
0.084703 
0.076503 
0.084191 
0.084191 
0.086793 
0.075696 
0.084714 
0.090949 
0.084009 
0.076569 
0.086383 
0.098391 
0.110757 
0.093222 
0.143196 
0.101090 
0.091038 
0.150913 
0.178131 
0.206980 
SCALARS DENSITY float 
LOOKUP_TABLE default 
23.106442 
99423797028675920.000000 
62.499100 
40.552170 
-99930010701434183288859751075422187978006056993437788111856637367803385562231818050125746200594131935633346358486291709952.000000 
21.228277 
15.063179 
1765906153952455907916416843362186433395047944939664473591907000504804819329011585674084389642584087708152365056.000000 
28.245298 
366.439672 
230799269633234208.000000 
20.469954 
334958960127471062093950422154712325133909088354261973321996683989350994334495801344.000000 
23.154039 
276.355674 
7289049178140757882210381568802854837756500262192625659936768.000000 
25.803338 
20.948070 
1246452953806132993970666858802084449692106802311041502837913118172129038815211843463570284347191307898378360281020040393314987993996722300297238309502976.000000 
9.985705 
369436073.529855 
162.596531 
21.129295 
80267110758408519680000.000000 
71.647286 
5371.610873 
429588842583558760285221072085740563955685557670882994336775358388941108619253907456.000000 
32.728330 
9.437771 
723328221089731619740363776684379470955528939985684128156770604878298511699484588240826379131725991718861986049287442504071749042176.000000 
10.928386 
310.707277 
242184866.905412 
45.348689 
9281027204800754464782913491384553576280517315739899472086821181163924416933793970282891866498138112.000000 
33.664852 
512.124849 
73222532609292830717243293696.000000 
24.593575 
31.709197 
2648164952970597068839829233374044625237744200537890109162995592039711565434850486639916368936292511888031109623196690028156240425980908487625071456119947264.000000 
5104.576327 
186805881192938.406250 
86.683465 
25.375864 
27.468612 
18.408173 
172674204679788314113165490928378974869728150894274741426559519769409617920.000000 
42485681372230101519311923182794760318080974401191791394623517837657899008.000000 
95994718564.960464 
2277747957.566968 
14.359081 
37.134135 
45.929836 
39.280502 
24258239339885275135449820288227110249809638687634544285101621941885655264404683603159675019406114662907904.000000 
61234736483287133348140337191280270800733802396461968654336.000000 
397.600491 
38.466999 
1263706893886901056438272.000000 
350831737712160444375315743417254964082913979379717356937813793926649808589794407041952743079031045357568.000000 
8.189550 
5.206691 
120.589204 
13.465100 
11.863918 
8.274006 
18.160246 
17.441177 
35.509980 
30.881794 
41.065333 
34.325415 
40.209397 
23.279740 
27.783923 
47.843612 
46.473566 
65.350330 
46.459802 
15.927506 
179.959864 
50.491364 
43.353491 
51.702890 
78.147943 
72.036253 
136.817654 
5.945736 
57973844.446342 
13900755924888788992.000000 
33.355885 
2097874073891929627250543352933777408.000000 
7242498252882052596934415003078868598784.000000 
237709.485006 
721270049038075196611104722700585971344910302838784.000000 
5608053277750619445691979787440254576561750016.000000 
34957196968337617190912.000000 
38552409934631284768882878749303229574789992206109304160256.000000 
34750603470807154769889160380746711810745794276884480.000000 
9274924946821724917404270592.000000 
139923884072050225325477232372644063135269959230435687514213711872.000000 
1175490114016605129718719477118023782002327552.000000 
68364002388378631550851644129280.000000 
511426858042350591517793980190936793360210732253184.000000 
2839541190263360322010901118976.000000 
70389190348936552116679344128.000000 
832541171154771983204352.000000 
82693547.058841 
3340138550012423.000000 
646.608874 
48.668546 
31349.263733 
25.963283 
32.188177 
30.338562 
51.871464 
8.712624 
7.312087 
38.666024 
31.593242 
59.023820 
33.332746 
35.704624 
35.387344 
16.659962 
16.725997 
30.352049 
10.622537 
15.520710 
10.136866 
13.453914 
33.409588 
26.598170 
35.640875 
39.129972 
436684805746541486669824.000000 
33.868456 
20.074313 
1515286866778005760.000000 
36.705657 
24.320361 
457597.688518 
38.793704 
28.955491 
41.653251 
25.986781 
35.403790 
14.341151 
25.378608 
16.977236 
8.761751 
82.848441 
27.059512 
37.489333 
89.033586 
221.002319 
17.428315 
8.114016 
162.650858 
9.036542 
45.527339 
30.837083 
36.672462 
44.060023 
2.011746 
40.701499 
15.088433 
385.061076 
104.418605 
160.119776 
1711298.055305 
83.076884 
42.350430 
43.847401 
124.503365 
11.095727 
86.771667 
55.371274 
31.501666 
37.396096 
27.057087 
18036.572518 
18.576905 
SCALARS ELEM_i float 
LOOKUP_TABLE default 
203 
220 
161 
221 
180 
182 
202 
200 
162 
221 
160 
202 
200 
161 
221 
180 
182 
222 
180 
162 
220 
160 
202 
220 
161 
221 
180 
182 
222 
200 
162 
220 
160 
202 
200 
162 
221 
160 
183 
222 
180 
182 
220 
161 
202 
162 
182 
180 
200 
220 
160 
222 
222 
161 
182 
180 
200 
220 
161 
160 
200 
202 
221 
221 
182 
161 
202 
202 
202 
202 
202 
202 
202 
202 
202 
202 
202 
222 
221 
202 
221 
221 
201 
221 
221 
221 
220 
220 
221 
220 
200 
200 
200 
200 
200 
200 
200 
200 
200 
180 
200 
180 
180 
180 
180 
180 
180 
180 
180 
180 
160 
161 
180 
161 
161 
181 
161 
161 
161 
161 
162 
161 
162 
182 
181 
182 
182 
182 
182 
182 
182 
202 
182 
182 
202 
201 
200 
180 
181 
180 
181 
201 
200 
202 
182 
202 
201 
201 
201 
201 
201 
201 
201 
201 
200 
201 
201 
201 
201 
201 
201 
181 
182 
200 
181 
181 
181 
181 
181 
181 
180 
180 
181 
180 
181 
181 
181 
181 
181 
181 
181 
182 
200 
181 
VECTORS VELOCITY float 
-1.105771 -0.378837 0.000000 
-1.697221 -60.302190 0.000000 
-0.434085 0.837030 0.000000 
0.553865 -0.808652 0.000000 
1.089699 -151.650340 0.000000 
0.587287 -0.833660 0.000000 
0.047350 0.315088 0.000000 
-1.833149 -176.559972 0.000000 
0.529350 -0.611462 0.000000 
0.177980 2.918815 0.000000 
0.063344 -29.104652 0.000000 
1.043958 0.053519 0.000000 
1.556183 -119.588181 0.000000 
0.712174 -1.464691 0.000000 
0.361877 0.372460 0.000000 
-1.872669 -79.205341 0.000000 
0.371560 -0.084678 0.000000 
0.266049 0.485139 0.000000 
1.748408 -191.224822 0.000000 
0.524883 0.363147 0.000000 
0.018875 -3.410358 0.000000 
-0.476857 3.304413 0.000000 
-1.368406 -1.032164 0.000000 
0.611187 -78.862687 0.000000 
-0.123450 0.186341 0.000000 
0.519090 -1.834464 0.000000 
-1.273429 -107.206140 0.000000 
-1.499281 -0.911971 0.000000 
-0.013267 0.722086 0.000000 
-1.404336 -181.989294 0.000000 
0.529097 0.075237 0.000000 
-0.095956 4.018009 0.000000 
-0.707396 -1.675499 0.000000 
0.842060 -0.970862 0.000000 
-1.111317 -158.985186 0.000000 
0.496074 -0.869475 0.000000 
0.672400 1.017376 0.000000 
1.160847 -69.511780 0.000000 
-0.435589 -0.088214 0.000000 
0.429036 -0.195331 0.000000 
2.374429 -181.813129 0.000000 
-0.011964 0.352884 0.000000 
-1.078861 -35.436898 0.000000 
-0.510792 2.489496 0.000000 
0.862076 -0.447187 0.000000 
0.371539 -0.326677 0.000000 
0.099845 -0.818739 0.000000 
-1.207022 -85.520621 0.000000 
1.133355 -99.177469 0.000000 
-0.122700 -10.595747 0.000000 
-0.703082 -2.797194 0.000000 
-0.381204 0.315832 0.000000 
0.216417 -0.140623 0.000000 
0.476154 -1.338971 0.000000 
0.002339 -0.834229 0.000000 
0.287694 -114.899589 0.000000 
2.164269 -61.042183 0.000000 
-0.229402 4.682928 0.000000 
-0.361369 1.906449 0.000000 
0.144442 -30.573429 0.000000 
0.105508 -109.534941 0.000000 
0.169430 0.175645 0.000000 
-0.383520 -0.381102 0.000000 
0.293672 1.872918 0.000000 
-0.262211 0.011610 0.000000 
0.421767 -0.104361 0.000000 
0.302588 -0.321741 0.000000 
0.107504 -0.376722 0.000000 
0.038012 -0.128735 0.000000 
0.053014 -0.657441 0.000000 
-0.002312 -0.423240 0.000000 
-0.032944 -0.634667 0.000000 
0.050732 -0.713662 0.000000 
-0.041312 -0.422778 0.000000 
-0.074656 -0.503218 0.000000 
0.160002 -0.905194 0.000000 
-0.208263 -0.776015 0.000000 
-0.102183 -0.666639 0.000000 
-0.116309 -1.251191 0.000000 
-0.290141 -0.954311 0.000000 
-0.368124 -0.729718 0.000000 
-0.126994 -0.227181 0.000000 
-0.270428 -1.186216 0.000000 
-0.036794 1.509652 0.000000 
-0.332979 3.019428 0.000000 
-0.458126 -0.616532 0.000000 
-0.360383 4.858769 0.000000 
-0.483190 6.196432 0.000000 
-0.694819 1.710281 0.000000 
-0.146391 0.919898 0.000000 
0.228256 -2.079052 0.000000 
-0.167706 6.233212 0.000000 
0.936330 -22.857520 0.000000 
0.758627 -21.593234 0.000000 
-0.049465 7.189867 0.000000 