# vtk DataFile Version 3.0 
vtk output 
ASCII 
DATASET UNSTRUCTURED_GRID 
POINTS 184 float 
-nan -nan 0.000000 
-nan -nan 0.000000 
-nan -nan 0.000000 
-nan -nan 0.000000 
-nan -nan 0.000000 
19.925755 17.276180 0.000000 
-nan -nan 0.000000 
-nan -nan 0.000000 
-nan -nan 0.000000 
-nan -nan 0.000000 
-nan -nan 0.000000 
-nan -nan 0.000000 
-nan -nan 0.000000 
-nan -nan 0.000000 
-nan -nan 0.000000 
-nan -nan 0.000000 
-nan -nan 0.000000 
-nan -nan 0.000000 
-nan -nan 0.000000 
-nan -nan 0.000000 
-nan -nan 0.000000 
-nan -nan 0.000000 
-nan -nan 0.000000 
-nan -nan 0.000000 
-nan -nan 0.000000 
-nan -nan 0.000000 
-nan -nan 0.000000 
-nan -nan 0.000000 
-nan -nan 0.000000 
-nan -nan 0.000000 
-nan -nan 0.000000 
-nan -nan 0.000000 
-nan -nan 0.000000 
-nan -nan 0.000000 
-nan -nan 0.000000 
-nan -nan 0.000000 
-nan -nan 0.000000 
-nan -nan 0.000000 
-nan -nan 0.000000 
-nan -nan 0.000000 
-nan -nan 0.000000 
-nan -nan 0.000000 
-nan -nan 0.000000 
-nan -nan 0.000000 
-nan -nan 0.000000 
-17.419365 15.181355 0.000000 
-nan -nan 0.000000 
-nan -nan 0.000000 
-nan -nan 0.000000 
-nan -nan 0.000000 
-nan -nan 0.000000 
-nan -nan 0.000000 
-nan -nan 0.000000 
-nan -nan 0.000000 
-nan -nan 0.000000 
-nan -nan 0.000000 
-nan -nan 0.000000 
-nan -nan 0.000000 
-nan -nan 0.000000 
-nan -nan 0.000000 
-nan -nan 0.000000 
-nan -nan 0.000000 
-nan -nan 0.000000 
-nan -nan 0.000000 
-nan -nan 0.000000 
-nan -nan 0.000000 
-nan -nan 0.000000 
-nan -nan 0.000000 
-nan -nan 0.000000 
-nan -nan 0.000000 
-nan -nan 0.000000 
-nan -nan 0.000000 
-nan -nan 0.000000 
-nan -nan 0.000000 
-nan -nan 0.000000 
-nan -nan 0.000000 
-nan -nan 0.000000 
-nan -nan 0.000000 
-nan -nan 0.000000 
-nan -nan 0.000000 
-nan -nan 0.000000 
14.224609 22.125000 0.000000 
-nan -nan 0.000000 
-nan -nan 0.000000 
25.213639 -11.558483 0.000000 
-nan -nan 0.000000 
-nan -nan 0.000000 
18.781874 -13.757206 0.000000 
-nan -nan 0.000000 
-nan -nan 0.000000 
-nan -nan 0.000000 
19.328509 -10.683518 0.000000 
-nan -nan 0.000000 
-nan -nan 0.000000 
-nan -nan 0.000000 
22.355469 -15.949219 0.000000 
-nan -nan 0.000000 
-nan -nan 0.000000 
-nan -nan 0.000000 
-nan -nan 0.000000 
-nan -nan 0.000000 
-nan -nan 0.000000 
-nan -nan 0.000000 
-nan -nan 0.000000 
-nan -nan 0.000000 
-nan -nan 0.000000 
-8.121237 21.045551 0.000000 
-nan -nan 0.000000 
-nan -nan 0.000000 
-nan -nan 0.000000 
-nan -nan 0.000000 
-nan -nan 0.000000 
-nan -nan 0.000000 
-nan -nan 0.000000 
-nan -nan 0.000000 
-nan -nan 0.000000 
-nan -nan 0.000000 
-nan -nan 0.000000 
-nan -nan 0.000000 
-nan -nan 0.000000 
-nan -nan 0.000000 
-nan -nan 0.000000 
-nan -nan 0.000000 
-0.481262 -22.450331 0.000000 
-nan -nan 0.000000 
-nan -nan 0.000000 
-nan -nan 0.000000 
-nan -nan 0.000000 
19.257812 21.406250 0.000000 
-nan -nan 0.000000 
-nan -nan 0.000000 
-nan -nan 0.000000 
-nan -nan 0.000000 
-nan -nan 0.000000 
-nan -nan 0.000000 
19.500000 -16.500000 0.000000 
-nan -nan 0.000000 
-nan -nan 0.000000 
-nan -nan 0.000000 
-nan -nan 0.000000 
-nan -nan 0.000000 
-nan -nan 0.000000 
-nan -nan 0.000000 
-nan -nan 0.000000 
-nan -nan 0.000000 
-nan -nan 0.000000 
-nan -nan 0.000000 
-nan -nan 0.000000 
-nan -nan 0.000000 
-nan -nan 0.000000 
-nan -nan 0.000000 
-nan -nan 0.000000 
-nan -nan 0.000000 
-nan -nan 0.000000 
-nan -nan 0.000000 
-nan -nan 0.000000 
-nan -nan 0.000000 
-nan -nan 0.000000 
-nan -nan 0.000000 
20.620837 -21.589736 0.000000 
-nan -nan 0.000000 
-nan -nan 0.000000 
-nan -nan 0.000000 
-nan -nan 0.000000 
-nan -nan 0.000000 
-nan -nan 0.000000 
-nan -nan 0.000000 
-nan -nan 0.000000 
-nan -nan 0.000000 
-nan -nan 0.000000 
-nan -nan 0.000000 
-nan -nan 0.000000 
-nan -nan 0.000000 
-nan -nan 0.000000 
-nan -nan 0.000000 
-nan -nan 0.000000 
-nan -nan 0.000000 
-nan -nan 0.000000 
-nan -nan 0.000000 
-nan -nan 0.000000 
-nan -nan 0.000000 
-nan -nan 0.000000 
-nan -nan 0.000000 
-nan -nan 0.000000 
CELLS 184 368 
1 0 
1 1 
1 2 
1 3 
1 4 
1 5 
1 6 
1 7 
1 8 
1 9 
1 10 
1 11 
1 12 
1 13 
1 14 
1 15 
1 16 
1 17 
1 18 
1 19 
1 20 
1 21 
1 22 
1 23 
1 24 
1 25 
1 26 
1 27 
1 28 
1 29 
1 30 
1 31 
1 32 
1 33 
1 34 
1 35 
1 36 
1 37 
1 38 
1 39 
1 40 
1 41 
1 42 
1 43 
1 44 
1 45 
1 46 
1 47 
1 48 
1 49 
1 50 
1 51 
1 52 
1 53 
1 54 
1 55 
1 56 
1 57 
1 58 
1 59 
1 60 
1 61 
1 62 
1 63 
1 64 
1 65 
1 66 
1 67 
1 68 
1 69 
1 70 
1 71 
1 72 
1 73 
1 74 
1 75 
1 76 
1 77 
1 78 
1 79 
1 80 
1 81 
1 82 
1 83 
1 84 
1 85 
1 86 
1 87 
1 88 
1 89 
1 90 
1 91 
1 92 
1 93 
1 94 
1 95 
1 96 
1 97 
1 98 
1 99 
1 100 
1 101 
1 102 
1 103 
1 104 
1 105 
1 106 
1 107 
1 108 
1 109 
1 110 
1 111 
1 112 
1 113 
1 114 
1 115 
1 116 
1 117 
1 118 
1 119 
1 120 
1 121 
1 122 
1 123 
1 124 
1 125 
1 126 
1 127 
1 128 
1 129 
1 130 
1 131 
1 132 
1 133 
1 134 
1 135 
1 136 
1 137 
1 138 
1 139 
1 140 
1 141 
1 142 
1 143 
1 144 
1 145 
1 146 
1 147 
1 148 
1 149 
1 150 
1 151 
1 152 
1 153 
1 154 
1 155 
1 156 
1 157 
1 158 
1 159 
1 160 
1 161 
1 162 
1 163 
1 164 
1 165 
1 166 
1 167 
1 168 
1 169 
1 170 
1 171 
1 172 
1 173 
1 174 
1 175 
1 176 
1 177 
1 178 
1 179 
1 180 
1 181 
1 182 
1 183 
CELL_TYPES 184 
1 
1 
1 
1 
1 
1 
1 
1 
1 
1 
1 
1 
1 
1 
1 
1 
1 
1 
1 
1 
1 
1 
1 
1 
1 
1 
1 
1 
1 
1 
1 
1 
1 
1 
1 
1 
1 
1 
1 
1 
1 
1 
1 
1 
1 
1 
1 
1 
1 
1 
1 
1 
1 
1 
1 
1 
1 
1 
1 
1 
1 
1 
1 
1 
1 
1 
1 
1 
1 
1 
1 
1 
1 
1 
1 
1 
1 
1 
1 
1 
1 
1 
1 
1 
1 
1 
1 
1 
1 
1 
1 
1 
1 
1 
1 
1 
1 
1 
1 
1 
1 
1 
1 
1 
1 
1 
1 
1 
1 
1 
1 
1 
1 
1 
1 
1 
1 
1 
1 
1 
1 
1 
1 
1 
1 
1 
1 
1 
1 
1 
1 
1 
1 
1 
1 
1 
1 
1 
1 
1 
1 
1 
1 
1 
1 
1 
1 
1 
1 
1 
1 
1 
1 
1 
1 
1 
1 
1 
1 
1 
1 
1 
1 
1 
1 
1 
1 
1 
1 
1 
1 
1 
1 
1 
1 
1 
1 
1 
1 
1 
1 
1 
1 
1 
POINT_DATA 184 
VECTORS X_GC float 
-nan -nan 0.000000 
-nan -nan 0.000000 
-nan -nan 0.000000 
-nan -nan 0.000000 
-nan -nan 0.000000 
19.925755 17.276180 0.000000 
-nan -nan 0.000000 
-nan -nan 0.000000 
-nan -nan 0.000000 
-nan -nan 0.000000 
-nan -nan 0.000000 
-nan -nan 0.000000 
-nan -nan 0.000000 
-nan -nan 0.000000 
-nan -nan 0.000000 
-nan -nan 0.000000 
-nan -nan 0.000000 
-nan -nan 0.000000 
-nan -nan 0.000000 
-nan -nan 0.000000 
-nan -nan 0.000000 
-nan -nan 0.000000 
-nan -nan 0.000000 
-nan -nan 0.000000 
-nan -nan 0.000000 
-nan -nan 0.000000 
-nan -nan 0.000000 
-nan -nan 0.000000 
-nan -nan 0.000000 
-nan -nan 0.000000 
-nan -nan 0.000000 
-nan -nan 0.000000 
-nan -nan 0.000000 
-nan -nan 0.000000 
-nan -nan 0.000000 
-nan -nan 0.000000 
-nan -nan 0.000000 
-nan -nan 0.000000 
-nan -nan 0.000000 
-nan -nan 0.000000 
-nan -nan 0.000000 
-nan -nan 0.000000 
-nan -nan 0.000000 
-nan -nan 0.000000 
-nan -nan 0.000000 
-17.419365 15.181355 0.000000 
-nan -nan 0.000000 
-nan -nan 0.000000 
-nan -nan 0.000000 
-nan -nan 0.000000 
-nan -nan 0.000000 
-nan -nan 0.000000 
-nan -nan 0.000000 
-nan -nan 0.000000 
-nan -nan 0.000000 
-nan -nan 0.000000 
-nan -nan 0.000000 
-nan -nan 0.000000 
-nan -nan 0.000000 
-nan -nan 0.000000 
-nan -nan 0.000000 
-nan -nan 0.000000 
-nan -nan 0.000000 
-nan -nan 0.000000 
-nan -nan 0.000000 
-nan -nan 0.000000 
-nan -nan 0.000000 
-nan -nan 0.000000 
-nan -nan 0.000000 
-nan -nan 0.000000 
-nan -nan 0.000000 
-nan -nan 0.000000 
-nan -nan 0.000000 
-nan -nan 0.000000 
-nan -nan 0.000000 
-nan -nan 0.000000 
-nan -nan 0.000000 
-nan -nan 0.000000 
-nan -nan 0.000000 
-nan -nan 0.000000 
-nan -nan 0.000000 
14.224609 22.125000 0.000000 
-nan -nan 0.000000 
-nan -nan 0.000000 
25.213639 -11.558483 0.000000 
-nan -nan 0.000000 
-nan -nan 0.000000 
18.781874 -13.757206 0.000000 
-nan -nan 0.000000 
-nan -nan 0.000000 
-nan -nan 0.000000 
19.328509 -10.683518 0.000000 
-nan -nan 0.000000 
-nan -nan 0.000000 
-nan -nan 0.000000 
22.355469 -15.949219 0.000000 
-nan -nan 0.000000 
-nan -nan 0.000000 
-nan -nan 0.000000 
-nan -nan 0.000000 
-nan -nan 0.000000 
-nan -nan 0.000000 
-nan -nan 0.000000 
-nan -nan 0.000000 
-nan -nan 0.000000 
-nan -nan 0.000000 
-8.121237 21.045551 0.000000 
-nan -nan 0.000000 
-nan -nan 0.000000 
-nan -nan 0.000000 
-nan -nan 0.000000 
-nan -nan 0.000000 
-nan -nan 0.000000 
-nan -nan 0.000000 
-nan -nan 0.000000 
-nan -nan 0.000000 
-nan -nan 0.000000 
-nan -nan 0.000000 
-nan -nan 0.000000 
-nan -nan 0.000000 
-nan -nan 0.000000 
-nan -nan 0.000000 
-nan -nan 0.000000 
-0.481262 -22.450331 0.000000 
-nan -nan 0.000000 
-nan -nan 0.000000 
-nan -nan 0.000000 
-nan -nan 0.000000 
19.257812 21.406250 0.000000 
-nan -nan 0.000000 
-nan -nan 0.000000 
-nan -nan 0.000000 
-nan -nan 0.000000 
-nan -nan 0.000000 
-nan -nan 0.000000 
19.500000 -16.500000 0.000000 
-nan -nan 0.000000 
-nan -nan 0.000000 
-nan -nan 0.000000 
-nan -nan 0.000000 
-nan -nan 0.000000 
-nan -nan 0.000000 
-nan -nan 0.000000 
-nan -nan 0.000000 
-nan -nan 0.000000 
-nan -nan 0.000000 
-nan -nan 0.000000 
-nan -nan 0.000000 
-nan -nan 0.000000 
-nan -nan 0.000000 
-nan -nan 0.000000 
-nan -nan 0.000000 
-nan -nan 0.000000 
-nan -nan 0.000000 
-nan -nan 0.000000 
-nan -nan 0.000000 
-nan -nan 0.000000 
-nan -nan 0.000000 
-nan -nan 0.000000 
20.620837 -21.589736 0.000000 
-nan -nan 0.000000 
-nan -nan 0.000000 
-nan -nan 0.000000 
-nan -nan 0.000000 
-nan -nan 0.000000 
-nan -nan 0.000000 
-nan -nan 0.000000 
-nan -nan 0.000000 
-nan -nan 0.000000 
-nan -nan 0.000000 
-nan -nan 0.000000 
-nan -nan 0.000000 
-nan -nan 0.000000 
-nan -nan 0.000000 
-nan -nan 0.000000 
-nan -nan 0.000000 
-nan -nan 0.000000 
-nan -nan 0.000000 
-nan -nan 0.000000 
-nan -nan 0.000000 
-nan -nan 0.000000 
-nan -nan 0.000000 
-nan -nan 0.000000 
-nan -nan 0.000000 
VECTORS X_EC float 
-nan -nan 0.000000 
-nan -nan 0.000000 
-nan -nan 0.000000 
-nan -nan 0.000000 
-nan -nan 0.000000 
-0.361677 0.420009 0.000000 
-nan -nan 0.000000 
-nan -nan 0.000000 
-nan -nan 0.000000 
-nan -nan 0.000000 
-nan -nan 0.000000 
-nan -nan 0.000000 
-nan -nan 0.000000 
-nan -nan 0.000000 
-nan -nan 0.000000 
-nan -nan 0.000000 
-nan -nan 0.000000 
-nan -nan 0.000000 
-nan -nan 0.000000 
-nan -nan 0.000000 
-nan -nan 0.000000 
-nan -nan 0.000000 
-nan -nan 0.000000 
-nan -nan 0.000000 
-nan -nan 0.000000 
-nan -nan 0.000000 
-nan -nan 0.000000 
-nan -nan 0.000000 
-nan -nan 0.000000 
-nan -nan 0.000000 
-nan -nan 0.000000 
-nan -nan 0.000000 
-nan -nan 0.000000 
-nan -nan 0.000000 
-nan -nan 0.000000 
-nan -nan 0.000000 
-nan -nan 0.000000 
-nan -nan 0.000000 
-nan -nan 0.000000 
-nan -nan 0.000000 
-nan -nan 0.000000 
-nan -nan 0.000000 
-nan -nan 0.000000 
-nan -nan 0.000000 
-nan -nan 0.000000 
-0.429094 -0.960393 0.000000 
-nan -nan 0.000000 
-nan -nan 0.000000 
-nan -nan 0.000000 
-nan -nan 0.000000 
-nan -nan 0.000000 
-nan -nan 0.000000 
-nan -nan 0.000000 
-nan -nan 0.000000 
-nan -nan 0.000000 
-nan -nan 0.000000 
-nan -nan 0.000000 
-nan -nan 0.000000 
-nan -nan 0.000000 
-nan -nan 0.000000 
-nan -nan 0.000000 
-nan -nan 0.000000 
-nan -nan 0.000000 
-nan -nan 0.000000 
-nan -nan 0.000000 
-nan -nan 0.000000 
-nan -nan 0.000000 
-nan -nan 0.000000 
-nan -nan 0.000000 
-nan -nan 0.000000 
-nan -nan 0.000000 
-nan -nan 0.000000 
-nan -nan 0.000000 
-nan -nan 0.000000 
-nan -nan 0.000000 
-nan -nan 0.000000 
-nan -nan 0.000000 
-nan -nan 0.000000 
-nan -nan 0.000000 
-nan -nan 0.000000 
-nan -nan 0.000000 
-0.209205 -0.981614 0.000000 
-nan -nan 0.000000 
-nan -nan 0.000000 
-0.515058 0.568884 0.000000 
-nan -nan 0.000000 
-nan -nan 0.000000 
0.162916 -0.975982 0.000000 
-nan -nan 0.000000 
-nan -nan 0.000000 
-nan -nan 0.000000 
-0.689660 0.466761 0.000000 
-nan -nan 0.000000 
-nan -nan 0.000000 
-nan -nan 0.000000 
0.103846 -0.684804 0.000000 
-nan -nan 0.000000 
-nan -nan 0.000000 
-nan -nan 0.000000 
-nan -nan 0.000000 
-nan -nan 0.000000 
-nan -nan 0.000000 
-nan -nan 0.000000 
-nan -nan 0.000000 
-nan -nan 0.000000 
-nan -nan 0.000000 
-0.758280 0.172045 0.000000 
-nan -nan 0.000000 
-nan -nan 0.000000 
-nan -nan 0.000000 
-nan -nan 0.000000 
-nan -nan 0.000000 
-nan -nan 0.000000 
-nan -nan 0.000000 
-nan -nan 0.000000 
-nan -nan 0.000000 
-nan -nan 0.000000 
-nan -nan 0.000000 
-nan -nan 0.000000 
-nan -nan 0.000000 
-nan -nan 0.000000 
-nan -nan 0.000000 
-nan -nan 0.000000 
0.356472 -0.457865 0.000000 
-nan -nan 0.000000 
-nan -nan 0.000000 
-nan -nan 0.000000 
-nan -nan 0.000000 
0.577790 0.940808 0.000000 
-nan -nan 0.000000 
-nan -nan 0.000000 
-nan -nan 0.000000 
-nan -nan 0.000000 
-nan -nan 0.000000 
-nan -nan 0.000000 
0.273138 0.608306 0.000000 
-nan -nan 0.000000 
-nan -nan 0.000000 
-nan -nan 0.000000 
-nan -nan 0.000000 
-nan -nan 0.000000 
-nan -nan 0.000000 
-nan -nan 0.000000 
-nan -nan 0.000000 
-nan -nan 0.000000 
-nan -nan 0.000000 
-nan -nan 0.000000 
-nan -nan 0.000000 
-nan -nan 0.000000 
-nan -nan 0.000000 
-nan -nan 0.000000 
-nan -nan 0.000000 
-nan -nan 0.000000 
-nan -nan 0.000000 
-nan -nan 0.000000 
-nan -nan 0.000000 
-nan -nan 0.000000 
-nan -nan 0.000000 
-nan -nan 0.000000 
0.651015 0.866290 0.000000 
-nan -nan 0.000000 
-nan -nan 0.000000 
-nan -nan 0.000000 
-nan -nan 0.000000 
-nan -nan 0.000000 
-nan -nan 0.000000 
-nan -nan 0.000000 
-nan -nan 0.000000 
-nan -nan 0.000000 
-nan -nan 0.000000 
-nan -nan 0.000000 
-nan -nan 0.000000 
-nan -nan 0.000000 
-nan -nan 0.000000 
-nan -nan 0.000000 
-nan -nan 0.000000 
-nan -nan 0.000000 
-nan -nan 0.000000 
-nan -nan 0.000000 
-nan -nan 0.000000 
-nan -nan 0.000000 
-nan -nan 0.000000 
-nan -nan 0.000000 
-nan -nan 0.000000 
CELL_DATA 184 
SCALARS MASS float 
LOOKUP_TABLE default 
0.051252 
0.046008 
0.051531 
0.046188 
0.052854 
0.051531 
0.052854 
0.052854 
0.051531 
0.050859 
0.052854 
0.047395 
0.052854 
0.052854 
0.051434 
0.045995 
0.052854 
0.051281 
0.051530 
0.046441 
0.052854 
0.052854 
0.050612 
0.049065 
0.052975 
0.049197 
0.049245 
0.052975 
0.052990 
0.055938 
0.049713 
0.052094 
0.055938 
0.050456 
0.055938 
0.053198 
0.052878 
0.049051 
0.052807 
0.049481 
0.052974 
0.049465 
0.049257 
0.055938 
0.105225 
0.104629 
0.082126 
0.094264 
0.094771 
0.094259 
0.094771 
0.083366 
0.104047 
0.083092 
0.081316 
0.081315 
0.092719 
0.079469 
0.108073 
0.092710 
0.108073 
0.093129 
0.104035 
0.094961 
0.104398 
0.081316 
0.125285 
0.099128 
0.098320 
0.087841 
0.082650 
0.097481 
0.086914 
0.081921 
0.086680 
0.086680 
0.081485 
0.107769 
0.088711 
0.084874 
0.107874 
0.082612 
0.095190 
0.095229 
0.083942 
0.085089 
0.079923 
0.081132 
0.095301 
0.097917 
0.090576 
0.085268 
0.095896 
0.081062 
0.095454 
0.090083 
0.081027 
0.085251 
0.101961 
0.083022 
0.095445 
0.080604 
0.081018 
0.085240 
0.097826 
0.090495 
0.095435 
0.095845 
0.081023 
0.085241 
0.090072 
0.081024 
0.095436 
0.101966 
0.083028 
0.085242 
0.080610 
0.081024 
0.095437 
0.082345 
0.082694 
0.085242 
0.109264 
0.089885 
0.095437 
0.108636 
0.083028 
0.085242 
0.080610 
0.074817 
0.073569 
0.082490 
0.095437 
0.095617 
0.133784 
0.138292 
0.139667 
0.139695 
0.139694 
0.139689 
0.139693 
0.140105 
0.139774 
0.086622 
0.086622 
0.089038 
0.077179 
0.079159 
0.072465 
0.084345 
0.092656 
0.093083 
0.084037 
0.098826 
0.101847 
0.085968 
0.086444 
0.074619 
0.064825 
0.094138 
0.124406 
0.086607 
0.131576 
0.102571 
0.084703 
0.076503 
0.084191 
0.084191 
0.086793 
0.075696 
0.084714 
0.090949 
0.084009 
0.076569 
0.086383 
0.098391 
0.110757 
0.093222 
0.143196 
0.101090 
0.091038 
0.150913 
0.178131 
0.206980 
SCALARS MASS float 
LOOKUP_TABLE default 
0.051252 
0.046008 
0.051531 
0.046188 
0.052854 
0.051531 
0.052854 
0.052854 
0.051531 
0.050859 
0.052854 
0.047395 
0.052854 
0.052854 
0.051434 
0.045995 
0.052854 
0.051281 
0.051530 
0.046441 
0.052854 
0.052854 
0.050612 
0.049065 
0.052975 
0.049197 
0.049245 
0.052975 
0.052990 
0.055938 
0.049713 
0.052094 
0.055938 
0.050456 
0.055938 
0.053198 
0.052878 
0.049051 
0.052807 
0.049481 
0.052974 
0.049465 
0.049257 
0.055938 
0.105225 
0.104629 
0.082126 
0.094264 
0.094771 
0.094259 
0.094771 
0.083366 
0.104047 
0.083092 
0.081316 
0.081315 
0.092719 
0.079469 
0.108073 
0.092710 
0.108073 
0.093129 
0.104035 
0.094961 
0.104398 
0.081316 
0.125285 
0.099128 
0.098320 
0.087841 
0.082650 
0.097481 
0.086914 
0.081921 
0.086680 
0.086680 
0.081485 
0.107769 
0.088711 
0.084874 
0.107874 
0.082612 
0.095190 
0.095229 
0.083942 
0.085089 
0.079923 
0.081132 
0.095301 
0.097917 
0.090576 
0.085268 
0.095896 
0.081062 
0.095454 
0.090083 
0.081027 
0.085251 
0.101961 
0.083022 
0.095445 
0.080604 
0.081018 
0.085240 
0.097826 
0.090495 
0.095435 
0.095845 
0.081023 
0.085241 
0.090072 
0.081024 
0.095436 
0.101966 
0.083028 
0.085242 
0.080610 
0.081024 
0.095437 
0.082345 
0.082694 
0.085242 
0.109264 
0.089885 
0.095437 
0.108636 
0.083028 
0.085242 
0.080610 
0.074817 
0.073569 
0.082490 
0.095437 
0.095617 
0.133784 
0.138292 
0.139667 
0.139695 
0.139694 
0.139689 
0.139693 
0.140105 
0.139774 
0.086622 
0.086622 
0.089038 
0.077179 
0.079159 
0.072465 
0.084345 
0.092656 
0.093083 
0.084037 
0.098826 
0.101847 
0.085968 
0.086444 
0.074619 
0.064825 
0.094138 
0.124406 
0.086607 
0.131576 
0.102571 
0.084703 
0.076503 
0.084191 
0.084191 
0.086793 
0.075696 
0.084714 
0.090949 
0.084009 
0.076569 
0.086383 
0.098391 
0.110757 
0.093222 
0.143196 
0.101090 
0.091038 
0.150913 
0.178131 
0.206980 
SCALARS DENSITY float 
LOOKUP_TABLE default 
-nan 
-nan 
-nan 
-nan 
-nan 
0.047344 
-nan 
-nan 
-nan 
-nan 
-nan 
-nan 
-nan 
-nan 
-nan 
-nan 
-nan 
-nan 
-nan 
-nan 
-nan 
-nan 
-nan 
-nan 
-nan 
-nan 
-nan 
-nan 
-nan 
-nan 
-nan 
-nan 
-nan 
-nan 
-nan 
-nan 
-nan 
-nan 
-nan 
-nan 
-nan 
-nan 
-nan 
-nan 
-nan 
0.044730 
-nan 
-nan 
-nan 
-nan 
-nan 
-nan 
-nan 
-nan 
-nan 
-nan 
-nan 
-nan 
-nan 
-nan 
-nan 
-nan 
-nan 
-nan 
-nan 
-nan 
-nan 
-nan 
-nan 
-nan 
-nan 
-nan 
-nan 
-nan 
-nan 
-nan 
-nan 
-nan 
-nan 
-nan 
-nan 
0.000000 
-nan 
-nan 
0.075599 
-nan 
-nan 
0.104865 
-nan 
-nan 
-nan 
0.161919 
-nan 
-nan 
-nan 
0.000000 
-nan 
-nan 
-nan 
-nan 
-nan 
-nan 
-nan 
-nan 
-nan 
-nan 
0.049677 
-nan 
-nan 
-nan 
-nan 
-nan 
-nan 
-nan 
-nan 
-nan 
-nan 
-nan 
-nan 
-nan 
-nan 
-nan 
-nan 
0.010312 
-nan 
-nan 
-nan 
-nan 
0.000000 
-nan 
-nan 
-nan 
-nan 
-nan 
-nan 
0.000000 
-nan 
-nan 
-nan 
-nan 
-nan 
-nan 
-nan 
-nan 
-nan 
-nan 
-nan 
-nan 
-nan 
-nan 
-nan 
-nan 
-nan 
-nan 
-nan 
-nan 
-nan 
-nan 
-nan 
0.024027 
-nan 
-nan 
-nan 
-nan 
-nan 
-nan 
-nan 
-nan 
-nan 
-nan 
-nan 
-nan 
-nan 
-nan 
-nan 
-nan 
-nan 
-nan 
-nan 
-nan 
-nan 
-nan 
-nan 
-nan 
SCALARS ELEM_i float 
LOOKUP_TABLE default 
399 
399 
399 
399 
399 
57 
399 
399 
399 
399 
399 
399 
399 
399 
399 
399 
399 
399 
399 
399 
399 
399 
399 
399 
399 
399 
399 
399 
399 
399 
399 
399 
399 
399 
399 
399 
399 
399 
399 
399 
399 
399 
399 
399 
399 
315 
399 
399 
399 
399 
399 
399 
399 
399 
399 
399 
399 
399 
399 
399 
399 
399 
399 
399 
399 
399 
399 
399 
399 
399 
399 
399 
399 
399 
399 
399 
399 
399 
399 
399 
399 
17 
399 
399 
45 
399 
399 
83 
399 
399 
399 
85 
399 
399 
399 
40 
399 
399 
399 
399 
399 
399 
399 
399 
399 
399 
255 
399 
399 
399 
399 
399 
399 
399 
399 
399 
399 
399 
399 
399 
399 
399 
399 
182 
399 
399 
399 
399 
59 
399 
399 
399 
399 
399 
399 
4 
399 
399 
399 
399 
399 
399 
399 
399 
399 
399 
399 
399 
399 
399 
399 
399 
399 
399 
399 
399 
399 
399 
399 
42 
399 
399 
399 
399 
399 
399 
399 
399 
399 
399 
399 
399 
399 
399 
399 
399 
399 
399 
399 
399 
399 
399 
399 
399 
VECTORS VELOCITY float 
-nan -nan 0.000000 
-nan -nan 0.000000 
-nan -nan 0.000000 
-nan -nan 0.000000 
-nan -nan 0.000000 
220.268796 188.271417 0.000000 
-nan -nan 0.000000 
-nan -nan 0.000000 
-nan -nan 0.000000 
-nan -nan 0.000000 
-nan -nan 0.000000 
-nan -nan 0.000000 
-nan -nan 0.000000 
-nan -nan 0.000000 
-nan -nan 0.000000 
-nan -nan 0.000000 
-nan -nan 0.000000 
-nan -nan 0.000000 
-nan -nan 0.000000 
-nan -nan 0.000000 
-nan -nan 0.000000 
-nan -nan 0.000000 
-nan -nan 0.000000 
-nan -nan 0.000000 
-nan -nan 0.000000 
-nan -nan 0.000000 
-nan -nan 0.000000 
-nan -nan 0.000000 
-nan -nan 0.000000 
-nan -nan 0.000000 
-nan -nan 0.000000 
-nan -nan 0.000000 
-nan -nan 0.000000 
-nan -nan 0.000000 
-nan -nan 0.000000 
-nan -nan 0.000000 
-nan -nan 0.000000 
-nan -nan 0.000000 
-nan -nan 0.000000 
-nan -nan 0.000000 
-nan -nan 0.000000 
-nan -nan 0.000000 
-nan -nan 0.000000 
-nan -nan 0.000000 
-nan -nan 0.000000 
-197.921617 166.997849 0.000000 
-nan -nan 0.000000 
-nan -nan 0.000000 
-nan -nan 0.000000 
-nan -nan 0.000000 
-nan -nan 0.000000 
-nan -nan 0.000000 
-nan -nan 0.000000 
-nan -nan 0.000000 
-nan -nan 0.000000 
-nan -nan 0.000000 
-nan -nan 0.000000 
-nan -nan 0.000000 
-nan -nan 0.000000 
-nan -nan 0.000000 
-nan -nan 0.000000 
-nan -nan 0.000000 
-nan -nan 0.000000 
-nan -nan 0.000000 
-nan -nan 0.000000 
-nan -nan 0.000000 
-nan -nan 0.000000 
-nan -nan 0.000000 
-nan -nan 0.000000 
-nan -nan 0.000000 
-nan -nan 0.000000 
-nan -nan 0.000000 
-nan -nan 0.000000 
-nan -nan 0.000000 
-nan -nan 0.000000 
-nan -nan 0.000000 
-nan -nan 0.000000 
-nan -nan 0.000000 
-nan -nan 0.000000 
-nan -nan 0.000000 
-nan -nan 0.000000 
359.250000 240.000000 0.000000 
-nan -nan 0.000000 
-nan -nan 0.000000 
286.079749 -126.882731 0.000000 
-nan -nan 0.000000 
-nan -nan 0.000000 
214.453892 -149.763398 0.000000 
-nan -nan 0.000000 
-nan -nan 0.000000 
-nan -nan 0.000000 
219.688256 -116.137144 0.000000 
-nan -nan 0.000000 
-nan -nan 0.000000 
-nan -nan 0.000000 
251.507812 -196.125000 0.000000 
-nan -nan 0.000000 
-nan -nan 0.000000 
-nan -nan 0.000000 
-nan -nan 0.000000 
-nan -nan 0.000000 
-nan -nan 0.000000 
-nan -nan 0.000000 
-nan -nan 0.000000 
-nan -nan 0.000000 
-nan -nan 0.000000 
-93.562232 242.423618 0.000000 
-nan -nan 0.000000 
-nan -nan 0.000000 
-nan -nan 0.000000 
-nan -nan 0.000000 
-nan -nan 0.000000 
-nan -nan 0.000000 
-nan -nan 0.000000 
-nan -nan 0.000000 
-nan -nan 0.000000 
-nan -nan 0.000000 
-nan -nan 0.000000 
-nan -nan 0.000000 
-nan -nan 0.000000 
-nan -nan 0.000000 
-nan -nan 0.000000 
-nan -nan 0.000000 
-7.222393 -253.705981 0.000000 
-nan -nan 0.000000 
-nan -nan 0.000000 
-nan -nan 0.000000 
-nan -nan 0.000000 
213.000000 241.500000 0.000000 
-nan -nan 0.000000 
-nan -nan 0.000000 
-nan -nan 0.000000 
-nan -nan 0.000000 
-nan -nan 0.000000 
-nan -nan 0.000000 
320.000000 -188.000000 0.000000 
-nan -nan 0.000000 
-nan -nan 0.000000 
-nan -nan 0.000000 
-nan -nan 0.000000 
-nan -nan 0.000000 
-nan -nan 0.000000 
-nan -nan 0.000000 
-nan -nan 0.000000 
-nan -nan 0.000000 
-nan -nan 0.000000 
-nan -nan 0.000000 
-nan -nan 0.000000 
-nan -nan 0.000000 
-nan -nan 0.000000 
-nan -nan 0.000000 
-nan -nan 0.000000 
-nan -nan 0.000000 
-nan -nan 0.000000 
-nan -nan 0.000000 
-nan -nan 0.000000 
-nan -nan 0.000000 
-nan -nan 0.000000 
-nan -nan 0.000000 
230.856113 -240.465762 0.000000 
-nan -nan 0.000000 
-nan -nan 0.000000 
-nan -nan 0.000000 
-nan -nan 0.000000 
-nan -nan 0.000000 
-nan -nan 0.000000 
-nan -nan 0.000000 
-nan -nan 0.000000 
-nan -nan 0.000000 
-nan -nan 0.000000 
-nan -nan 0.000000 
-nan -nan 0.000000 
-nan -nan 0.000000 
-nan -nan 0.000000 
-nan -nan 0.000000 
-nan -nan 0.000000 
-nan -nan 0.000000 
-nan -nan 0.000000 
-nan -nan 0.000000 
-nan -nan 0.000000 
-nan -nan 0.000000 
-nan -nan 0.000000 
-nan -nan 0.000000 
-nan -nan 0.000000 
TENSORS STRESS float 
-nan -nan 0.000000 
0.000000 -nan 0.000000 
0.000000 0.000000 0.000000 

-nan -nan 0.000000 
0.000000 -nan 0.000000 
0.000000 0.000000 0.000000 

-nan -nan 0.000000 
0.000000 -nan 0.000000 
0.000000 0.000000 0.000000 

-nan -nan 0.000000 
0.000000 -nan 0.000000 
0.000000 0.000000 0.000000 

-nan -nan 0.000000 
0.000000 -nan 0.000000 
0.000000 0.000000 0.000000 

79168.689018 -49785.297142 0.000000 
0.000000 113132.219730 0.000000 
0.000000 0.000000 0.000000 

-nan -nan 0.000000 
0.000000 -nan 0.000000 
0.000000 0.000000 0.000000 

-nan -nan 0.000000 
0.000000 -nan 0.000000 
0.000000 0.000000 0.000000 

-nan -nan 0.000000 
0.000000 -nan 0.000000 
0.000000 0.000000 0.000000 

-nan -nan 0.000000 
0.000000 -nan 0.000000 
0.000000 0.000000 0.000000 

-nan -nan 0.000000 
0.000000 -nan 0.000000 
0.000000 0.000000 0.000000 

-nan -nan 0.000000 
0.000000 -nan 0.000000 
0.000000 0.000000 0.000000 

-nan -nan 0.000000 
0.000000 -nan 0.000000 
0.000000 0.000000 0.000000 

-nan -nan 0.000000 
0.000000 -nan 0.000000 
0.000000 0.000000 0.000000 

-nan -nan 0.000000 
0.000000 -nan 0.000000 
0.000000 0.000000 0.000000 

-nan -nan 0.000000 
0.000000 -nan 0.000000 
0.000000 0.000000 0.000000 

-nan -nan 0.000000 
0.000000 -nan 0.000000 
0.000000 0.000000 0.000000 

-nan -nan 0.000000 
0.000000 -nan 0.000000 
0.000000 0.000000 0.000000 

-nan -nan 0.000000 
0.000000 -nan 0.000000 
0.000000 0.000000 0.000000 

-nan -nan 0.000000 
0.000000 -nan 0.000000 
0.000000 0.000000 0.000000 

-nan -nan 0.000000 
0.000000 -nan 0.000000 
0.000000 0.000000 0.000000 

-nan -nan 0.000000 
0.000000 -nan 0.000000 
0.000000 0.000000 0.000000 

-nan -nan 0.000000 
0.000000 -nan 0.000000 
0.000000 0.000000 0.000000 

-nan -nan 0.000000 
0.000000 -nan 0.000000 
0.000000 0.000000 0.000000 

-nan -nan 0.000000 
0.000000 -nan 0.000000 
0.000000 0.000000 0.000000 

-nan -nan 0.000000 
0.000000 -nan 0.000000 
0.000000 0.000000 0.000000 

-nan -nan 0.000000 
0.000000 -nan 0.000000 
0.000000 0.000000 0.000000 

-nan -nan 0.000000 
0.000000 -nan 0.000000 
0.000000 0.000000 0.000000 

-nan -nan 0.000000 
0.000000 -nan 0.000000 
0.000000 0.000000 0.000000 

-nan -nan 0.000000 
0.000000 -nan 0.000000 
0.000000 0.000000 0.000000 

-nan -nan 0.000000 
0.000000 -nan 0.000000 
0.000000 0.000000 0.000000 

-nan -nan 0.000000 
0.000000 -nan 0.000000 
0.000000 0.000000 0.000000 

-nan -nan 0.000000 
0.000000 -nan 0.000000 
0.000000 0.000000 0.000000 

-nan -nan 0.000000 
0.000000 -nan 0.000000 
0.000000 0.000000 0.000000 

-nan -nan 0.000000 
0.000000 -nan 0.000000 
0.000000 0.000000 0.000000 

-nan -nan 0.000000 
0.000000 -nan 0.000000 
0.000000 0.000000 0.000000 

-nan -nan 0.000000 
0.000000 -nan 0.000000 
0.000000 0.000000 0.000000 

-nan -nan 0.000000 
0.000000 -nan 0.000000 
0.000000 0.000000 0.000000 

-nan -nan 0.000000 
0.000000 -nan 0.000000 
0.000000 0.000000 0.000000 

-nan -nan 0.000000 
0.000000 -nan 0.000000 
0.000000 0.000000 0.000000 

-nan -nan 0.000000 
0.000000 -nan 0.000000 
0.000000 0.000000 0.000000 

-nan -nan 0.000000 
0.000000 -nan 0.000000 
0.000000 0.000000 0.000000 

-nan -nan 0.000000 
0.000000 -nan 0.000000 
0.000000 0.000000 0.000000 

-nan -nan 0.000000 
0.000000 -nan 0.000000 
0.000000 0.000000 0.000000 

-nan -nan 0.000000 
0.000000 -nan 0.000000 
0.000000 0.000000 0.000000 

174078.729210 -57998.494164 0.000000 
0.000000 255616.624240 0.000000 
0.000000 0.000000 0.000000 

-nan -nan 0.000000 
0.000000 -nan 0.000000 
0.000000 0.000000 0.000000 

-nan -nan 0.000000 
0.000000 -nan 0.000000 
0.000000 0.000000 0.000000 

-nan -nan 0.000000 
0.000000 -nan 0.000000 
0.000000 0.000000 0.000000 

-nan -nan 0.000000 
0.000000 -nan 0.000000 
0.000000 0.000000 0.000000 

-nan -nan 0.000000 
0.000000 -nan 0.000000 
0.000000 0.000000 0.000000 

-nan -nan 0.000000 
0.000000 -nan 0.000000 
0.000000 0.000000 0.000000 

-nan -nan 0.000000 
0.000000 -nan 0.000000 
0.000000 0.000000 0.000000 

-nan -nan 0.000000 
0.000000 -nan 0.000000 
0.000000 0.000000 0.000000 

-nan -nan 0.000000 
0.000000 -nan 0.000000 
0.000000 0.000000 0.000000 

-nan -nan 0.000000 
0.000000 -nan 0.000000 
0.000000 0.000000 0.000000 

-nan -nan 0.000000 
0.000000 -nan 0.000000 
0.000000 0.000000 0.000000 

-nan -nan 0.000000 
0.000000 -nan 0.000000 
0.000000 0.000000 0.000000 

-nan -nan 0.000000 
0.000000 -nan 0.000000 
0.000000 0.000000 0.000000 

-nan -nan 0.000000 
0.000000 -nan 0.000000 
0.000000 0.000000 0.000000 

-nan -nan 0.000000 
0.000000 -nan 0.000000 
0.000000 0.000000 0.000000 

-nan -nan 0.000000 
0.000000 -nan 0.000000 
0.000000 0.000000 0.000000 

-nan -nan 0.000000 
0.000000 -nan 0.000000 
0.000000 0.000000 0.000000 

-nan -nan 0.000000 
0.000000 -nan 0.000000 
0.000000 0.000000 0.000000 

-nan -nan 0.000000 
0.000000 -nan 0.000000 
0.000000 0.000000 0.000000 

-nan -nan 0.000000 
0.000000 -nan 0.000000 
0.000000 0.000000 0.000000 

-nan -nan 0.000000 
0.000000 -nan 0.000000 
0.000000 0.000000 0.000000 

-nan -nan 0.000000 
0.000000 -nan 0.000000 
0.000000 0.000000 0.000000 

-nan -nan 0.000000 
0.000000 -nan 0.000000 
0.000000 0.000000 0.000000 

-nan -nan 0.000000 
0.000000 -nan 0.000000 
0.000000 0.000000 0.000000 

-nan -nan 0.000000 
0.000000 -nan 0.000000 
0.000000 0.000000 0.000000 

-nan -nan 0.000000 
0.000000 -nan 0.000000 
0.000000 0.000000 0.000000 

-nan -nan 0.000000 
0.000000 -nan 0.000000 
0.000000 0.000000 0.000000 

-nan -nan 0.000000 
0.000000 -nan 0.000000 
0.000000 0.000000 0.000000 

-nan -nan 0.000000 
0.000000 -nan 0.000000 
0.000000 0.000000 0.000000 

-nan -nan 0.000000 
0.000000 -nan 0.000000 
0.000000 0.000000 0.000000 

-nan -nan 0.000000 
0.000000 -nan 0.000000 
0.000000 0.000000 0.000000 

-nan -nan 0.000000 
0.000000 -nan 0.000000 
0.000000 0.000000 0.000000 

-nan -nan 0.000000 
0.000000 -nan 0.000000 
0.000000 0.000000 0.000000 

-nan -nan 0.000000 
0.000000 -nan 0.000000 
0.000000 0.000000 0.000000 

-nan -nan 0.000000 
0.000000 -nan 0.000000 
0.000000 0.000000 0.000000 

-681371029103875072.000000 -3308704700376557.500000 0.000000 
0.000000 -288557376225674240.000000 0.000000 
0.000000 0.000000 0.000000 

-nan -nan 0.000000 
0.000000 -nan 0.000000 
0.000000 0.000000 0.000000 

-nan -nan 0.000000 
0.000000 -nan 0.000000 
0.000000 0.000000 0.000000 

71950.951897 -44292.453433 0.000000 
0.000000 108658.210034 0.000000 
0.000000 0.000000 0.000000 

-nan -nan 0.000000 
0.000000 -nan 0.000000 
0.000000 0.000000 0.000000 

-nan -nan 0.000000 
0.000000 -nan 0.000000 
0.000000 0.000000 0.000000 

51621.876800 16940.273232 0.000000 
0.000000 69573.335227 0.000000 
0.000000 0.000000 0.000000 

-nan -nan 0.000000 
0.000000 -nan 0.000000 
0.000000 0.000000 0.000000 

-nan -nan 0.000000 
0.000000 -nan 0.000000 
0.000000 0.000000 0.000000 

-nan -nan 0.000000 
0.000000 -nan 0.000000 
0.000000 0.000000 0.000000 

30378.219677 -15111.812013 0.000000 
0.000000 43399.911430 0.000000 