# vtk DataFile Version 3.0 
vtk output 
ASCII 
DATASET UNSTRUCTURED_GRID 
POINTS 175 float 
-0.023885 -2.490446 0.000000 
-0.104322 -2.426931 0.000000 
-0.053539 -2.431682 0.000000 
-0.027071 -2.390376 0.000000 
-0.184122 -2.376146 0.000000 
-0.134873 -2.373817 0.000000 
-0.118890 -2.317924 0.000000 
-0.060655 -2.330571 0.000000 
-0.031184 -2.289884 0.000000 
-0.276224 -2.312983 0.000000 
-0.225926 -2.319428 0.000000 
-0.210018 -2.258352 0.000000 
-0.154203 -2.260143 0.000000 
-0.129799 -2.208251 0.000000 
-0.065834 -2.223626 0.000000 
-0.033110 -2.187011 0.000000 
-0.362173 -2.258173 0.000000 
-0.316470 -2.252530 0.000000 
-0.309425 -2.195880 0.000000 
-0.250100 -2.201061 0.000000 
-0.223008 -2.161005 0.000000 
-0.161826 -2.161375 0.000000 
-0.129227 -2.125877 0.000000 
-0.066117 -2.134829 0.000000 
-0.031511 -2.109111 0.000000 
-0.057682 -2.536125 0.000000 
-0.147700 -2.577293 0.000000 
-0.118205 -2.523141 0.000000 
-0.136853 -2.474227 0.000000 
-0.232935 -2.603222 0.000000 
-0.208658 -2.561889 0.000000 
-0.244501 -2.499474 0.000000 
-0.200818 -2.467942 0.000000 
-0.218777 -2.422265 0.000000 
-0.328815 -2.618152 0.000000 
-0.301405 -2.580017 0.000000 
-0.336091 -2.518663 0.000000 
-0.306322 -2.481235 0.000000 
-0.331002 -2.433704 0.000000 
-0.287158 -2.401762 0.000000 
-0.306129 -2.359548 0.000000 
-0.412590 -2.626993 0.000000 
-0.393640 -2.597101 0.000000 
-0.443392 -2.535472 0.000000 
-0.405420 -2.503940 0.000000 
-0.440299 -2.463182 0.000000 
-0.397206 -2.421648 0.000000 
-0.427283 -2.376677 0.000000 
-0.374978 -2.344169 0.000000 
-0.395292 -2.307484 0.000000 
-0.042698 -2.600555 0.000000 
-0.075406 -2.709121 0.000000 
-0.087249 -2.651890 0.000000 
-0.127327 -2.639324 0.000000 
-0.090559 -2.796657 0.000000 
-0.105734 -2.750437 0.000000 
-0.157249 -2.733548 0.000000 
-0.164767 -2.684498 0.000000 
-0.211909 -2.662132 0.000000 
-0.154895 -2.907333 0.000000 
-0.131043 -2.830154 0.000000 
-0.181158 -2.821226 0.000000 
-0.196568 -2.777934 0.000000 
-0.258849 -2.764719 0.000000 
-0.265978 -2.707501 0.000000 
-0.314223 -2.682333 0.000000 
-0.281741 -3.168617 0.000000 
-0.242132 -3.023358 0.000000 
-0.304205 -3.064787 0.000000 
-0.272762 -2.880663 0.000000 
-0.287897 -2.828706 0.000000 
-0.294450 -2.791764 0.000000 
-0.342754 -2.771590 0.000000 
-0.355580 -2.720929 0.000000 
-0.374568 -2.697895 0.000000 
-0.000000 -2.627307 0.000000 
0.034104 -2.730380 0.000000 
0.000000 -2.704468 0.000000 
-0.034104 -2.730380 0.000000 
0.058526 -2.816118 0.000000 
0.031048 -2.791549 0.000000 
0.000000 -2.836222 0.000000 
-0.031048 -2.791549 0.000000 
-0.058526 -2.816118 0.000000 
0.125895 -2.953657 0.000000 
0.078117 -2.911238 0.000000 
0.060537 -3.007740 0.000000 
-0.000000 -2.939428 0.000000 
-0.060537 -3.007740 0.000000 
-0.078117 -2.911238 0.000000 
-0.125895 -2.953657 0.000000 
0.205352 -3.183939 0.000000 
0.138172 -3.072874 0.000000 
0.163406 -3.221749 0.000000 
0.093375 -3.103567 0.000000 
-0.000000 -3.277934 0.000000 
-0.093375 -3.103567 0.000000 
-0.163406 -3.221749 0.000000 
-0.138172 -3.072874 0.000000 
-0.205352 -3.183939 0.000000 
0.042698 -2.600555 0.000000 
0.127327 -2.639324 0.000000 
0.087249 -2.651890 0.000000 
0.075406 -2.709121 0.000000 
0.211909 -2.662132 0.000000 
0.164767 -2.684498 0.000000 
0.157249 -2.733548 0.000000 
0.105734 -2.750437 0.000000 
0.090559 -2.796657 0.000000 
0.314223 -2.682333 0.000000 
0.265978 -2.707501 0.000000 
0.258849 -2.764719 0.000000 
0.196568 -2.777934 0.000000 
0.181158 -2.821226 0.000000 
0.131043 -2.830154 0.000000 
0.154895 -2.907333 0.000000 
0.374568 -2.697895 0.000000 
0.355580 -2.720929 0.000000 
0.342754 -2.771590 0.000000 
0.294450 -2.791764 0.000000 
0.287897 -2.828706 0.000000 
0.272762 -2.880663 0.000000 
0.304205 -3.064787 0.000000 
0.242132 -3.023358 0.000000 
0.281741 -3.168617 0.000000 
0.057682 -2.536125 0.000000 
0.136853 -2.474227 0.000000 
0.118205 -2.523141 0.000000 
0.147700 -2.577293 0.000000 
0.218777 -2.422265 0.000000 
0.200818 -2.467942 0.000000 
0.244501 -2.499474 0.000000 
0.208658 -2.561889 0.000000 
0.232935 -2.603222 0.000000 
0.306129 -2.359548 0.000000 
0.287158 -2.401762 0.000000 
0.331002 -2.433704 0.000000 
0.306322 -2.481235 0.000000 
0.336091 -2.518663 0.000000 
0.301405 -2.580017 0.000000 
0.328815 -2.618152 0.000000 
0.395292 -2.307484 0.000000 
0.374978 -2.344169 0.000000 
0.427283 -2.376677 0.000000 
0.397206 -2.421648 0.000000 
0.440299 -2.463182 0.000000 
0.405420 -2.503940 0.000000 
0.443392 -2.535472 0.000000 
0.393640 -2.597101 0.000000 
0.412590 -2.626993 0.000000 
0.023885 -2.490446 0.000000 
0.027071 -2.390376 0.000000 
0.053539 -2.431682 0.000000 
0.104322 -2.426931 0.000000 
0.031184 -2.289884 0.000000 
0.060655 -2.330571 0.000000 
0.118890 -2.317924 0.000000 
0.134873 -2.373817 0.000000 
0.184122 -2.376146 0.000000 
0.033110 -2.187011 0.000000 
0.065834 -2.223626 0.000000 
0.129799 -2.208251 0.000000 
0.154203 -2.260143 0.000000 
0.210018 -2.258352 0.000000 
0.225926 -2.319428 0.000000 
0.276224 -2.312983 0.000000 
0.031511 -2.109111 0.000000 
0.066117 -2.134829 0.000000 
0.129227 -2.125877 0.000000 
0.161826 -2.161375 0.000000 
0.223008 -2.161005 0.000000 
0.250100 -2.201061 0.000000 
0.309425 -2.195880 0.000000 
0.316470 -2.252530 0.000000 
0.362173 -2.258173 0.000000 
CELLS 175 350 
1 0 
1 1 
1 2 
1 3 
1 4 
1 5 
1 6 
1 7 
1 8 
1 9 
1 10 
1 11 
1 12 
1 13 
1 14 
1 15 
1 16 
1 17 
1 18 
1 19 
1 20 
1 21 
1 22 
1 23 
1 24 
1 25 
1 26 
1 27 
1 28 
1 29 
1 30 
1 31 
1 32 
1 33 
1 34 
1 35 
1 36 
1 37 
1 38 
1 39 
1 40 
1 41 
1 42 
1 43 
1 44 
1 45 
1 46 
1 47 
1 48 
1 49 
1 50 
1 51 
1 52 
1 53 
1 54 
1 55 
1 56 
1 57 
1 58 
1 59 
1 60 
1 61 
1 62 
1 63 
1 64 
1 65 
1 66 
1 67 
1 68 
1 69 
1 70 
1 71 
1 72 
1 73 
1 74 
1 75 
1 76 
1 77 
1 78 
1 79 
1 80 
1 81 
1 82 
1 83 
1 84 
1 85 
1 86 
1 87 
1 88 
1 89 
1 90 
1 91 
1 92 
1 93 
1 94 
1 95 
1 96 
1 97 
1 98 
1 99 
1 100 
1 101 
1 102 
1 103 
1 104 
1 105 
1 106 
1 107 
1 108 
1 109 
1 110 
1 111 
1 112 
1 113 
1 114 
1 115 
1 116 
1 117 
1 118 
1 119 
1 120 
1 121 
1 122 
1 123 
1 124 
1 125 
1 126 
1 127 
1 128 
1 129 
1 130 
1 131 
1 132 
1 133 
1 134 
1 135 
1 136 
1 137 
1 138 
1 139 
1 140 
1 141 
1 142 
1 143 
1 144 
1 145 
1 146 
1 147 
1 148 
1 149 
1 150 
1 151 
1 152 
1 153 
1 154 
1 155 
1 156 
1 157 
1 158 
1 159 
1 160 
1 161 
1 162 
1 163 
1 164 
1 165 
1 166 
1 167 
1 168 
1 169 
1 170 
1 171 
1 172 
1 173 
1 174 
CELL_TYPES 175 
1 
1 
1 
1 
1 
1 
1 
1 
1 
1 
1 
1 
1 
1 
1 
1 
1 
1 
1 
1 
1 
1 
1 
1 
1 
1 
1 
1 
1 
1 
1 
1 
1 
1 
1 
1 
1 
1 
1 
1 
1 
1 
1 
1 
1 
1 
1 
1 
1 
1 
1 
1 
1 
1 
1 
1 
1 
1 
1 
1 
1 
1 
1 
1 
1 
1 
1 
1 
1 
1 
1 
1 
1 
1 
1 
1 
1 
1 
1 
1 
1 
1 
1 
1 
1 
1 
1 
1 
1 
1 
1 
1 
1 
1 
1 
1 
1 
1 
1 
1 
1 
1 
1 
1 
1 
1 
1 
1 
1 
1 
1 
1 
1 
1 
1 
1 
1 
1 
1 
1 
1 
1 
1 
1 
1 
1 
1 
1 
1 
1 
1 
1 
1 
1 
1 
1 
1 
1 
1 
1 
1 
1 
1 
1 
1 
1 
1 
1 
1 
1 
1 
1 
1 
1 
1 
1 
1 
1 
1 
1 
1 
1 
1 
1 
1 
1 
1 
1 
1 
1 
1 
1 
1 
1 
1 
POINT_DATA 175 
VECTORS X_GC float 
-0.023885 -2.490446 0.000000 
-0.104322 -2.426931 0.000000 
-0.053539 -2.431682 0.000000 
-0.027071 -2.390376 0.000000 
-0.184122 -2.376146 0.000000 
-0.134873 -2.373817 0.000000 
-0.118890 -2.317924 0.000000 
-0.060655 -2.330571 0.000000 
-0.031184 -2.289884 0.000000 
-0.276224 -2.312983 0.000000 
-0.225926 -2.319428 0.000000 
-0.210018 -2.258352 0.000000 
-0.154203 -2.260143 0.000000 
-0.129799 -2.208251 0.000000 
-0.065834 -2.223626 0.000000 
-0.033110 -2.187011 0.000000 
-0.362173 -2.258173 0.000000 
-0.316470 -2.252530 0.000000 
-0.309425 -2.195880 0.000000 
-0.250100 -2.201061 0.000000 
-0.223008 -2.161005 0.000000 
-0.161826 -2.161375 0.000000 
-0.129227 -2.125877 0.000000 
-0.066117 -2.134829 0.000000 
-0.031511 -2.109111 0.000000 
-0.057682 -2.536125 0.000000 
-0.147700 -2.577293 0.000000 
-0.118205 -2.523141 0.000000 
-0.136853 -2.474227 0.000000 
-0.232935 -2.603222 0.000000 
-0.208658 -2.561889 0.000000 
-0.244501 -2.499474 0.000000 
-0.200818 -2.467942 0.000000 
-0.218777 -2.422265 0.000000 
-0.328815 -2.618152 0.000000 
-0.301405 -2.580017 0.000000 
-0.336091 -2.518663 0.000000 
-0.306322 -2.481235 0.000000 
-0.331002 -2.433704 0.000000 
-0.287158 -2.401762 0.000000 
-0.306129 -2.359548 0.000000 
-0.412590 -2.626993 0.000000 
-0.393640 -2.597101 0.000000 
-0.443392 -2.535472 0.000000 
-0.405420 -2.503940 0.000000 
-0.440299 -2.463182 0.000000 
-0.397206 -2.421648 0.000000 
-0.427283 -2.376677 0.000000 
-0.374978 -2.344169 0.000000 
-0.395292 -2.307484 0.000000 
-0.042698 -2.600555 0.000000 
-0.075406 -2.709121 0.000000 
-0.087249 -2.651890 0.000000 
-0.127327 -2.639324 0.000000 
-0.090559 -2.796657 0.000000 
-0.105734 -2.750437 0.000000 
-0.157249 -2.733548 0.000000 
-0.164767 -2.684498 0.000000 
-0.211909 -2.662132 0.000000 
-0.154895 -2.907333 0.000000 
-0.131043 -2.830154 0.000000 
-0.181158 -2.821226 0.000000 
-0.196568 -2.777934 0.000000 
-0.258849 -2.764719 0.000000 
-0.265978 -2.707501 0.000000 
-0.314223 -2.682333 0.000000 
-0.281741 -3.168617 0.000000 
-0.242132 -3.023358 0.000000 
-0.304205 -3.064787 0.000000 
-0.272762 -2.880663 0.000000 
-0.287897 -2.828706 0.000000 
-0.294450 -2.791764 0.000000 
-0.342754 -2.771590 0.000000 
-0.355580 -2.720929 0.000000 
-0.374568 -2.697895 0.000000 
-0.000000 -2.627307 0.000000 
0.034104 -2.730380 0.000000 
0.000000 -2.704468 0.000000 
-0.034104 -2.730380 0.000000 
0.058526 -2.816118 0.000000 
0.031048 -2.791549 0.000000 
0.000000 -2.836222 0.000000 
-0.031048 -2.791549 0.000000 
-0.058526 -2.816118 0.000000 
0.125895 -2.953657 0.000000 
0.078117 -2.911238 0.000000 
0.060537 -3.007740 0.000000 
-0.000000 -2.939428 0.000000 
-0.060537 -3.007740 0.000000 
-0.078117 -2.911238 0.000000 
-0.125895 -2.953657 0.000000 
0.205352 -3.183939 0.000000 
0.138172 -3.072874 0.000000 
0.163406 -3.221749 0.000000 
0.093375 -3.103567 0.000000 
-0.000000 -3.277934 0.000000 
-0.093375 -3.103567 0.000000 
-0.163406 -3.221749 0.000000 
-0.138172 -3.072874 0.000000 
-0.205352 -3.183939 0.000000 
0.042698 -2.600555 0.000000 
0.127327 -2.639324 0.000000 
0.087249 -2.651890 0.000000 
0.075406 -2.709121 0.000000 
0.211909 -2.662132 0.000000 
0.164767 -2.684498 0.000000 
0.157249 -2.733548 0.000000 
0.105734 -2.750437 0.000000 
0.090559 -2.796657 0.000000 
0.314223 -2.682333 0.000000 
0.265978 -2.707501 0.000000 
0.258849 -2.764719 0.000000 
0.196568 -2.777934 0.000000 
0.181158 -2.821226 0.000000 
0.131043 -2.830154 0.000000 
0.154895 -2.907333 0.000000 
0.374568 -2.697895 0.000000 
0.355580 -2.720929 0.000000 
0.342754 -2.771590 0.000000 
0.294450 -2.791764 0.000000 
0.287897 -2.828706 0.000000 
0.272762 -2.880663 0.000000 
0.304205 -3.064787 0.000000 
0.242132 -3.023358 0.000000 
0.281741 -3.168617 0.000000 
0.057682 -2.536125 0.000000 
0.136853 -2.474227 0.000000 
0.118205 -2.523141 0.000000 
0.147700 -2.577293 0.000000 
0.218777 -2.422265 0.000000 
0.200818 -2.467942 0.000000 
0.244501 -2.499474 0.000000 
0.208658 -2.561889 0.000000 
0.232935 -2.603222 0.000000 
0.306129 -2.359548 0.000000 
0.287158 -2.401762 0.000000 
0.331002 -2.433704 0.000000 
0.306322 -2.481235 0.000000 
0.336091 -2.518663 0.000000 
0.301405 -2.580017 0.000000 
0.328815 -2.618152 0.000000 
0.395292 -2.307484 0.000000 
0.374978 -2.344169 0.000000 
0.427283 -2.376677 0.000000 
0.397206 -2.421648 0.000000 
0.440299 -2.463182 0.000000 
0.405420 -2.503940 0.000000 
0.443392 -2.535472 0.000000 
0.393640 -2.597101 0.000000 
0.412590 -2.626993 0.000000 
0.023885 -2.490446 0.000000 
0.027071 -2.390376 0.000000 
0.053539 -2.431682 0.000000 
0.104322 -2.426931 0.000000 
0.031184 -2.289884 0.000000 
0.060655 -2.330571 0.000000 
0.118890 -2.317924 0.000000 
0.134873 -2.373817 0.000000 
0.184122 -2.376146 0.000000 
0.033110 -2.187011 0.000000 
0.065834 -2.223626 0.000000 
0.129799 -2.208251 0.000000 
0.154203 -2.260143 0.000000 
0.210018 -2.258352 0.000000 
0.225926 -2.319428 0.000000 
0.276224 -2.312983 0.000000 
0.031511 -2.109111 0.000000 
0.066117 -2.134829 0.000000 
0.129227 -2.125877 0.000000 
0.161826 -2.161375 0.000000 
0.223008 -2.161005 0.000000 
0.250100 -2.201061 0.000000 
0.309425 -2.195880 0.000000 
0.316470 -2.252530 0.000000 
0.362173 -2.258173 0.000000 
VECTORS X_EC float 
0.310503 0.121027 0.000000 
-0.643811 -0.736426 0.000000 
0.696007 -0.672296 0.000000 
0.351924 0.770074 0.000000 
0.393585 0.577967 0.000000 
-0.246651 0.546529 0.000000 
-0.454432 -0.208032 0.000000 
0.788511 -0.037291 0.000000 
0.405398 -0.586568 0.000000 
-0.409090 -0.274730 0.000000 
0.937041 -0.187726 0.000000 
0.730237 0.987753 0.000000 
0.004637 -0.988073 0.000000 
-0.312618 0.311383 0.000000 
0.855838 0.518950 0.000000 
0.430430 0.024646 0.000000 
0.708243 0.985336 0.000000 
0.114112 0.909158 0.000000 
0.022520 0.144387 0.000000 
-0.748699 0.214317 0.000000 
0.899110 -0.326438 0.000000 
0.103742 -0.321439 0.000000 
-0.320051 -0.800663 0.000000 
0.859520 -0.679813 0.000000 
0.409638 0.972995 0.000000 
0.749865 0.737690 0.000000 
-0.079894 -0.706544 0.000000 
-0.463329 0.562397 0.000000 
-0.220912 -0.097932 0.000000 
-0.971841 -0.356502 0.000000 
0.712549 -0.914500 0.000000 
-0.821488 0.242897 0.000000 
0.610639 -0.182777 0.000000 
0.844100 -0.799429 0.000000 
0.274601 -0.154942 0.000000 
-0.081738 -0.669770 0.000000 
0.369187 0.501953 0.000000 
-0.017808 -0.003333 0.000000 
0.303026 -0.644993 0.000000 
-0.266945 0.923784 0.000000 
-0.020328 0.353904 0.000000 
-0.636334 -0.035588 0.000000 
-0.882683 -0.439136 0.000000 
-0.235909 0.728869 0.000000 
-0.729537 0.303184 0.000000 
-0.276114 -0.247046 0.000000 
-0.836325 -0.807746 0.000000 
-0.445327 0.585144 0.000000 
0.874716 0.146275 0.000000 
-0.861201 -0.348965 0.000000 
0.555071 -0.392513 0.000000 
0.980275 -0.926860 0.000000 
-0.865765 0.300518 0.000000 
-0.344745 0.130872 0.000000 
-0.822729 0.254865 0.000000 
-0.625459 -0.369106 0.000000 
0.044242 -0.597103 0.000000 
0.141968 0.740728 0.000000 
0.754818 0.438783 0.000000 
0.013629 -0.251001 0.000000 
-0.296442 0.707073 0.000000 
0.355052 0.586555 0.000000 
0.555387 0.002103 0.000000 
-0.634969 -0.176289 0.000000 
-0.542289 -0.948730 0.000000 
0.084900 0.711493 0.000000 
0.808930 0.945648 0.000000 
0.822002 0.973845 0.000000 
0.315175 0.903630 0.000000 
-0.454097 -0.611054 0.000000 
-0.257344 0.687534 0.000000 
-0.172145 0.188818 0.000000 
0.455798 -0.083531 0.000000 
0.622538 -0.767461 0.000000 
0.869389 0.921586 0.000000 
0.000000 -0.031359 0.000000 
-0.443357 -0.639868 0.000000 
-0.000000 -0.989689 0.000000 
0.443357 -0.639868 0.000000 
-0.760835 0.517594 0.000000 
-0.403628 0.185905 0.000000 
-0.000000 0.788995 0.000000 
0.403628 0.185905 0.000000 
0.760835 0.517593 0.000000 
0.363369 0.374363 0.000000 
0.984484 -0.198284 0.000000 
0.748521 0.978687 0.000000 
0.000000 0.182282 0.000000 
-0.748521 0.978687 0.000000 
-0.984484 -0.198284 0.000000 
-0.363369 0.374363 0.000000 
0.704269 0.937207 0.000000 
-0.724313 0.961051 0.000000 
0.412755 0.887080 0.000000 
0.791852 0.988079 0.000000 
0.000000 0.760633 0.000000 
-0.791852 0.988079 0.000000 
-0.412755 0.887080 0.000000 
0.724313 0.961051 0.000000 
-0.704269 0.937207 0.000000 
-0.555071 -0.392513 0.000000 
0.344745 0.130872 0.000000 
0.865765 0.300518 0.000000 
-0.980275 -0.926860 0.000000 
-0.754818 0.438783 0.000000 
-0.141968 0.740728 0.000000 
-0.044242 -0.597103 0.000000 
0.625459 -0.369106 0.000000 
0.822729 0.254865 0.000000 
-0.084900 0.711493 0.000000 
0.542289 -0.948730 0.000000 
0.634969 -0.176289 0.000000 
-0.555387 0.002103 0.000000 
-0.355052 0.586555 0.000000 
0.296442 0.707073 0.000000 
-0.013629 -0.251001 0.000000 
-0.869389 0.921586 0.000000 
-0.622538 -0.767461 0.000000 
-0.455799 -0.083531 0.000000 
0.172145 0.188818 0.000000 
0.257344 0.687534 0.000000 
0.454097 -0.611054 0.000000 
-0.315175 0.903630 0.000000 
-0.822002 0.973845 0.000000 
-0.808930 0.945648 0.000000 
-0.749865 0.737690 0.000000 
0.220912 -0.097932 0.000000 
0.463329 0.562397 0.000000 
0.079894 -0.706544 0.000000 
-0.844100 -0.799429 0.000000 
-0.610639 -0.182777 0.000000 
0.821488 0.242897 0.000000 
-0.712549 -0.914500 0.000000 
0.971841 -0.356502 0.000000 
0.020328 0.353904 0.000000 
0.266945 0.923784 0.000000 
-0.303026 -0.644993 0.000000 
0.017808 -0.003333 0.000000 
-0.369187 0.501953 0.000000 
0.081738 -0.669770 0.000000 
-0.274601 -0.154942 0.000000 
0.861201 -0.348965 0.000000 
-0.874716 0.146275 0.000000 
0.445327 0.585144 0.000000 
0.836325 -0.807746 0.000000 
0.276114 -0.247046 0.000000 
0.729537 0.303184 0.000000 
0.235909 0.728869 0.000000 
0.882683 -0.439136 0.000000 
0.636334 -0.035588 0.000000 
-0.310502 0.121027 0.000000 
-0.351924 0.770074 0.000000 
-0.696007 -0.672296 0.000000 
0.643811 -0.736426 0.000000 
-0.405398 -0.586568 0.000000 
-0.788511 -0.037291 0.000000 
0.454433 -0.208032 0.000000 
0.246651 0.546529 0.000000 
-0.393585 0.577967 0.000000 
-0.430430 0.024646 0.000000 
-0.855838 0.518950 0.000000 
0.312618 0.311383 0.000000 
-0.004637 -0.988073 0.000000 
-0.730237 0.987753 0.000000 
-0.937041 -0.187726 0.000000 
0.409090 -0.274730 0.000000 
-0.409638 0.972995 0.000000 
-0.859520 -0.679813 0.000000 
0.320051 -0.800663 0.000000 
-0.103742 -0.321439 0.000000 
-0.899110 -0.326438 0.000000 
0.748699 0.214317 0.000000 
-0.022520 0.144387 0.000000 
-0.114112 0.909158 0.000000 
-0.708243 0.985336 0.000000 
CELL_DATA 175 
SCALARS MASS float 
LOOKUP_TABLE default 
0.781831 
0.864274 
0.946717 
0.864274 
0.881307 
0.921110 
0.858535 
0.921110 
0.881307 
0.887046 
0.910001 
0.869829 
0.915556 
0.869829 
0.910001 
0.887046 
0.892784 
0.915740 
0.892784 
0.927218 
0.892784 
0.927218 
0.892784 
0.915740 
0.892784 
0.781831 
0.864274 
0.946717 
0.864274 
0.881307 
0.921110 
0.858535 
0.921110 
0.881307 
0.887046 
0.910001 
0.869829 
0.915556 
0.869829 
0.910001 
0.887046 
0.892784 
0.915740 
0.892784 
0.927218 
0.892784 
0.927218 
0.892784 
0.915740 
0.892784 
0.781831 
0.864274 
0.946717 
0.864274 
0.881307 
0.921110 
0.858535 
0.921110 
0.881307 
0.887046 
0.910001 
0.869829 
0.915556 
0.869829 
0.910001 
0.887046 
0.892784 
0.915740 
0.892784 
0.927218 
0.892784 
0.927218 
0.892784 
0.915740 
0.892784 
0.781831 
0.864274 
0.946717 
0.864274 
0.881307 
0.921110 
0.858535 
0.921110 
0.881307 
0.887046 
0.910001 
0.869829 
0.915556 
0.869829 
0.910001 
0.887046 
0.892784 
0.915740 
0.892784 
0.927218 
0.892784 
0.927218 
0.892784 
0.915740 
0.892784 
0.781831 
0.864274 
0.946717 
0.864274 
0.881307 
0.921110 
0.858535 
0.921110 
0.881307 
0.887046 
0.910001 
0.869829 
0.915556 
0.869829 
0.910001 
0.887046 
0.892784 
0.915740 
0.892784 
0.927218 
0.892784 
0.927218 
0.892784 
0.915740 
0.892784 
0.781831 
0.864274 
0.946717 
0.864274 
0.881307 
0.921110 
0.858535 
0.921110 
0.881307 
0.887046 
0.910001 
0.869829 
0.915556 
0.869829 
0.910001 
0.887046 
0.892784 
0.915740 
0.892784 
0.927218 
0.892784 
0.927218 
0.892784 
0.915740 
0.892784 
0.781831 
0.864274 
0.946717 
0.864274 
0.881307 
0.921110 
0.858535 
0.921110 
0.881307 
0.887046 
0.910001 
0.869829 
0.915556 
0.869829 
0.910001 
0.887046 
0.892784 
0.915740 
0.892784 
0.927218 
0.892784 
0.927218 
0.892784 
0.915740 
0.892784 
SCALARS MASS float 
LOOKUP_TABLE default 
0.781831 
0.864274 
0.946717 
0.864274 
0.881307 
0.921110 
0.858535 
0.921110 
0.881307 
0.887046 
0.910001 
0.869829 
0.915556 
0.869829 
0.910001 
0.887046 
0.892784 
0.915740 
0.892784 
0.927218 
0.892784 
0.927218 
0.892784 
0.915740 
0.892784 
0.781831 
0.864274 
0.946717 
0.864274 
0.881307 
0.921110 
0.858535 
0.921110 
0.881307 
0.887046 
0.910001 
0.869829 
0.915556 
0.869829 
0.910001 
0.887046 
0.892784 
0.915740 
0.892784 
0.927218 
0.892784 
0.927218 
0.892784 
0.915740 
0.892784 
0.781831 
0.864274 
0.946717 
0.864274 
0.881307 
0.921110 
0.858535 
0.921110 
0.881307 
0.887046 
0.910001 
0.869829 
0.915556 
0.869829 
0.910001 
0.887046 
0.892784 
0.915740 
0.892784 
0.927218 
0.892784 
0.927218 
0.892784 
0.915740 
0.892784 
0.781831 
0.864274 
0.946717 
0.864274 
0.881307 
0.921110 
0.858535 
0.921110 
0.881307 
0.887046 
0.910001 
0.869829 
0.915556 
0.869829 
0.910001 
0.887046 
0.892784 
0.915740 
0.892784 
0.927218 
0.892784 
0.927218 
0.892784 
0.915740 
0.892784 
0.781831 
0.864274 
0.946717 
0.864274 
0.881307 
0.921110 
0.858535 
0.921110 
0.881307 
0.887046 
0.910001 
0.869829 
0.915556 
0.869829 
0.910001 
0.887046 
0.892784 
0.915740 
0.892784 
0.927218 
0.892784 
0.927218 
0.892784 
0.915740 
0.892784 
0.781831 
0.864274 
0.946717 
0.864274 
0.881307 
0.921110 
0.858535 
0.921110 
0.881307 
0.887046 
0.910001 
0.869829 
0.915556 
0.869829 
0.910001 
0.887046 
0.892784 
0.915740 
0.892784 
0.927218 
0.892784 
0.927218 
0.892784 
0.915740 
0.892784 
0.781831 
0.864274 
0.946717 
0.864274 
0.881307 
0.921110 
0.858535 
0.921110 
0.881307 
0.887046 
0.910001 
0.869829 
0.915556 
0.869829 
0.910001 
0.887046 
0.892784 
0.915740 
0.892784 
0.927218 
0.892784 
0.927218 
0.892784 
0.915740 
0.892784 
SCALARS DENSITY float 
LOOKUP_TABLE default 
278.540042 
259.685959 
304.998311 
102.410386 
146.285052 
147.041877 
271.627126 
233.889972 
380.308114 
372.454341 
3392.107985 
348.076258 
214.385083 
164.033452 
314.098261 
151.995158 
265.877390 
107.885393 
334.587932 
261.794805 
224.625872 
236.786364 
411.657000 
327.510715 
249.983602 
6900.010422 
384.284034 
299.773270 
128.304819 
157.465567 
1332.464748 
73.641822 
927.945279 
112.041838 
222.234977 
436.217031 
441.757347 
293.542298 
1013.058824 
99.375137 
245.059126 
1154.903063 
166.460555 
1362.071557 
84.096189 
349.749493 
301.965699 
313.169058 
410.276941 
250.062667 
1351.969140 
280.943937 
121.955173 
308.945059 
1888815513.424160 
111.778163 
53.361479 
503.505774 
157.693840 
31714612499247.265625 
1191512366386.375732 
897.033407 
442.212210 
634.778880 
87.358323 
609.541269 
5167914764146892.000000 
18216840.003326 
-19356809.836845 
24364.213428 
601.528630 
109.037113 
1224.138423 
561.191522 
172.168534 
101.346775 
116.025174 
602.360439 
116.025176 
76504169802372.312500 
2296.167493 
29425431873.457745 
2296.166981 
76504233757465.093750 
290246599168687894360489984.000000 
107074336376461541376.000000 
4314615632924886695936.000000 
50706060570.351357 
4314616529009246208000.000000 
107074324131487170560.000000 
290246854009852084965343232.000000 
16965583302586.828125 
-14262108472762073587557166775140627616104448.000000 
494283777103839763206206081990656.000000 
-981617099848925747695621352934163242190564848601118277632.000000 
686519927.714337 
-981609229597547516238696777719361659680645442167946346496.000000 
494283673788728676650427195850752.000000 
-14262069073600170983421782227892168531378176.000000 
16965629085526.335938 
1351.969139 
308.945041 
121.955179 
280.943933 
157.693849 
503.505713 
53.361482 
111.778160 
1888814738.425012 
609.541338 
87.358326 
634.778799 
442.212160 
897.033277 
1191510390047.835449 
31714584227946.832031 
172.168536 
561.191583 
1224.138556 
109.037099 
601.528822 
24364.202214 
-19288196.125528 
18216828.742240 
5167904698781159.000000 
6900.010783 
128.304821 
299.773270 
384.284005 
112.041839 
927.945279 
73.641822 
1332.464724 
157.465575 
245.059120 
99.375138 
1013.058799 
293.542314 
441.757326 
436.217044 
222.234988 
250.062665 
410.276957 
313.169066 
301.965700 
349.749496 
84.096189 
1362.071683 
166.460548 
1154.903204 
278.540032 
102.410384 
304.998310 
259.685979 
380.308117 
233.889972 
271.627130 
147.041876 
146.285051 
151.995159 
314.098274 
164.033451 
214.385076 
348.076261 
3392.108226 
372.454343 
249.983603 
327.510715 
411.657004 
236.786365 
224.625869 
261.794810 
334.587949 
107.885391 
265.877388 
SCALARS ELEM_i float 
LOOKUP_TABLE default 
165 
192 
165 
166 
193 
193 
193 
166 
166 
220 
193 
194 
193 
194 
167 
167 
221 
221 
221 
221 
194 
194 
194 
167 
168 
165 
191 
192 
192 
218 
191 
219 
192 
192 
218 
218 
219 
219 
219 
220 
220 
245 
245 
246 
246 
246 
246 
247 
220 
247 
164 
163 
191 
191 
190 
190 
190 
191 
191 
189 
190 
190 
190 
217 
217 
218 
216 
216 
243 
216 
217 
217 
217 
217 
218 
164 
163 
163 
163 
163 
163 
163 
163 
163 
135 
135 
135 
162 
189 
189 
189 
108 
135 
135 
135 
162 
189 
189 
189 
216 
164 
137 
137 
163 
137 
137 
136 
136 
136 
110 
109 
109 
136 
136 
136 
135 
110 
109 
109 
109 
109 
108 
81 
108 
108 
165 
138 
138 
137 
138 
138 
111 
137 
110 
112 
112 
111 
111 
111 
110 
110 
85 
112 
85 
84 
84 
84 
84 
83 
83 
165 
166 
165 
138 
166 
166 
139 
139 
139 
167 
167 
140 
139 
140 
139 
112 
168 
167 
140 
140 
140 
113 
113 
113 
113 
VECTORS VELOCITY float 
0.383034 6.992503 0.000000 
-1.431879 1.527573 0.000000 
-0.836743 2.740179 0.000000 
1.023689 -0.395064 0.000000 
-0.663774 -1.141652 0.000000 
-0.747268 -1.465709 0.000000 
-0.842377 -1.087143 0.000000 
-0.757179 -0.796023 0.000000 
-0.094584 0.090620 0.000000 
-1.238844 0.993011 0.000000 
-1.130288 -1.492407 0.000000 
0.135353 0.830633 0.000000 
-1.359050 1.147684 0.000000 
-0.515688 4.799215 0.000000 
-1.205521 3.961155 0.000000 
-0.005600 5.205606 0.000000 
-0.886169 0.470558 0.000000 
-0.246829 2.511352 0.000000 
-3.506105 -1.251494 0.000000 
-0.601265 2.672853 0.000000 
-0.495107 -2.226815 0.000000 
-0.298857 2.123838 0.000000 
0.211650 -2.012019 0.000000 
-0.041285 2.677583 0.000000 
0.562461 -2.173985 0.000000 
-0.873935 7.201896 0.000000 
-2.541649 0.404000 0.000000 
-2.646964 6.083905 0.000000 
-2.072788 4.256344 0.000000 
-1.190284 -3.832649 0.000000 
-2.312393 -1.873938 0.000000 
-2.670935 1.109889 0.000000 
-2.366220 1.469876 0.000000 
-2.701803 -0.101920 0.000000 
-2.592581 1.033513 0.000000 
-0.329253 0.869189 0.000000 
1.305465 1.380656 0.000000 
0.559989 2.990609 0.000000 
1.281619 2.836178 0.000000 
-0.853535 1.408608 0.000000 
-0.576402 0.757674 0.000000 
0.206794 4.796792 0.000000 
-1.598406 0.571898 0.000000 
-0.806715 0.523869 0.000000 
0.482835 -0.277673 0.000000 
-0.778367 -2.203875 0.000000 
1.041094 1.334537 0.000000 
0.138316 2.429071 0.000000 
1.221513 3.024554 0.000000 
-1.919518 1.348276 0.000000 
-0.059596 1.014259 0.000000 
-2.319295 1.045300 0.000000 
-3.288347 -1.806699 0.000000 
-1.323043 -1.029434 0.000000 
2.464406 12.613273 0.000000 
1.649844 8.438851 0.000000 
1.633747 4.000372 0.000000 
0.486116 -2.798487 0.000000 
-0.606845 -3.913053 0.000000 
2.067257 -8.068655 0.000000 
4.137358 8.824197 0.000000 
0.093283 9.013696 0.000000 
-1.562582 2.591567 0.000000 
-5.149827 2.303083 0.000000 
-3.451188 -0.629238 0.000000 
-5.873681 1.611554 0.000000 
0.968915 -131.435098 0.000000 
4.661293 -52.667337 0.000000 
7.907821 -63.626925 0.000000 
-1.015309 -2.284789 0.000000 
7.950290 11.920170 0.000000 
2.432888 4.995516 0.000000 
4.605872 6.875936 0.000000 
-2.794683 2.399514 0.000000 
8.440856 4.161940 0.000000 
0.000000 -0.783645 0.000000 
0.954043 4.790356 0.000000 
0.000000 -0.212881 0.000000 
-0.954043 4.790356 0.000000 
-0.219427 13.648128 0.000000 
0.020170 15.745552 0.000000 
-0.000000 9.796794 0.000000 
-0.020171 15.745553 0.000000 
0.219427 13.648129 0.000000 
-0.875748 -18.972497 0.000000 
-1.329625 -4.989100 0.000000 
-1.911607 -36.305259 0.000000 
-0.000000 -12.127851 0.000000 
1.911607 -36.305260 0.000000 
1.329625 -4.989099 0.000000 
0.875748 -18.972497 0.000000 
-3.392517 -140.601222 0.000000 
-1.061037 -73.774739 0.000000 
2.787827 -159.982632 0.000000 
-1.171915 -86.956428 0.000000 
-0.000000 -191.133509 0.000000 
1.171915 -86.956430 0.000000 
-2.787827 -159.982631 0.000000 
1.061037 -73.774738 0.000000 
3.392517 -140.601223 0.000000 
0.059596 1.014259 0.000000 
1.323043 -1.029434 0.000000 
3.288347 -1.806699 0.000000 
2.319296 1.045300 0.000000 
0.606846 -3.913053 0.000000 
-0.486116 -2.798488 0.000000 
-1.633747 4.000372 0.000000 
-1.649844 8.438851 0.000000 
-2.464405 12.613273 0.000000 
5.873680 1.611554 0.000000 
3.451187 -0.629238 0.000000 
5.149827 2.303083 0.000000 
1.562583 2.591567 0.000000 
-0.093282 9.013697 0.000000 
-4.137357 8.824197 0.000000 
-2.067256 -8.068655 0.000000 
-8.440855 4.161940 0.000000 
2.794682 2.399513 0.000000 
-4.605870 6.875934 0.000000 
-2.432888 4.995516 0.000000 
-7.950290 11.920170 0.000000 
1.015309 -2.284791 0.000000 
-7.907827 -63.626925 0.000000 
-4.661291 -52.667339 0.000000 
-0.968914 -131.435099 0.000000 
0.873935 7.201896 0.000000 
2.072788 4.256345 0.000000 
2.646964 6.083905 0.000000 
2.541649 0.404000 0.000000 
2.701803 -0.101920 0.000000 
2.366219 1.469877 0.000000 
2.670935 1.109889 0.000000 
2.312392 -1.873937 0.000000 
1.190284 -3.832649 0.000000 
0.576402 0.757674 0.000000 
0.853536 1.408608 0.000000 
-1.281618 2.836178 0.000000 
-0.559989 2.990609 0.000000 
-1.305465 1.380657 0.000000 
0.329253 0.869190 0.000000 
2.592581 1.033513 0.000000 
1.919518 1.348276 0.000000 
-1.221514 3.024554 0.000000 
-0.138315 2.429071 0.000000 
-1.041094 1.334537 0.000000 
0.778367 -2.203875 0.000000 
-0.482835 -0.277673 0.000000 
0.806715 0.523869 0.000000 
1.598405 0.571898 0.000000 
-0.206795 4.796791 0.000000 
-0.383034 6.992503 0.000000 
-1.023689 -0.395064 0.000000 
0.836742 2.740179 0.000000 
1.431879 1.527573 0.000000 
0.094584 0.090620 0.000000 
0.757179 -0.796023 0.000000 
0.842377 -1.087143 0.000000 
0.747268 -1.465709 0.000000 
0.663774 -1.141652 0.000000 
0.005600 5.205606 0.000000 
1.205521 3.961155 0.000000 
0.515688 4.799215 0.000000 
1.359050 1.147684 0.000000 
-0.135353 0.830633 0.000000 
1.130288 -1.492407 0.000000 
1.238844 0.993011 0.000000 
-0.562461 -2.173985 0.000000 
0.041285 2.677583 0.000000 
-0.211650 -2.012019 0.000000 
0.298857 2.123838 0.000000 
0.495107 -2.226815 0.000000 
0.601265 2.672853 0.000000 
3.506105 -1.251494 0.000000 
0.246829 2.511353 0.000000 
0.886169 0.470558 0.000000 
TENSORS STRESS float 
49.518816 4.098414 0.000000 
0.000000 85.500031 0.000000 
0.000000 0.000000 0.000000 

42.609954 27.082727 0.000000 
0.000000 60.609170 0.000000 
0.000000 0.000000 0.000000 

4.206516 -6.171258 0.000000 
0.000000 32.238963 0.000000 
0.000000 0.000000 0.000000 

25.857194 -7.688647 0.000000 
0.000000 37.534567 0.000000 
0.000000 0.000000 0.000000 

37.156593 23.230487 0.000000 
0.000000 56.683644 0.000000 
0.000000 0.000000 0.000000 
