# vtk DataFile Version 3.0 
vtk output 
ASCII 
DATASET UNSTRUCTURED_GRID 
POINTS 184 float 
-0.029013 -1.940800 0.000000 
-0.349372 -2.740533 0.000000 
0.478412 -2.435596 0.000000 
-0.448404 -2.244167 0.000000 
0.185541 -2.907624 0.000000 
0.222293 -1.994288 0.000000 
-0.284156 -2.033927 0.000000 
-0.117452 -2.953873 0.000000 
0.419337 -2.187613 0.000000 
-0.470071 -2.512463 0.000000 
0.389842 -2.685374 0.000000 
-0.166886 -1.967473 0.000000 
-0.242960 -2.849961 0.000000 
0.465530 -2.308218 0.000000 
-0.477097 -2.379901 0.000000 
0.299087 -2.796622 0.000000 
0.100422 -1.951027 0.000000 
-0.377191 -2.124324 0.000000 
0.048826 -2.990635 0.000000 
0.336772 -2.074726 0.000000 
-0.427037 -2.629399 0.000000 
0.452481 -2.570219 0.000000 
-0.121399 -1.954365 0.000000 
-0.313862 -2.780429 0.000000 
0.477423 -2.388951 0.000000 
-0.462409 -2.288938 0.000000 
0.261910 -2.835438 0.000000 
0.179159 -1.974826 0.000000 
-0.346260 -2.088747 0.000000 
-0.064012 -2.974161 0.000000 
0.367797 -2.110265 0.000000 
-0.458357 -2.556787 0.000000 
0.433765 -2.612336 0.000000 
-0.210019 -1.986960 0.000000 
-0.165043 -2.919016 0.000000 
0.439698 -2.229992 0.000000 
-0.477991 -2.426561 0.000000 
0.333559 -2.757458 0.000000 
0.018379 -1.940849 0.000000 
-0.428133 -2.201802 0.000000 
0.102825 -2.966454 0.000000 
0.300766 -2.044448 0.000000 
-0.379801 -2.701850 0.000000 
0.464598 -2.525662 0.000000 
-0.079560 -1.972220 0.000000 
0.369218 -2.155399 0.000000 
0.048454 -1.968972 0.000000 
0.216993 -2.814608 0.000000 
-0.177757 -2.834230 0.000000 
-0.376607 -2.662128 0.000000 
0.394953 -2.627658 0.000000 
-0.305242 -2.085192 0.000000 
-0.387607 -2.182829 0.000000 
0.427025 -2.268919 0.000000 
0.140072 -1.988367 0.000000 
0.122702 -2.865260 0.000000 
-0.269233 -2.773171 0.000000 
-0.422481 -2.577527 0.000000 
0.445472 -2.484562 0.000000 
0.335539 -2.709942 0.000000 
-0.015505 -2.873158 0.000000 
-0.225619 -2.025224 0.000000 
-0.445425 -2.330853 0.000000 
-0.450288 -2.462363 0.000000 
0.255027 -2.043289 0.000000 
0.448606 -2.359630 0.000000 
-0.079471 -2.028457 0.000000 
-0.130539 -2.071026 0.000000 
-0.191712 -2.066150 0.000000 
-0.112014 -2.129617 0.000000 
-0.224214 -2.120592 0.000000 
-0.171632 -2.157467 0.000000 
-0.055723 -2.143881 0.000000 
-0.279294 -2.130953 0.000000 
-0.040350 -2.199118 0.000000 
-0.015153 -2.103086 0.000000 
-0.297696 -2.189501 0.000000 
-0.350527 -2.218826 0.000000 
-0.353365 -2.283777 0.000000 
-0.256252 -2.227983 0.000000 
-0.393762 -2.332038 0.000000 
-0.373827 -2.391255 0.000000 
-0.287171 -2.284490 0.000000 
-0.399567 -2.449304 0.000000 
-0.365260 -2.495140 0.000000 
-0.316873 -2.391506 0.000000 
-0.376093 -2.551485 0.000000 
-0.329183 -2.584731 0.000000 
-0.311728 -2.455268 0.000000 
-0.325088 -2.643473 0.000000 
-0.267675 -2.666535 0.000000 
-0.277550 -2.559908 0.000000 
-0.244374 -2.717011 0.000000 
-0.179696 -2.719136 0.000000 
-0.238268 -2.608254 0.000000 
-0.141655 -2.765343 0.000000 
-0.078416 -2.749330 0.000000 
-0.150598 -2.672450 0.000000 
-0.022106 -2.782167 0.000000 
0.035726 -2.753326 0.000000 
-0.088169 -2.689809 0.000000 
0.094820 -2.779362 0.000000 
0.135754 -2.736188 0.000000 
0.026580 -2.699070 0.000000 
0.199096 -2.744215 0.000000 
0.231801 -2.694221 0.000000 
0.091538 -2.689071 0.000000 
0.289956 -2.681806 0.000000 
0.303820 -2.623385 0.000000 
0.195045 -2.648140 0.000000 
0.354554 -2.593168 0.000000 
0.352657 -2.533802 0.000000 
0.240744 -2.605891 0.000000 
0.392833 -2.485008 0.000000 
0.374098 -2.427555 0.000000 
0.299095 -2.514665 0.000000 
0.398732 -2.374481 0.000000 
0.363454 -2.329253 0.000000 
0.312122 -2.452249 0.000000 
0.374824 -2.275102 0.000000 
0.327553 -2.236154 0.000000 
0.308407 -2.341034 0.000000 
0.320957 -2.175940 0.000000 
0.261509 -2.147650 0.000000 
0.284139 -2.281237 0.000000 
0.233059 -2.090636 0.000000 
0.170245 -2.084971 0.000000 
0.219712 -2.188912 0.000000 
0.132260 -2.039884 0.000000 
0.077455 -2.050027 0.000000 
0.033299 -2.016457 0.000000 
-0.020376 -2.046116 0.000000 
0.166744 -2.151180 0.000000 
0.047537 -2.103177 0.000000 
-0.185362 -2.206207 0.000000 
-0.270399 -2.332999 0.000000 
-0.040843 -2.667002 0.000000 
0.237630 -2.557307 0.000000 
0.281729 -2.411222 0.000000 
0.117939 -2.649795 0.000000 
0.235654 -2.262309 0.000000 
-0.270586 -2.487529 0.000000 
-0.185872 -2.612102 0.000000 
-0.081093 -2.240197 0.000000 
0.015824 -2.213622 0.000000 
-0.142669 -2.242651 0.000000 
-0.172008 -2.299825 0.000000 
-0.217585 -2.337945 0.000000 
-0.207558 -2.401132 0.000000 
-0.130606 -2.337183 0.000000 
-0.221466 -2.460666 0.000000 
-0.149762 -2.394117 0.000000 
-0.176885 -2.506225 0.000000 
-0.077378 -2.303549 0.000000 
-0.158029 -2.563976 0.000000 
-0.127676 -2.478207 0.000000 
-0.075980 -2.504206 0.000000 
-0.114362 -2.425098 0.000000 
-0.052742 -2.409346 0.000000 
-0.032335 -2.462290 0.000000 
-0.034935 -2.344627 0.000000 
0.031465 -2.269482 0.000000 
0.063063 -2.158304 0.000000 
-0.090613 -2.562008 0.000000 
0.009259 -2.328405 0.000000 
0.052158 -2.378094 0.000000 
0.054209 -2.433381 0.000000 
0.099266 -2.348053 0.000000 
0.011443 -2.476088 0.000000 
0.028740 -2.532547 0.000000 
0.018247 -2.584910 0.000000 
0.079313 -2.610460 0.000000 
0.084534 -2.532818 0.000000 
0.119735 -2.570918 0.000000 
0.181795 -2.544543 0.000000 
0.100004 -2.475742 0.000000 
0.167513 -2.357767 0.000000 
0.088643 -2.289165 0.000000 
0.163590 -2.477938 0.000000 
0.192710 -2.299730 0.000000 
0.132797 -2.257427 0.000000 
0.122808 -2.182152 0.000000 
-0.041698 -2.600567 0.000000 
0.200061 -2.418922 0.000000 
CELLS 184 368 
1 0 
1 1 
1 2 
1 3 
1 4 
1 5 
1 6 
1 7 
1 8 
1 9 
1 10 
1 11 
1 12 
1 13 
1 14 
1 15 
1 16 
1 17 
1 18 
1 19 
1 20 
1 21 
1 22 
1 23 
1 24 
1 25 
1 26 
1 27 
1 28 
1 29 
1 30 
1 31 
1 32 
1 33 
1 34 
1 35 
1 36 
1 37 
1 38 
1 39 
1 40 
1 41 
1 42 
1 43 
1 44 
1 45 
1 46 
1 47 
1 48 
1 49 
1 50 
1 51 
1 52 
1 53 
1 54 
1 55 
1 56 
1 57 
1 58 
1 59 
1 60 
1 61 
1 62 
1 63 
1 64 
1 65 
1 66 
1 67 
1 68 
1 69 
1 70 
1 71 
1 72 
1 73 
1 74 
1 75 
1 76 
1 77 
1 78 
1 79 
1 80 
1 81 
1 82 
1 83 
1 84 
1 85 
1 86 
1 87 
1 88 
1 89 
1 90 
1 91 
1 92 
1 93 
1 94 
1 95 
1 96 
1 97 
1 98 
1 99 
1 100 
1 101 
1 102 
1 103 
1 104 
1 105 
1 106 
1 107 
1 108 
1 109 
1 110 
1 111 
1 112 
1 113 
1 114 
1 115 
1 116 
1 117 
1 118 
1 119 
1 120 
1 121 
1 122 
1 123 
1 124 
1 125 
1 126 
1 127 
1 128 
1 129 
1 130 
1 131 
1 132 
1 133 
1 134 
1 135 
1 136 
1 137 
1 138 
1 139 
1 140 
1 141 
1 142 
1 143 
1 144 
1 145 
1 146 
1 147 
1 148 
1 149 
1 150 
1 151 
1 152 
1 153 
1 154 
1 155 
1 156 
1 157 
1 158 
1 159 
1 160 
1 161 
1 162 
1 163 
1 164 
1 165 
1 166 
1 167 
1 168 
1 169 
1 170 
1 171 
1 172 
1 173 
1 174 
1 175 
1 176 
1 177 
1 178 
1 179 
1 180 
1 181 
1 182 
1 183 
CELL_TYPES 184 
1 
1 
1 
1 
1 
1 
1 
1 
1 
1 
1 
1 
1 
1 
1 
1 
1 
1 
1 
1 
1 
1 
1 
1 
1 
1 
1 
1 
1 
1 
1 
1 
1 
1 
1 
1 
1 
1 
1 
1 
1 
1 
1 
1 
1 
1 
1 
1 
1 
1 
1 
1 
1 
1 
1 
1 
1 
1 
1 
1 
1 
1 
1 
1 
1 
1 
1 
1 
1 
1 
1 
1 
1 
1 
1 
1 
1 
1 
1 
1 
1 
1 
1 
1 
1 
1 
1 
1 
1 
1 
1 
1 
1 
1 
1 
1 
1 
1 
1 
1 
1 
1 
1 
1 
1 
1 
1 
1 
1 
1 
1 
1 
1 
1 
1 
1 
1 
1 
1 
1 
1 
1 
1 
1 
1 
1 
1 
1 
1 
1 
1 
1 
1 
1 
1 
1 
1 
1 
1 
1 
1 
1 
1 
1 
1 
1 
1 
1 
1 
1 
1 
1 
1 
1 
1 
1 
1 
1 
1 
1 
1 
1 
1 
1 
1 
1 
1 
1 
1 
1 
1 
1 
1 
1 
1 
1 
1 
1 
1 
1 
1 
1 
1 
1 
POINT_DATA 184 
VECTORS X_GC float 
-0.029013 -1.940800 0.000000 
-0.349372 -2.740533 0.000000 
0.478412 -2.435596 0.000000 
-0.448404 -2.244167 0.000000 
0.185541 -2.907624 0.000000 
0.222293 -1.994288 0.000000 
-0.284156 -2.033927 0.000000 
-0.117452 -2.953873 0.000000 
0.419337 -2.187613 0.000000 
-0.470071 -2.512463 0.000000 
0.389842 -2.685374 0.000000 
-0.166886 -1.967473 0.000000 
-0.242960 -2.849961 0.000000 
0.465530 -2.308218 0.000000 
-0.477097 -2.379901 0.000000 
0.299087 -2.796622 0.000000 
0.100422 -1.951027 0.000000 
-0.377191 -2.124324 0.000000 
0.048826 -2.990635 0.000000 
0.336772 -2.074726 0.000000 
-0.427037 -2.629399 0.000000 
0.452481 -2.570219 0.000000 
-0.121399 -1.954365 0.000000 
-0.313862 -2.780429 0.000000 
0.477423 -2.388951 0.000000 
-0.462409 -2.288938 0.000000 
0.261910 -2.835438 0.000000 
0.179159 -1.974826 0.000000 
-0.346260 -2.088747 0.000000 
-0.064012 -2.974161 0.000000 
0.367797 -2.110265 0.000000 
-0.458357 -2.556787 0.000000 
0.433765 -2.612336 0.000000 
-0.210019 -1.986960 0.000000 
-0.165043 -2.919016 0.000000 
0.439698 -2.229992 0.000000 
-0.477991 -2.426561 0.000000 
0.333559 -2.757458 0.000000 
0.018379 -1.940849 0.000000 
-0.428133 -2.201802 0.000000 
0.102825 -2.966454 0.000000 
0.300766 -2.044448 0.000000 
-0.379801 -2.701850 0.000000 
0.464598 -2.525662 0.000000 
-0.079560 -1.972220 0.000000 
0.369218 -2.155399 0.000000 
0.048454 -1.968972 0.000000 
0.216993 -2.814608 0.000000 
-0.177757 -2.834230 0.000000 
-0.376607 -2.662128 0.000000 
0.394953 -2.627658 0.000000 
-0.305242 -2.085192 0.000000 
-0.387607 -2.182829 0.000000 
0.427025 -2.268919 0.000000 
0.140072 -1.988367 0.000000 
0.122702 -2.865260 0.000000 
-0.269233 -2.773171 0.000000 
-0.422481 -2.577527 0.000000 
0.445472 -2.484562 0.000000 
0.335539 -2.709942 0.000000 
-0.015505 -2.873158 0.000000 
-0.225619 -2.025224 0.000000 
-0.445425 -2.330853 0.000000 
-0.450288 -2.462363 0.000000 
0.255027 -2.043289 0.000000 
0.448606 -2.359630 0.000000 
-0.079471 -2.028457 0.000000 
-0.130539 -2.071026 0.000000 
-0.191712 -2.066150 0.000000 
-0.112014 -2.129617 0.000000 
-0.224214 -2.120592 0.000000 
-0.171632 -2.157467 0.000000 
-0.055723 -2.143881 0.000000 
-0.279294 -2.130953 0.000000 
-0.040350 -2.199118 0.000000 
-0.015153 -2.103086 0.000000 
-0.297696 -2.189501 0.000000 
-0.350527 -2.218826 0.000000 
-0.353365 -2.283777 0.000000 
-0.256252 -2.227983 0.000000 
-0.393762 -2.332038 0.000000 
-0.373827 -2.391255 0.000000 
-0.287171 -2.284490 0.000000 
-0.399567 -2.449304 0.000000 
-0.365260 -2.495140 0.000000 
-0.316873 -2.391506 0.000000 
-0.376093 -2.551485 0.000000 
-0.329183 -2.584731 0.000000 
-0.311728 -2.455268 0.000000 
-0.325088 -2.643473 0.000000 
-0.267675 -2.666535 0.000000 
-0.277550 -2.559908 0.000000 
-0.244374 -2.717011 0.000000 
-0.179696 -2.719136 0.000000 
-0.238268 -2.608254 0.000000 
-0.141655 -2.765343 0.000000 
-0.078416 -2.749330 0.000000 
-0.150598 -2.672450 0.000000 
-0.022106 -2.782167 0.000000 
0.035726 -2.753326 0.000000 
-0.088169 -2.689809 0.000000 
0.094820 -2.779362 0.000000 
0.135754 -2.736188 0.000000 
0.026580 -2.699070 0.000000 
0.199096 -2.744215 0.000000 
0.231801 -2.694221 0.000000 
0.091538 -2.689071 0.000000 
0.289956 -2.681806 0.000000 
0.303820 -2.623385 0.000000 
0.195045 -2.648140 0.000000 
0.354554 -2.593168 0.000000 
0.352657 -2.533802 0.000000 
0.240744 -2.605891 0.000000 
0.392833 -2.485008 0.000000 
0.374098 -2.427555 0.000000 
0.299095 -2.514665 0.000000 
0.398732 -2.374481 0.000000 
0.363454 -2.329253 0.000000 
0.312122 -2.452249 0.000000 
0.374824 -2.275102 0.000000 
0.327553 -2.236154 0.000000 
0.308407 -2.341034 0.000000 
0.320957 -2.175940 0.000000 
0.261509 -2.147650 0.000000 
0.284139 -2.281237 0.000000 
0.233059 -2.090636 0.000000 
0.170245 -2.084971 0.000000 
0.219712 -2.188912 0.000000 
0.132260 -2.039884 0.000000 
0.077455 -2.050027 0.000000 
0.033299 -2.016457 0.000000 
-0.020376 -2.046116 0.000000 
0.166744 -2.151180 0.000000 
0.047537 -2.103177 0.000000 
-0.185362 -2.206207 0.000000 
-0.270399 -2.332999 0.000000 
-0.040843 -2.667002 0.000000 
0.237630 -2.557307 0.000000 
0.281729 -2.411222 0.000000 
0.117939 -2.649795 0.000000 
0.235654 -2.262309 0.000000 
-0.270586 -2.487529 0.000000 
-0.185872 -2.612102 0.000000 
-0.081093 -2.240197 0.000000 
0.015824 -2.213622 0.000000 
-0.142669 -2.242651 0.000000 
-0.172008 -2.299825 0.000000 
-0.217585 -2.337945 0.000000 
-0.207558 -2.401132 0.000000 
-0.130606 -2.337183 0.000000 
-0.221466 -2.460666 0.000000 
-0.149762 -2.394117 0.000000 
-0.176885 -2.506225 0.000000 
-0.077378 -2.303549 0.000000 
-0.158029 -2.563976 0.000000 
-0.127676 -2.478207 0.000000 
-0.075980 -2.504206 0.000000 
-0.114362 -2.425098 0.000000 
-0.052742 -2.409346 0.000000 
-0.032335 -2.462290 0.000000 
-0.034935 -2.344627 0.000000 
0.031465 -2.269482 0.000000 
0.063063 -2.158304 0.000000 
-0.090613 -2.562008 0.000000 
0.009259 -2.328405 0.000000 
0.052158 -2.378094 0.000000 
0.054209 -2.433381 0.000000 
0.099266 -2.348053 0.000000 
0.011443 -2.476088 0.000000 
0.028740 -2.532547 0.000000 
0.018247 -2.584910 0.000000 
0.079313 -2.610460 0.000000 
0.084534 -2.532818 0.000000 
0.119735 -2.570918 0.000000 
0.181795 -2.544543 0.000000 
0.100004 -2.475742 0.000000 
0.167513 -2.357767 0.000000 
0.088643 -2.289165 0.000000 
0.163590 -2.477938 0.000000 
0.192710 -2.299730 0.000000 
0.132797 -2.257427 0.000000 
0.122808 -2.182152 0.000000 
-0.041698 -2.600567 0.000000 
0.200061 -2.418922 0.000000 
VECTORS X_EC float 
-0.806578 -0.061336 0.000000 
-0.670851 -0.729779 0.000000 
-0.189413 -0.762691 0.000000 
-0.010641 -0.038890 0.000000 
-0.236941 0.384162 0.000000 
-0.481955 0.295254 0.000000 
0.894371 0.559514 0.000000 
-0.216989 0.692485 0.000000 
0.204422 -0.415912 0.000000 
0.133804 -0.250247 0.000000 
0.401053 0.902490 0.000000 
0.112575 0.116488 0.000000 
0.619734 -0.000261 0.000000 
-0.103534 0.388121 0.000000 
0.180647 0.866007 0.000000 
-0.993911 -0.355852 0.000000 
0.330519 0.006846 0.000000 
-0.485396 -0.837840 0.000000 
0.674495 0.937567 0.000000 
0.754856 0.831505 0.000000 
-0.153090 0.529325 0.000000 
-0.016542 0.134794 0.000000 
-0.190673 0.029103 0.000000 
-0.907585 -0.463808 0.000000 
-0.182822 0.926342 0.000000 
0.082726 0.259586 0.000000 
-0.746064 -0.097083 0.000000 
-0.194394 0.165508 0.000000 
-0.691599 0.924982 0.000000 
-0.573253 0.827740 0.000000 
0.548019 -0.931566 0.000000 
0.055715 0.045247 0.000000 
0.108233 0.415571 0.000000 
0.400124 0.246402 0.000000 
0.100287 0.460109 0.000000 
0.068677 -0.133384 0.000000 
0.186604 -0.822927 0.000000 
0.776270 -0.616946 0.000000 
0.877473 -0.061004 0.000000 
-0.145780 -0.321320 0.000000 
0.314502 0.776363 0.000000 
0.994892 0.629653 0.000000 
-0.467994 -0.987670 0.000000 
-0.097318 -0.162255 0.000000 
-0.469599 0.148133 0.000000 
0.538548 -0.630672 0.000000 
0.676973 0.126483 0.000000 
-0.446618 -0.235947 0.000000 
0.185050 -0.105135 0.000000 
-0.489284 0.747518 0.000000 
0.366982 0.517719 0.000000 
-0.965052 0.901278 0.000000 
-0.415956 -0.447807 0.000000 
0.153165 0.126124 0.000000 
0.066188 0.255780 0.000000 
0.181986 0.101732 0.000000 
0.794885 -0.512195 0.000000 
-0.183461 0.183511 0.000000 
0.030185 -0.436251 0.000000 
0.763072 -0.933723 0.000000 
-0.896637 0.154388 0.000000 
0.504126 0.501492 0.000000 
-0.030500 0.539022 0.000000 
0.001918 -0.584244 0.000000 
-0.700181 0.621925 0.000000 
0.009290 0.730866 0.000000 
-0.470196 0.523048 0.000000 
-0.129743 0.806840 0.000000 
0.278081 0.774334 0.000000 
-0.253237 -0.802554 0.000000 
0.494762 -0.862723 0.000000 
0.144211 -0.616887 0.000000 
-0.628516 -0.707462 0.000000 
0.861962 -0.793649 0.000000 
-0.730999 -0.339213 0.000000 
-0.898980 -0.979424 0.000000 
0.984640 -0.403324 0.000000 
-0.663150 -0.207824 0.000000 
-0.644231 0.225183 0.000000 
0.708345 -0.146782 0.000000 
-0.374921 0.546919 0.000000 
-0.507820 0.941702 0.000000 
0.914476 0.229936 0.000000 
-0.336217 -0.671304 0.000000 
-0.564936 -0.365736 0.000000 
-0.887513 0.943373 0.000000 
-0.492714 0.009901 0.000000 
-0.805445 0.231542 0.000000 
-0.921812 -0.631546 0.000000 
-0.832747 0.623151 0.000000 
0.784497 0.776897 0.000000 
0.850336 0.066054 0.000000 
0.629160 -0.886592 0.000000 
0.197971 -0.872424 0.000000 
0.588451 0.388357 0.000000 
-0.055630 -0.564379 0.000000 
-0.477224 -0.671134 0.000000 
0.003990 0.816332 0.000000 
-0.852627 -0.452217 0.000000 
0.761830 -0.644490 0.000000 
-0.412207 0.932059 0.000000 
0.367863 -0.470920 0.000000 
0.094974 -0.758746 0.000000 
0.822801 0.993797 0.000000 
-0.327308 -0.705231 0.000000 
-0.545338 0.961472 0.000000 
0.389744 0.927142 0.000000 
-0.933043 0.878706 0.000000 
0.974535 0.489234 0.000000 
-0.300300 0.654263 0.000000 
0.636307 0.287784 0.000000 
0.648952 -0.107987 0.000000 
-0.604959 0.372606 0.000000 
0.381116 -0.433280 0.000000 
0.506016 -0.816300 0.000000 
-0.993969 -0.235563 0.000000 
0.341784 0.829874 0.000000 
0.576974 0.528353 0.000000 
0.919188 -0.651672 0.000000 
0.501172 0.167345 0.000000 
0.816314 -0.092307 0.000000 
0.943950 0.606897 0.000000 
0.860285 -0.493735 0.000000 
-0.743394 -0.682331 0.000000 
-0.894262 0.208248 0.000000 
-0.553725 0.937571 0.000000 
-0.134967 0.899807 0.000000 
-0.464746 -0.407256 0.000000 
0.118264 0.599229 0.000000 
0.483632 0.666846 0.000000 
0.778006 0.443044 0.000000 
-0.864157 0.640775 0.000000 
-0.111623 -0.658803 0.000000 
0.683089 -0.978818 0.000000 
0.235745 -0.291951 0.000000 
0.802657 0.553324 0.000000 
-0.727711 0.780010 0.000000 
-0.584201 0.048713 0.000000 
-0.878193 -0.925187 0.000000 
0.213740 0.665301 0.000000 
-0.571029 0.082057 0.000000 
0.803905 -0.416474 0.000000 
0.239144 0.414011 0.000000 
-0.459380 -0.065351 0.000000 
0.894508 -0.242518 0.000000 
-0.048876 -0.048995 0.000000 
0.146721 0.332165 0.000000 
0.450570 0.586302 0.000000 
0.383722 -0.992453 0.000000 
-0.129290 0.581218 0.000000 
0.476443 -0.595560 0.000000 
-0.001584 0.960781 0.000000 
0.179232 -0.291832 0.000000 
-0.484147 0.356995 0.000000 
0.053525 0.093172 0.000000 
-0.148828 -0.478621 0.000000 
-0.493469 -0.305295 0.000000 
-0.237585 -0.832679 0.000000 
-0.648388 -0.937696 0.000000 
-0.784433 -0.584731 0.000000 
-0.767100 0.630850 0.000000 
0.790232 0.129877 0.000000 
0.579582 -0.611310 0.000000 
-0.395911 0.080050 0.000000 
0.938276 0.522698 0.000000 
0.652283 0.853957 0.000000 
0.638607 -0.777457 0.000000 
0.338224 0.653685 0.000000 
0.923711 -0.492744 0.000000 
0.808397 -0.116352 0.000000 
0.878351 0.232733 0.000000 
0.471250 0.403065 0.000000 
0.436440 -0.114544 0.000000 
0.201765 0.139457 0.000000 
-0.211969 -0.036379 0.000000 
0.333304 -0.495051 0.000000 
-0.116756 0.718445 0.000000 
0.409047 0.261099 0.000000 
-0.090597 -0.480411 0.000000 
-0.284731 0.331536 0.000000 
0.114690 0.049511 0.000000 
0.181277 -0.452323 0.000000 
-0.722010 0.337115 0.000000 
-0.333741 -0.873853 0.000000 
CELL_DATA 184 
SCALARS MASS float 
LOOKUP_TABLE default 
0.051252 
0.046008 
0.051531 
0.046188 
0.052854 
0.051531 
0.052854 
0.052854 
0.051531 
0.050859 
0.052854 
0.047395 
0.052854 
0.052854 
0.051434 
0.045995 
0.052854 
0.051281 
0.051530 
0.046441 
0.052854 
0.052854 
0.050612 
0.049065 
0.052975 
0.049197 
0.049245 
0.052975 
0.052990 
0.055938 
0.049713 
0.052094 
0.055938 
0.050456 
0.055938 
0.053198 
0.052878 
0.049051 
0.052807 
0.049481 
0.052974 
0.049465 
0.049257 
0.055938 
0.105225 
0.104629 
0.082126 
0.094264 
0.094771 
0.094259 
0.094771 
0.083366 
0.104047 
0.083092 
0.081316 
0.081315 
0.092719 
0.079469 
0.108073 
0.092710 
0.108073 
0.093129 
0.104035 
0.094961 
0.104398 
0.081316 
0.125285 
0.099128 
0.098320 
0.087841 
0.082650 
0.097481 
0.086914 
0.081921 
0.086680 
0.086680 
0.081485 
0.107769 
0.088711 
0.084874 
0.107874 
0.082612 
0.095190 
0.095229 
0.083942 
0.085089 
0.079923 
0.081132 
0.095301 
0.097917 
0.090576 
0.085268 
0.095896 
0.081062 
0.095454 
0.090083 
0.081027 
0.085251 
0.101961 
0.083022 
0.095445 
0.080604 
0.081018 
0.085240 
0.097826 
0.090495 
0.095435 
0.095845 
0.081023 
0.085241 
0.090072 
0.081024 
0.095436 
0.101966 
0.083028 
0.085242 
0.080610 
0.081024 
0.095437 
0.082345 
0.082694 
0.085242 
0.109264 
0.089885 
0.095437 
0.108636 
0.083028 
0.085242 
0.080610 
0.074817 
0.073569 
0.082490 
0.095437 
0.095617 
0.133784 
0.138292 
0.139667 
0.139695 
0.139694 
0.139689 
0.139693 
0.140105 
0.139774 
0.086622 
0.086622 
0.089038 
0.077179 
0.079159 
0.072465 
0.084345 
0.092656 
0.093083 
0.084037 
0.098826 
0.101847 
0.085968 
0.086444 
0.074619 
0.064825 
0.094138 
0.124406 
0.086607 
0.131576 
0.102571 
0.084703 
0.076503 
0.084191 
0.084191 
0.086793 
0.075696 
0.084714 
0.090949 
0.084009 
0.076569 
0.086383 
0.098391 
0.110757 
0.093222 
0.143196 
0.101090 
0.091038 
0.150913 
0.178131 
0.206980 
SCALARS MASS float 
LOOKUP_TABLE default 
0.051252 
0.046008 
0.051531 
0.046188 
0.052854 
0.051531 
0.052854 
0.052854 
0.051531 
0.050859 
0.052854 
0.047395 
0.052854 
0.052854 
0.051434 
0.045995 
0.052854 
0.051281 
0.051530 
0.046441 
0.052854 
0.052854 
0.050612 
0.049065 
0.052975 
0.049197 
0.049245 
0.052975 
0.052990 
0.055938 
0.049713 
0.052094 
0.055938 
0.050456 
0.055938 
0.053198 
0.052878 
0.049051 
0.052807 
0.049481 
0.052974 
0.049465 
0.049257 
0.055938 
0.105225 
0.104629 
0.082126 
0.094264 
0.094771 
0.094259 
0.094771 
0.083366 
0.104047 
0.083092 
0.081316 
0.081315 
0.092719 
0.079469 
0.108073 
0.092710 
0.108073 
0.093129 
0.104035 
0.094961 
0.104398 
0.081316 
0.125285 
0.099128 
0.098320 
0.087841 
0.082650 
0.097481 
0.086914 
0.081921 
0.086680 
0.086680 
0.081485 
0.107769 
0.088711 
0.084874 
0.107874 
0.082612 
0.095190 
0.095229 
0.083942 
0.085089 
0.079923 
0.081132 
0.095301 
0.097917 
0.090576 
0.085268 
0.095896 
0.081062 
0.095454 
0.090083 
0.081027 
0.085251 
0.101961 
0.083022 
0.095445 
0.080604 
0.081018 
0.085240 
0.097826 
0.090495 
0.095435 
0.095845 
0.081023 
0.085241 
0.090072 
0.081024 
0.095436 
0.101966 
0.083028 
0.085242 
0.080610 
0.081024 
0.095437 
0.082345 
0.082694 
0.085242 
0.109264 
0.089885 
0.095437 
0.108636 
0.083028 
0.085242 
0.080610 
0.074817 
0.073569 
0.082490 
0.095437 
0.095617 
0.133784 
0.138292 
0.139667 
0.139695 
0.139694 
0.139689 
0.139693 
0.140105 
0.139774 
0.086622 
0.086622 
0.089038 
0.077179 
0.079159 
0.072465 
0.084345 
0.092656 
0.093083 
0.084037 
0.098826 
0.101847 
0.085968 
0.086444 
0.074619 
0.064825 
0.094138 
0.124406 
0.086607 
0.131576 
0.102571 
0.084703 
0.076503 
0.084191 
0.084191 
0.086793 
0.075696 
0.084714 
0.090949 
0.084009 
0.076569 
0.086383 
0.098391 
0.110757 
0.093222 
0.143196 
0.101090 
0.091038 
0.150913 
0.178131 
0.206980 
SCALARS DENSITY float 
LOOKUP_TABLE default 
20.221704 
28.887504 
20.044138 
20.725163 
711.854264 
20.364614 
20.338427 
1412.155489 
20.686473 
21.074428 
22.493350 
20.301443 
194.511857 
20.564672 
20.385639 
60.669024 
20.290032 
20.542368 
3466.248596 
20.386130 
21.968460 
21.673877 
20.276940 
56.967463 
20.359361 
20.645311 
122.904846 
20.340920 
20.398328 
3308.161287 
20.381292 
21.607920 
21.956069 
20.319021 
669.098580 
20.665354 
20.165308 
35.612631 
20.217904 
20.700170 
3570.708208 
20.377649 
22.363257 
21.199132 
20.230376 
20.598834 
20.214064 
79.274495 
113.823370 
22.202616 
22.166060 
20.328041 
20.660875 
20.615456 
20.286913 
376.426430 
43.402014 
21.762651 
20.170519 
23.706379 
761.838874 
20.300211 
20.471591 
19.819175 
20.346792 
20.396108 
20.185154 
20.190209 
20.241142 
20.195973 
20.257158 
20.298745 
20.134562 
20.374477 
19.876723 
20.076278 
20.433164 
20.439434 
20.417027 
20.512503 
20.352022 
20.119116 
20.607382 
19.652786 
20.840425 
19.992691 
21.728992 
21.974280 
19.375297 
22.225108 
19.902104 
21.284554 
19.821918 
20.577596 
20.315491 
30.461059 
24.252080 
18.778909 
46.411293 
28.802336 
18.053787 
51.392971 
22.611036 
17.759275 
27.608189 
19.576778 
18.389733 
20.234968 
21.107010 
19.679215 
22.117158 
21.762452 
20.514181 
20.207097 
19.965527 
21.499366 
20.279120 
20.350417 
19.474727 
20.518416 
20.427992 
20.234502 
20.492448 
20.450949 
20.595705 
20.274943 
20.216944 
20.252684 
20.225268 
20.159182 
20.149364 
20.125758 
20.264687 
20.073950 
20.226894 
20.540792 
17.905353 
21.029615 
20.344662 
18.976237 
20.587328 
21.111600 
19.784507 
20.556527 
20.061822 
20.566846 
20.597356 
20.539184 
20.451812 
20.549149 
20.583711 
20.467567 
21.803684 
20.601821 
20.100888 
21.608756 
22.189441 
20.540816 
20.456502 
21.772976 
20.548668 
20.564489 
20.056908 
19.515074 
20.464798 
20.393137 
20.725205 
20.450672 
22.296853 
20.657922 
18.719728 
19.006287 
20.854176 
19.740418 
20.857635 
21.619521 
20.448405 
20.543818 
21.142108 
20.547308 
20.566860 
20.036709 
18.645253 
20.360752 
SCALARS ELEM_i float 
LOOKUP_TABLE default 
203 
220 
161 
222 
180 
183 
203 
200 
162 
221 
161 
203 
200 
162 
222 
180 
183 
222 
180 
163 
221 
161 
203 
220 
162 
222 
180 
183 
223 
200 
162 
221 
161 
203 
200 
162 
221 
160 
183 
222 
180 
163 
220 
161 
203 
162 
183 
180 
200 
221 
161 
223 
222 
162 
183 
180 
200 
221 
161 
160 
200 
203 
222 
221 
183 
162 
203 
203 
203 
202 
202 
202 
202 
202 
202 
202 
202 
222 
222 
202 
222 
222 
202 
221 
221 
222 
221 
221 
221 
221 
201 
201 
200 
200 
201 
200 
200 
201 
200 
180 
201 
180 
180 
181 
180 
181 
181 
181 
161 
181 
161 
161 
181 
161 
161 
181 
162 
162 
161 
162 
162 
162 
162 
182 
182 
183 
183 
182 
183 
183 
183 
203 
182 
182 
202 
202 
201 
181 
181 
181 
182 
201 
201 
202 
182 
202 
202 
202 
201 
202 
201 
202 
201 
202 
201 
201 
201 
201 
201 
201 
202 
182 
182 
201 
182 
182 
181 
182 
181 
181 
181 
181 
181 
181 
181 
181 
182 
182 
181 
182 
182 
182 
201 
181 
VECTORS VELOCITY float 
-0.038268 -5.544836 0.000000 
-1.450985 -5.428144 0.000000 
0.064959 -5.226771 0.000000 
0.198330 -5.177606 0.000000 
3.793827 -56.718759 0.000000 
-0.017095 -5.211820 0.000000 
-0.030838 -5.195604 0.000000 
-3.809010 -79.339786 0.000000 
-0.146892 -5.073453 0.000000 
-0.904013 -4.849875 0.000000 
1.205303 -3.460655 0.000000 
-0.060351 -5.257453 0.000000 
-1.535969 -32.354662 0.000000 
-0.112096 -5.130572 0.000000 
0.201650 -5.357431 0.000000 
0.508383 -16.047964 0.000000 
-0.011559 -5.383593 0.000000 
0.151421 -5.131512 0.000000 
2.451755 -101.402586 0.000000 
-0.019464 -4.996335 0.000000 
-1.756143 -3.936764 0.000000 
1.074833 -4.651228 0.000000 
-0.056890 -5.338909 0.000000 
-0.720468 -12.773892 0.000000 
-0.099939 -5.278280 0.000000 
0.210131 -5.225220 0.000000 
1.438216 -27.489294 0.000000 
-0.008952 -5.250756 0.000000 
0.033154 -5.090491 0.000000 
-2.534966 -91.191524 0.000000 
-0.105062 -5.013369 0.000000 
-1.331713 -4.581517 0.000000 
1.244685 -4.338810 0.000000 
-0.056604 -5.206131 0.000000 
-3.685563 -61.599283 0.000000 
-0.111837 -5.051791 0.000000 
0.097251 -5.350280 0.000000 
0.872473 -8.255232 0.000000 
-0.026579 -5.570076 0.000000 
0.193192 -5.172718 0.000000 
4.021380 -86.760869 0.000000 
-0.059610 -5.231052 0.000000 
-1.502933 -3.014706 0.000000 
0.809611 -4.847897 0.000000 
-0.039165 -5.449561 0.000000 
-0.140197 -5.223436 0.000000 
-0.018666 -5.514752 0.000000 
0.791563 -18.353044 0.000000 
-0.937029 -23.707103 0.000000 
-1.245192 -3.402773 0.000000 
1.007026 -4.000304 0.000000 
0.013877 -5.298332 0.000000 
0.110271 -5.251370 0.000000 
-0.028681 -5.155210 0.000000 
-0.015356 -5.352226 0.000000 
1.735985 -34.634328 0.000000 
0.093215 -9.269096 0.000000 
-1.243245 -4.361359 0.000000 
0.528681 -4.966511 0.000000 
0.604413 -2.680746 0.000000 
-0.201915 -35.185183 0.000000 
-0.032185 -5.262720 0.000000 
0.091941 -5.305034 0.000000 
-0.368036 -5.097393 0.000000 
-0.051267 -5.293249 0.000000 
-0.009353 -5.276408 0.000000 
-0.015997 -5.496422 0.000000 
0.001121 -5.473983 0.000000 
-0.002470 -5.395571 0.000000 
0.022239 -5.537302 0.000000 
0.029893 -5.479556 0.000000 
-0.009291 -5.477501 0.000000 
0.022063 -5.519977 0.000000 
0.024817 -5.475516 0.000000 
0.025800 -5.339622 0.000000 
0.011094 -5.611152 0.000000 
-0.190490 -5.426641 0.000000 
-0.131302 -5.301163 0.000000 
-0.254273 -5.340773 0.000000 
-0.281352 -5.381511 0.000000 
-0.151587 -5.352258 0.000000 
-0.341094 -5.434507 0.000000 
-0.453181 -5.419834 0.000000 
-0.410581 -5.206872 0.000000 
-0.568184 -4.947503 0.000000 
-0.638658 -5.464109 0.000000 
-0.693388 -4.529849 0.000000 
-0.392797 -4.088047 0.000000 
-0.708315 -5.183126 0.000000 
-0.404590 -3.365816 0.000000 
-0.080331 -2.285343 0.000000 
-0.165728 -4.301093 0.000000 
-0.034453 -1.061315 0.000000 
-0.059554 0.649028 0.000000 
-0.116449 -3.131882 0.000000 
-0.006655 -2.813217 0.000000 
-0.058443 1.859385 0.000000 
-0.090577 0.067983 0.000000 
-0.060077 -1.240228 0.000000 
-0.057482 3.019823 0.000000 
-0.098144 2.153952 0.000000 
0.110523 -3.612986 0.000000 
0.017708 1.175627 0.000000 
-0.080486 4.149711 0.000000 
0.074053 -1.602196 0.000000 
0.126924 -0.875500 0.000000 
-0.007669 2.065872 0.000000 
0.185672 -2.337930 0.000000 
0.222315 -3.466270 0.000000 
0.111575 -1.493942 0.000000 
0.573316 -4.118990 0.000000 
0.469892 -4.725139 0.000000 
0.169876 -3.183462 0.000000 
0.535067 -5.016344 0.000000 
0.404468 -5.455620 0.000000 
0.385400 -4.884573 0.000000 
0.199589 -5.410258 0.000000 
0.263110 -5.416895 0.000000 
0.649857 -5.351625 0.000000 
0.136755 -5.308295 0.000000 
0.196536 -5.395270 0.000000 
0.483985 -5.558658 0.000000 
-0.006556 -5.444633 0.000000 
-0.070486 -5.531251 0.000000 
0.358754 -5.531077 0.000000 
-0.076355 -5.445907 0.000000 
-0.051612 -5.482257 0.000000 
0.080874 -5.462811 0.000000 
-0.027913 -5.445092 0.000000 
-0.018995 -5.526916 0.000000 
-0.014102 -5.566673 0.000000 
-0.005190 -5.592859 0.000000 
-0.027078 -5.516906 0.000000 
-0.008920 -5.593849 0.000000 
-0.137479 -5.374428 0.000000 
-0.515888 -5.509444 0.000000 
-0.091355 1.984980 0.000000 
0.191657 -4.328864 0.000000 
0.632827 -5.724756 0.000000 
0.038243 -0.235317 0.000000 
0.279473 -5.529441 0.000000 
-0.490554 -5.202355 0.000000 
-0.102766 -2.546862 0.000000 
-0.040310 -5.456679 0.000000 
0.078992 -5.360438 0.000000 
-0.137063 -5.444278 0.000000 
-0.247228 -5.627647 0.000000 
-0.398673 -5.648829 0.000000 
-0.463391 -5.849336 0.000000 
-0.188847 -5.860118 0.000000 
-0.499989 -5.667997 0.000000 
-0.286009 -6.042213 0.000000 
-0.230366 -5.587150 0.000000 
-0.052201 -5.801784 0.000000 
-0.101903 -4.025642 0.000000 
-0.218307 -6.200126 0.000000 
-0.084039 -6.195853 0.000000 
-0.200796 -6.303944 0.000000 
-0.004805 -6.486049 0.000000 
0.023609 -6.860900 0.000000 
0.041930 -6.137700 0.000000 
0.122558 -5.668158 0.000000 
0.018807 -5.475990 0.000000 
-0.068116 -3.992286 0.000000 
0.132725 -6.093816 0.000000 
0.220912 -6.325367 0.000000 
0.250127 -6.665104 0.000000 
0.260279 -6.038328 0.000000 
0.106760 -6.980783 0.000000 
0.025513 -5.457198 0.000000 