# vtk DataFile Version 3.0 
vtk output 
ASCII 
DATASET UNSTRUCTURED_GRID 
POINTS 184 float 
-0.030191 -2.045858 0.000000 
-0.352537 -2.908815 0.000000 
0.472058 -2.544643 0.000000 
-0.447523 -2.356543 0.000000 
0.177042 -3.093257 0.000000 
0.222710 -2.098836 0.000000 
-0.285187 -2.139007 0.000000 
-0.112112 -3.132217 0.000000 
0.417755 -2.295149 0.000000 
-0.461039 -2.623138 0.000000 
0.385093 -2.827885 0.000000 
-0.170152 -2.072238 0.000000 
-0.232974 -3.032389 0.000000 
0.464349 -2.419550 0.000000 
-0.471579 -2.493942 0.000000 
0.285982 -2.962824 0.000000 
0.104619 -2.054706 0.000000 
-0.379691 -2.228884 0.000000 
0.048744 -3.156279 0.000000 
0.337080 -2.178934 0.000000 
-0.419538 -2.744085 0.000000 
0.443339 -2.674955 0.000000 
-0.125114 -2.059185 0.000000 
-0.308221 -2.951876 0.000000 
0.472326 -2.498965 0.000000 
-0.459423 -2.405029 0.000000 
0.249205 -3.015408 0.000000 
0.181634 -2.078875 0.000000 
-0.348675 -2.192676 0.000000 
-0.059966 -3.141854 0.000000 
0.367254 -2.214998 0.000000 
-0.448490 -2.665594 0.000000 
0.424274 -2.722915 0.000000 
-0.210890 -2.091768 0.000000 
-0.158422 -3.102667 0.000000 
0.437832 -2.339657 0.000000 
-0.471001 -2.539762 0.000000 
0.329516 -2.933371 0.000000 
0.019471 -2.045675 0.000000 
-0.428944 -2.310656 0.000000 
0.099471 -3.142613 0.000000 
0.301735 -2.148867 0.000000 
-0.381416 -2.849392 0.000000 
0.456253 -2.632121 0.000000 
-0.081414 -2.075593 0.000000 
0.368216 -2.261489 0.000000 
0.049327 -2.071898 0.000000 
0.207599 -2.980030 0.000000 
-0.170072 -3.002840 0.000000 
-0.370819 -2.781185 0.000000 
0.386151 -2.738105 0.000000 
-0.305994 -2.190752 0.000000 
-0.388366 -2.290282 0.000000 
0.425021 -2.379976 0.000000 
0.140057 -2.091866 0.000000 
0.117814 -3.034192 0.000000 
-0.259510 -2.924673 0.000000 
-0.412924 -2.683248 0.000000 
0.438377 -2.591314 0.000000 
0.328822 -2.848360 0.000000 
-0.012509 -3.027505 0.000000 
-0.226612 -2.129432 0.000000 
-0.442611 -2.443953 0.000000 
-0.442716 -2.573430 0.000000 
0.255385 -2.147531 0.000000 
0.445042 -2.469287 0.000000 
-0.080413 -2.130564 0.000000 
-0.131341 -2.174685 0.000000 
-0.192528 -2.170446 0.000000 
-0.112390 -2.233843 0.000000 
-0.224240 -2.226106 0.000000 
-0.171458 -2.262817 0.000000 
-0.056269 -2.247502 0.000000 
-0.278934 -2.237302 0.000000 
-0.040778 -2.302993 0.000000 
-0.015984 -2.205843 0.000000 
-0.296179 -2.297091 0.000000 
-0.349388 -2.327593 0.000000 
-0.350347 -2.395009 0.000000 
-0.254464 -2.335605 0.000000 
-0.390303 -2.444075 0.000000 
-0.368342 -2.502137 0.000000 
-0.284064 -2.393590 0.000000 
-0.392830 -2.558625 0.000000 
-0.358168 -2.600791 0.000000 
-0.311697 -2.500672 0.000000 
-0.367937 -2.655124 0.000000 
-0.321480 -2.683497 0.000000 
-0.305839 -2.560527 0.000000 
-0.316666 -2.746360 0.000000 
-0.259648 -2.771076 0.000000 
-0.271177 -2.658060 0.000000 
-0.236201 -2.841083 0.000000 
-0.173364 -2.843255 0.000000 
-0.232325 -2.704923 0.000000 
-0.135888 -2.905008 0.000000 
-0.074681 -2.880382 0.000000 
-0.145668 -2.781293 0.000000 
-0.019672 -2.918189 0.000000 
0.035703 -2.883252 0.000000 
-0.084778 -2.803985 0.000000 
0.092143 -2.920199 0.000000 
0.131534 -2.865173 0.000000 
0.026614 -2.815588 0.000000 
0.192105 -2.878497 0.000000 
0.224760 -2.807659 0.000000 
0.089308 -2.802721 0.000000 
0.281580 -2.789139 0.000000 
0.296766 -2.719084 0.000000 
0.190344 -2.749154 0.000000 
0.347128 -2.691096 0.000000 
0.346112 -2.634615 0.000000 
0.235685 -2.700800 0.000000 
0.386450 -2.589807 0.000000 
0.368855 -2.534361 0.000000 
0.293609 -2.614021 0.000000 
0.394403 -2.483682 0.000000 
0.360769 -2.438455 0.000000 
0.307116 -2.556081 0.000000 
0.372800 -2.384880 0.000000 
0.325935 -2.343825 0.000000 
0.304587 -2.450026 0.000000 
0.320053 -2.282365 0.000000 
0.261003 -2.253271 0.000000 
0.282051 -2.388888 0.000000 
0.233065 -2.195275 0.000000 
0.170041 -2.188957 0.000000 
0.218780 -2.294619 0.000000 
0.131973 -2.142692 0.000000 
0.076937 -2.152439 0.000000 
0.032476 -2.117844 0.000000 
-0.021281 -2.147832 0.000000 
0.166088 -2.255895 0.000000 
0.046803 -2.206215 0.000000 
-0.184547 -2.312406 0.000000 
-0.266463 -2.442618 0.000000 
-0.039010 -2.776577 0.000000 
0.232959 -2.654329 0.000000 
0.277505 -2.517004 0.000000 
0.115274 -2.753416 0.000000 
0.233996 -2.369117 0.000000 
-0.265113 -2.589923 0.000000 
-0.181016 -2.709819 0.000000 
-0.080973 -2.345113 0.000000 
0.015075 -2.317199 0.000000 
-0.141893 -2.348636 0.000000 
-0.170159 -2.406949 0.000000 
-0.214437 -2.446162 0.000000 
-0.204098 -2.506995 0.000000 
-0.128943 -2.443137 0.000000 
-0.217224 -2.563892 0.000000 
-0.147392 -2.498733 0.000000 
-0.173162 -2.606841 0.000000 
-0.076883 -2.408641 0.000000 
-0.154282 -2.662201 0.000000 
-0.125162 -2.579400 0.000000 
-0.074382 -2.604111 0.000000 
-0.112442 -2.527795 0.000000 
-0.052065 -2.511012 0.000000 
-0.031826 -2.562555 0.000000 
-0.034894 -2.447754 0.000000 
0.030675 -2.373724 0.000000 
0.062298 -2.261977 0.000000 
-0.088393 -2.660455 0.000000 
0.008545 -2.431554 0.000000 
0.051063 -2.480224 0.000000 
0.053172 -2.534337 0.000000 
0.097570 -2.452394 0.000000 
0.011159 -2.575800 0.000000 
0.028274 -2.631467 0.000000 
0.018110 -2.683105 0.000000 
0.077771 -2.709151 0.000000 
0.082986 -2.631592 0.000000 
0.117422 -2.668347 0.000000 
0.178315 -2.642535 0.000000 
0.098233 -2.576154 0.000000 
0.164985 -2.463372 0.000000 
0.087465 -2.394333 0.000000 
0.160744 -2.578744 0.000000 
0.190703 -2.406456 0.000000 
0.131593 -2.362899 0.000000 
0.121975 -2.286719 0.000000 
-0.040394 -2.699231 0.000000 
0.196937 -2.522799 0.000000 
CELLS 184 368 
1 0 
1 1 
1 2 
1 3 
1 4 
1 5 
1 6 
1 7 
1 8 
1 9 
1 10 
1 11 
1 12 
1 13 
1 14 
1 15 
1 16 
1 17 
1 18 
1 19 
1 20 
1 21 
1 22 
1 23 
1 24 
1 25 
1 26 
1 27 
1 28 
1 29 
1 30 
1 31 
1 32 
1 33 
1 34 
1 35 
1 36 
1 37 
1 38 
1 39 
1 40 
1 41 
1 42 
1 43 
1 44 
1 45 
1 46 
1 47 
1 48 
1 49 
1 50 
1 51 
1 52 
1 53 
1 54 
1 55 
1 56 
1 57 
1 58 
1 59 
1 60 
1 61 
1 62 
1 63 
1 64 
1 65 
1 66 
1 67 
1 68 
1 69 
1 70 
1 71 
1 72 
1 73 
1 74 
1 75 
1 76 
1 77 
1 78 
1 79 
1 80 
1 81 
1 82 
1 83 
1 84 
1 85 
1 86 
1 87 
1 88 
1 89 
1 90 
1 91 
1 92 
1 93 
1 94 
1 95 
1 96 
1 97 
1 98 
1 99 
1 100 
1 101 
1 102 
1 103 
1 104 
1 105 
1 106 
1 107 
1 108 
1 109 
1 110 
1 111 
1 112 
1 113 
1 114 
1 115 
1 116 
1 117 
1 118 
1 119 
1 120 
1 121 
1 122 
1 123 
1 124 
1 125 
1 126 
1 127 
1 128 
1 129 
1 130 
1 131 
1 132 
1 133 
1 134 
1 135 
1 136 
1 137 
1 138 
1 139 
1 140 
1 141 
1 142 
1 143 
1 144 
1 145 
1 146 
1 147 
1 148 
1 149 
1 150 
1 151 
1 152 
1 153 
1 154 
1 155 
1 156 
1 157 
1 158 
1 159 
1 160 
1 161 
1 162 
1 163 
1 164 
1 165 
1 166 
1 167 
1 168 
1 169 
1 170 
1 171 
1 172 
1 173 
1 174 
1 175 
1 176 
1 177 
1 178 
1 179 
1 180 
1 181 
1 182 
1 183 
CELL_TYPES 184 
1 
1 
1 
1 
1 
1 
1 
1 
1 
1 
1 
1 
1 
1 
1 
1 
1 
1 
1 
1 
1 
1 
1 
1 
1 
1 
1 
1 
1 
1 
1 
1 
1 
1 
1 
1 
1 
1 
1 
1 
1 
1 
1 
1 
1 
1 
1 
1 
1 
1 
1 
1 
1 
1 
1 
1 
1 
1 
1 
1 
1 
1 
1 
1 
1 
1 
1 
1 
1 
1 
1 
1 
1 
1 
1 
1 
1 
1 
1 
1 
1 
1 
1 
1 
1 
1 
1 
1 
1 
1 
1 
1 
1 
1 
1 
1 
1 
1 
1 
1 
1 
1 
1 
1 
1 
1 
1 
1 
1 
1 
1 
1 
1 
1 
1 
1 
1 
1 
1 
1 
1 
1 
1 
1 
1 
1 
1 
1 
1 
1 
1 
1 
1 
1 
1 
1 
1 
1 
1 
1 
1 
1 
1 
1 
1 
1 
1 
1 
1 
1 
1 
1 
1 
1 
1 
1 
1 
1 
1 
1 
1 
1 
1 
1 
1 
1 
1 
1 
1 
1 
1 
1 
1 
1 
1 
1 
1 
1 
1 
1 
1 
1 
1 
1 
POINT_DATA 184 
VECTORS X_GC float 
-0.030191 -2.045858 0.000000 
-0.352537 -2.908815 0.000000 
0.472058 -2.544643 0.000000 
-0.447523 -2.356543 0.000000 
0.177042 -3.093257 0.000000 
0.222710 -2.098836 0.000000 
-0.285187 -2.139007 0.000000 
-0.112112 -3.132217 0.000000 
0.417755 -2.295149 0.000000 
-0.461039 -2.623138 0.000000 
0.385093 -2.827885 0.000000 
-0.170152 -2.072238 0.000000 
-0.232974 -3.032389 0.000000 
0.464349 -2.419550 0.000000 
-0.471579 -2.493942 0.000000 
0.285982 -2.962824 0.000000 
0.104619 -2.054706 0.000000 
-0.379691 -2.228884 0.000000 
0.048744 -3.156279 0.000000 
0.337080 -2.178934 0.000000 
-0.419538 -2.744085 0.000000 
0.443339 -2.674955 0.000000 
-0.125114 -2.059185 0.000000 
-0.308221 -2.951876 0.000000 
0.472326 -2.498965 0.000000 
-0.459423 -2.405029 0.000000 
0.249205 -3.015408 0.000000 
0.181634 -2.078875 0.000000 
-0.348675 -2.192676 0.000000 
-0.059966 -3.141854 0.000000 
0.367254 -2.214998 0.000000 
-0.448490 -2.665594 0.000000 
0.424274 -2.722915 0.000000 
-0.210890 -2.091768 0.000000 
-0.158422 -3.102667 0.000000 
0.437832 -2.339657 0.000000 
-0.471001 -2.539762 0.000000 
0.329516 -2.933371 0.000000 
0.019471 -2.045675 0.000000 
-0.428944 -2.310656 0.000000 
0.099471 -3.142613 0.000000 
0.301735 -2.148867 0.000000 
-0.381416 -2.849392 0.000000 
0.456253 -2.632121 0.000000 
-0.081414 -2.075593 0.000000 
0.368216 -2.261489 0.000000 
0.049327 -2.071898 0.000000 
0.207599 -2.980030 0.000000 
-0.170072 -3.002840 0.000000 
-0.370819 -2.781185 0.000000 
0.386151 -2.738105 0.000000 
-0.305994 -2.190752 0.000000 
-0.388366 -2.290282 0.000000 
0.425021 -2.379976 0.000000 
0.140057 -2.091866 0.000000 
0.117814 -3.034192 0.000000 
-0.259510 -2.924673 0.000000 
-0.412924 -2.683248 0.000000 
0.438377 -2.591314 0.000000 
0.328822 -2.848360 0.000000 
-0.012509 -3.027505 0.000000 
-0.226612 -2.129432 0.000000 
-0.442611 -2.443953 0.000000 
-0.442716 -2.573430 0.000000 
0.255385 -2.147531 0.000000 
0.445042 -2.469287 0.000000 
-0.080413 -2.130564 0.000000 
-0.131341 -2.174685 0.000000 
-0.192528 -2.170446 0.000000 
-0.112390 -2.233843 0.000000 
-0.224240 -2.226106 0.000000 
-0.171458 -2.262817 0.000000 
-0.056269 -2.247502 0.000000 
-0.278934 -2.237302 0.000000 
-0.040778 -2.302993 0.000000 
-0.015984 -2.205843 0.000000 
-0.296179 -2.297091 0.000000 
-0.349388 -2.327593 0.000000 
-0.350347 -2.395009 0.000000 
-0.254464 -2.335605 0.000000 
-0.390303 -2.444075 0.000000 
-0.368342 -2.502137 0.000000 
-0.284064 -2.393590 0.000000 
-0.392830 -2.558625 0.000000 
-0.358168 -2.600791 0.000000 
-0.311697 -2.500672 0.000000 
-0.367937 -2.655124 0.000000 
-0.321480 -2.683497 0.000000 
-0.305839 -2.560527 0.000000 
-0.316666 -2.746360 0.000000 
-0.259648 -2.771076 0.000000 
-0.271177 -2.658060 0.000000 
-0.236201 -2.841083 0.000000 
-0.173364 -2.843255 0.000000 
-0.232325 -2.704923 0.000000 
-0.135888 -2.905008 0.000000 
-0.074681 -2.880382 0.000000 
-0.145668 -2.781293 0.000000 
-0.019672 -2.918189 0.000000 
0.035703 -2.883252 0.000000 
-0.084778 -2.803985 0.000000 
0.092143 -2.920199 0.000000 
0.131534 -2.865173 0.000000 
0.026614 -2.815588 0.000000 
0.192105 -2.878497 0.000000 
0.224760 -2.807659 0.000000 
0.089308 -2.802721 0.000000 
0.281580 -2.789139 0.000000 
0.296766 -2.719084 0.000000 
0.190344 -2.749154 0.000000 
0.347128 -2.691096 0.000000 
0.346112 -2.634615 0.000000 
0.235685 -2.700800 0.000000 
0.386450 -2.589807 0.000000 
0.368855 -2.534361 0.000000 
0.293609 -2.614021 0.000000 
0.394403 -2.483682 0.000000 
0.360769 -2.438455 0.000000 
0.307116 -2.556081 0.000000 
0.372800 -2.384880 0.000000 
0.325935 -2.343825 0.000000 
0.304587 -2.450026 0.000000 
0.320053 -2.282365 0.000000 
0.261003 -2.253271 0.000000 
0.282051 -2.388888 0.000000 
0.233065 -2.195275 0.000000 
0.170041 -2.188957 0.000000 
0.218780 -2.294619 0.000000 
0.131973 -2.142692 0.000000 
0.076937 -2.152439 0.000000 
0.032476 -2.117844 0.000000 
-0.021281 -2.147832 0.000000 
0.166088 -2.255895 0.000000 
0.046803 -2.206215 0.000000 
-0.184547 -2.312406 0.000000 
-0.266463 -2.442618 0.000000 
-0.039010 -2.776577 0.000000 
0.232959 -2.654329 0.000000 
0.277505 -2.517004 0.000000 
0.115274 -2.753416 0.000000 
0.233996 -2.369117 0.000000 
-0.265113 -2.589923 0.000000 
-0.181016 -2.709819 0.000000 
-0.080973 -2.345113 0.000000 
0.015075 -2.317199 0.000000 
-0.141893 -2.348636 0.000000 
-0.170159 -2.406949 0.000000 
-0.214437 -2.446162 0.000000 
-0.204098 -2.506995 0.000000 
-0.128943 -2.443137 0.000000 
-0.217224 -2.563892 0.000000 
-0.147392 -2.498733 0.000000 
-0.173162 -2.606841 0.000000 
-0.076883 -2.408641 0.000000 
-0.154282 -2.662201 0.000000 
-0.125162 -2.579400 0.000000 
-0.074382 -2.604111 0.000000 
-0.112442 -2.527795 0.000000 
-0.052065 -2.511012 0.000000 
-0.031826 -2.562555 0.000000 
-0.034894 -2.447754 0.000000 
0.030675 -2.373724 0.000000 
0.062298 -2.261977 0.000000 
-0.088393 -2.660455 0.000000 
0.008545 -2.431554 0.000000 
0.051063 -2.480224 0.000000 
0.053172 -2.534337 0.000000 
0.097570 -2.452394 0.000000 
0.011159 -2.575800 0.000000 
0.028274 -2.631467 0.000000 
0.018110 -2.683105 0.000000 
0.077771 -2.709151 0.000000 
0.082986 -2.631592 0.000000 
0.117422 -2.668347 0.000000 
0.178315 -2.642535 0.000000 
0.098233 -2.576154 0.000000 
0.164985 -2.463372 0.000000 
0.087465 -2.394333 0.000000 
0.160744 -2.578744 0.000000 
0.190703 -2.406456 0.000000 
0.131593 -2.362899 0.000000 
0.121975 -2.286719 0.000000 
-0.040394 -2.699231 0.000000 
0.196937 -2.522799 0.000000 
VECTORS X_EC float 
-0.798723 0.639051 0.000000 
-0.649751 0.392099 0.000000 
-0.147050 -0.035713 0.000000 
-0.016514 0.710285 0.000000 
-0.248183 0.946404 0.000000 
-0.484734 0.992241 0.000000 
0.901246 -0.739954 0.000000 
-0.208874 0.964511 0.000000 
0.214964 0.300997 0.000000 
0.073591 0.487589 0.000000 
0.432714 -0.147431 0.000000 
0.134349 0.814922 0.000000 
0.626334 0.986501 0.000000 
-0.095660 -0.869669 0.000000 
0.143857 -0.373723 0.000000 
-0.906549 0.752161 0.000000 
0.302539 0.698038 0.000000 
-0.468729 -0.140773 0.000000 
0.674495 0.937567 0.000000 
0.752803 -0.473774 0.000000 
-0.203078 -0.706097 0.000000 
0.044409 0.833032 0.000000 
-0.165909 0.727899 0.000000 
-0.945192 0.679170 0.000000 
-0.148837 -0.340236 0.000000 
0.062823 -0.966471 0.000000 
-0.678778 0.992812 0.000000 
-0.210895 0.859169 0.000000 
-0.675497 -0.382159 0.000000 
-0.572427 0.921027 0.000000 
0.551642 -0.233344 0.000000 
-0.010068 0.770627 0.000000 
0.171504 -0.847233 0.000000 
0.405931 0.945117 0.000000 
0.119212 0.951185 0.000000 
0.081121 0.597714 0.000000 
0.140006 -0.068257 0.000000 
0.803230 0.555809 0.000000 
0.870190 0.637836 0.000000 
-0.140373 0.404376 0.000000 
0.304228 0.957028 0.000000 
0.988431 -0.674218 0.000000 
-0.457230 -0.004053 0.000000 
-0.041684 0.547476 0.000000 
-0.457238 0.837288 0.000000 
0.545225 0.076594 0.000000 
0.671156 0.812655 0.000000 
-0.383994 0.866865 0.000000 
0.144528 0.997078 0.000000 
-0.527871 -0.458765 0.000000 
0.425657 -0.745970 0.000000 
-0.960041 -0.394986 0.000000 
-0.410893 0.268549 0.000000 
0.166525 0.866509 0.000000 
0.066290 0.945771 0.000000 
0.184510 0.990440 0.000000 
0.730067 0.497818 0.000000 
-0.247172 0.888318 0.000000 
0.077490 0.275426 0.000000 
0.807850 -0.010933 0.000000 
-0.895255 0.999530 0.000000 
0.510749 -0.803785 0.000000 
-0.049258 -0.706982 0.000000 
-0.048557 0.156197 0.000000 
-0.702566 -0.683129 0.000000 
0.033053 -0.538083 0.000000 
-0.463914 -0.796242 0.000000 
-0.124390 -0.502100 0.000000 
0.283520 -0.530358 0.000000 
-0.250733 -0.107715 0.000000 
0.494935 -0.159290 0.000000 
0.143054 0.085444 0.000000 
-0.624876 -0.016652 0.000000 
0.859557 -0.084654 0.000000 
-0.728148 0.353287 0.000000 
-0.893440 -0.294381 0.000000 
0.974525 0.313937 0.000000 
-0.670748 0.517284 0.000000 
-0.664354 0.966728 0.000000 
0.696427 0.570702 0.000000 
-0.397983 -0.706167 0.000000 
-0.544387 -0.319086 0.000000 
0.893760 0.957269 0.000000 
-0.381133 0.057500 0.000000 
-0.612211 0.338606 0.000000 
-0.922017 -0.328852 0.000000 
-0.547088 0.700830 0.000000 
-0.856800 0.889980 0.000000 
-0.961072 0.070178 0.000000 
-0.888891 -0.690931 0.000000 
0.730988 -0.526160 0.000000 
0.807850 0.720399 0.000000 
0.574673 -0.059449 0.000000 
0.155758 -0.044970 0.000000 
0.548836 -0.967178 0.000000 
-0.094078 0.366722 0.000000 
-0.502128 0.202549 0.000000 
-0.028878 -0.458047 0.000000 
-0.868857 0.454595 0.000000 
0.761980 0.221679 0.000000 
-0.434815 -0.306769 0.000000 
0.385711 0.467990 0.000000 
0.123104 0.101150 0.000000 
0.822571 -0.229415 0.000000 
-0.280698 0.189979 0.000000 
-0.498397 -0.282270 0.000000 
0.404611 -0.315191 0.000000 
-0.877200 -0.405737 0.000000 
-0.978440 -0.872772 0.000000 
-0.268962 -0.672305 0.000000 
0.685816 0.940642 0.000000 
0.692586 0.564102 0.000000 
-0.571231 -0.994667 0.000000 
0.423670 0.265382 0.000000 
0.540966 -0.104261 0.000000 
-0.957396 0.426805 0.000000 
0.370644 -0.442120 0.000000 
0.594872 -0.743631 0.000000 
0.952560 0.040541 0.000000 
0.514664 0.899201 0.000000 
0.827099 0.625502 0.000000 
0.969420 -0.666491 0.000000 
0.866311 0.215764 0.000000 
-0.740020 0.021804 0.000000 
-0.880342 0.925919 0.000000 
-0.553769 -0.364837 0.000000 
-0.133607 -0.406955 0.000000 
-0.458536 0.297458 0.000000 
0.120177 -0.715386 0.000000 
0.487090 -0.650408 0.000000 
0.783494 -0.881041 0.000000 
-0.858129 -0.681119 0.000000 
-0.107254 0.039298 0.000000 
0.687978 -0.291899 0.000000 
0.230311 0.416039 0.000000 
0.776421 -0.715881 0.000000 
-0.739931 -0.489486 0.000000 
-0.553060 0.695529 0.000000 
-0.850034 -0.219974 0.000000 
0.231507 -0.643892 0.000000 
-0.559971 0.794116 0.000000 
0.767420 0.266151 0.000000 
0.206773 -0.934538 0.000000 
-0.460183 0.634087 0.000000 
0.899501 0.447992 0.000000 
-0.054048 0.657574 0.000000 
0.134396 -0.953675 0.000000 
0.429579 -0.692256 0.000000 
0.360651 -0.286701 0.000000 
-0.140379 -0.712421 0.000000 
0.448162 0.092615 0.000000 
-0.017389 -0.341781 0.000000 
0.154413 0.378940 0.000000 
-0.487443 -0.942391 0.000000 
0.028546 0.748008 0.000000 
-0.165588 0.196002 0.000000 
-0.504120 0.360742 0.000000 
-0.250384 -0.148034 0.000000 
-0.652901 -0.259918 0.000000 
-0.787828 0.083699 0.000000 
-0.767373 -0.681640 0.000000 
0.795501 0.824825 0.000000 
0.584680 0.079848 0.000000 
-0.410716 0.736368 0.000000 
0.943034 -0.789639 0.000000 
0.659579 -0.465172 0.000000 
0.645521 -0.104420 0.000000 
0.349535 -0.650707 0.000000 
0.925608 0.171998 0.000000 
0.811506 0.543116 0.000000 
0.879270 0.887365 0.000000 
0.481524 -0.938995 0.000000 
0.446761 0.543946 0.000000 
0.217189 0.788980 0.000000 
-0.188766 0.616899 0.000000 
0.345115 0.174363 0.000000 
-0.099898 -0.577519 0.000000 
0.416899 0.962223 0.000000 
-0.071624 0.191629 0.000000 
-0.271350 -0.956962 0.000000 
0.122715 0.752663 0.000000 
0.186831 0.244796 0.000000 
-0.730704 0.994871 0.000000 
-0.312911 -0.181337 0.000000 
CELL_DATA 184 
SCALARS MASS float 
LOOKUP_TABLE default 
0.051252 
0.046008 
0.051531 
0.046188 
0.052854 
0.051531 
0.052854 
0.052854 
0.051531 
0.050859 
0.052854 
0.047395 
0.052854 
0.052854 
0.051434 
0.045995 
0.052854 
0.051281 
0.051530 
0.046441 
0.052854 
0.052854 
0.050612 
0.049065 
0.052975 
0.049197 
0.049245 
0.052975 
0.052990 
0.055938 
0.049713 
0.052094 
0.055938 
0.050456 
0.055938 
0.053198 
0.052878 
0.049051 
0.052807 
0.049481 
0.052974 
0.049465 
0.049257 
0.055938 
0.105225 
0.104629 
0.082126 
0.094264 
0.094771 
0.094259 
0.094771 
0.083366 
0.104047 
0.083092 
0.081316 
0.081315 
0.092719 
0.079469 
0.108073 
0.092710 
0.108073 
0.093129 
0.104035 
0.094961 
0.104398 
0.081316 
0.125285 
0.099128 
0.098320 
0.087841 
0.082650 
0.097481 
0.086914 
0.081921 
0.086680 
0.086680 
0.081485 
0.107769 
0.088711 
0.084874 
0.107874 
0.082612 
0.095190 
0.095229 
0.083942 
0.085089 
0.079923 
0.081132 
0.095301 
0.097917 
0.090576 
0.085268 
0.095896 
0.081062 
0.095454 
0.090083 
0.081027 
0.085251 
0.101961 
0.083022 
0.095445 
0.080604 
0.081018 
0.085240 
0.097826 
0.090495 
0.095435 
0.095845 
0.081023 
0.085241 
0.090072 
0.081024 
0.095436 
0.101966 
0.083028 
0.085242 
0.080610 
0.081024 
0.095437 
0.082345 
0.082694 
0.085242 
0.109264 
0.089885 
0.095437 
0.108636 
0.083028 
0.085242 
0.080610 
0.074817 
0.073569 
0.082490 
0.095437 
0.095617 
0.133784 
0.138292 
0.139667 
0.139695 
0.139694 
0.139689 
0.139693 
0.140105 
0.139774 
0.086622 
0.086622 
0.089038 
0.077179 
0.079159 
0.072465 
0.084345 
0.092656 
0.093083 
0.084037 
0.098826 
0.101847 
0.085968 
0.086444 
0.074619 
0.064825 
0.094138 
0.124406 
0.086607 
0.131576 
0.102571 
0.084703 
0.076503 
0.084191 
0.084191 
0.086793 
0.075696 
0.084714 
0.090949 
0.084009 
0.076569 
0.086383 
0.098391 
0.110757 
0.093222 
0.143196 
0.101090 
0.091038 
0.150913 
0.178131 
0.206980 
SCALARS MASS float 
LOOKUP_TABLE default 
0.051252 
0.046008 
0.051531 
0.046188 
0.052854 
0.051531 
0.052854 
0.052854 
0.051531 
0.050859 
0.052854 
0.047395 
0.052854 
0.052854 
0.051434 
0.045995 
0.052854 
0.051281 
0.051530 
0.046441 
0.052854 
0.052854 
0.050612 
0.049065 
0.052975 
0.049197 
0.049245 
0.052975 
0.052990 
0.055938 
0.049713 
0.052094 
0.055938 
0.050456 
0.055938 
0.053198 
0.052878 
0.049051 
0.052807 
0.049481 
0.052974 
0.049465 
0.049257 
0.055938 
0.105225 
0.104629 
0.082126 
0.094264 
0.094771 
0.094259 
0.094771 
0.083366 
0.104047 
0.083092 
0.081316 
0.081315 
0.092719 
0.079469 
0.108073 
0.092710 
0.108073 
0.093129 
0.104035 
0.094961 
0.104398 
0.081316 
0.125285 
0.099128 
0.098320 
0.087841 
0.082650 
0.097481 
0.086914 
0.081921 
0.086680 
0.086680 
0.081485 
0.107769 
0.088711 
0.084874 
0.107874 
0.082612 
0.095190 
0.095229 
0.083942 
0.085089 
0.079923 
0.081132 
0.095301 
0.097917 
0.090576 
0.085268 
0.095896 
0.081062 
0.095454 
0.090083 
0.081027 
0.085251 
0.101961 
0.083022 
0.095445 
0.080604 
0.081018 
0.085240 
0.097826 
0.090495 
0.095435 
0.095845 
0.081023 
0.085241 
0.090072 
0.081024 
0.095436 
0.101966 
0.083028 
0.085242 
0.080610 
0.081024 
0.095437 
0.082345 
0.082694 
0.085242 
0.109264 
0.089885 
0.095437 
0.108636 
0.083028 
0.085242 
0.080610 
0.074817 
0.073569 
0.082490 
0.095437 
0.095617 
0.133784 
0.138292 
0.139667 
0.139695 
0.139694 
0.139689 
0.139693 
0.140105 
0.139774 
0.086622 
0.086622 
0.089038 
0.077179 
0.079159 
0.072465 
0.084345 
0.092656 
0.093083 
0.084037 
0.098826 
0.101847 
0.085968 
0.086444 
0.074619 
0.064825 
0.094138 
0.124406 
0.086607 
0.131576 
0.102571 
0.084703 
0.076503 
0.084191 
0.084191 
0.086793 
0.075696 
0.084714 
0.090949 
0.084009 
0.076569 
0.086383 
0.098391 
0.110757 
0.093222 
0.143196 
0.101090 
0.091038 
0.150913 
0.178131 
0.206980 
SCALARS DENSITY float 
LOOKUP_TABLE default 
21.010497 
224877111584.775391 
29.988457 
28.424973 
4923162192924044705748404941094912.000000 
18.865427 
18.082948 
4169758989574338836335795810336768.000000 
24.007593 
40.338496 
15331894.518967 
22.598787 
35738936251947287777902592.000000 
21.026389 
36.327699 
9378094839750565888.000000 
22.735126 
23.793973 
1017044629463550876029622247615086483996672.000000 
15.625814 
4504.411642 
31.471599 
22.169147 
3611938359751696.000000 
33.170338 
45.433945 
4167422889203119698214912.000000 
23.662584 
17.449184 
95011637849807072828487505815462215680.000000 
16.861693 
38.519080 
1012.331653 
22.825346 
2856386957183138805754225491968.000000 
25.019737 
43.549848 
32969850950336.753906 
21.416490 
27.610337 
27778950389801089747446947158441396084408320.000000 
36.108749 
224668463.210711 
31.922070 
20.820565 
23.006745 
20.778365 
10240380080043499454464.000000 
50957336955186799706112.000000 
192643.537222 
2643.942422 
18.118593 
27.711377 
25.745770 
22.146869 
3197849908781686565195944558592.000000 
752532797266331520.000000 
32.292978 
24.348643 
8465384484.693936 
81938666331796958688444122398720.000000 
15.623939 
11.572139 
27.923301 
18.377588 
19.051917 
16.575622 
20.133299 
19.383575 
24.812403 
22.611481 
25.150118 
24.996206 
24.060811 
21.487656 
24.042733 
24.735051 
26.833101 
26.866729 
24.664939 
17.474697 
37.183570 
23.995874 
21.690831 
25.360467 
31.048428 
28.439455 
22.399197 
12.969893 
2917.861946 
417556.791698 
21.467487 
70507933358.121063 
898683662916.010620 
57.280164 
3021474090010771.500000 
75895284837839.187500 
4559100.423177 
976983169047801088.000000 
3935333034608663.000000 
204461300.436158 
22969975197616324608.000000 
22665484702727.785156 
2224411299.704949 
1166121987943948.500000 
947324094.037765 
296392699.936517 
11022901.761818 
222.545630 
40532.057704 
25.022441 
26.295510 
38.636033 
21.167592 
23.441001 
22.311589 
29.302608 
17.474097 
13.608452 
24.778459 
23.537742 
30.300060 
23.508827 
24.313660 
22.921374 
19.358042 
19.715774 
22.715846 
17.697444 
20.025963 
17.964366 
19.463644 
24.173393 
23.432218 
23.337074 
25.133152 
10228163.040121 
22.372667 
19.174565 
232511.093313 
23.590915 
20.626124 
87.584611 
25.171457 
23.132514 
25.013280 
21.758442 
23.696701 
17.420819 
20.584237 
18.098554 
14.738391 
31.158197 
20.932544 
20.592429 
31.920574 
43.303833 
18.282377 
14.128141 
39.072135 
14.408590 
25.118449 
23.918885 
20.441054 
22.537583 
8.912882 
24.015909 
17.019499 
52.505680 
31.887394 
18.945363 
131.533927 
29.856711 
20.432840 
24.244576 
35.555882 
15.849999 
28.008048 
26.862382 
22.320312 
24.456637 
22.307202 
39.722889 
18.543346 
SCALARS ELEM_i float 
LOOKUP_TABLE default 
203 
220 
161 
222 
180 
183 
202 
200 
162 
221 
160 
203 
200 
161 
221 
180 
183 
222 
180 
162 
220 
161 
203 
220 
161 
221 
180 
183 
222 
200 
162 
221 
160 
203 
200 
162 
221 
160 
183 
222 
180 
162 
220 
161 
203 
162 
183 
180 
200 
220 
160 
222 
222 
162 
183 
180 
200 
221 
161 
160 
200 
202 
221 
221 
182 
161 
202 
202 
202 
202 
202 
202 
202 
202 
202 
202 
202 
222 
222 
202 
221 
221 
202 
221 
221 
221 
221 
221 
221 
220 
200 
201 
200 
200 
200 
200 
200 
200 
200 
180 
200 
180 
180 
180 
180 
180 
180 
180 
180 
180 
161 
161 
180 
161 
161 
181 
161 
161 
161 
162 
162 
161 
162 
182 
182 
182 
182 
182 
182 
182 
182 
202 
182 
182 
202 
201 
200 
181 
181 
180 
182 
201 
200 
202 
182 
202 
201 
201 
201 
201 
201 
201 
201 
201 
201 
201 
201 
201 
201 
201 
201 
182 
182 
201 
181 
181 
181 
181 
181 
181 
181 
180 
181 
181 
181 
181 
181 
182 
181 
181 
182 
182 
201 
181 
VECTORS VELOCITY float 
-0.149589 -0.509363 0.000000 
-2.464881 -50.174428 0.000000 
-0.345142 1.206744 0.000000 
-0.304946 -0.298218 0.000000 
1.507624 -142.906266 0.000000 
0.435197 0.059378 0.000000 
-0.059593 0.330271 0.000000 
-2.140464 -166.199670 0.000000 
-0.833587 -0.339146 0.000000 
0.219858 1.820231 0.000000 
0.771168 -22.822899 0.000000 
-1.013733 0.168950 0.000000 
0.955967 -107.736249 0.000000 
0.438471 -0.693462 0.000000 
0.302383 0.240682 0.000000 
-1.169466 -70.974246 0.000000 
2.296502 0.323517 0.000000 
-1.204964 1.411877 0.000000 
1.826006 -182.363517 0.000000 
0.013806 0.528185 0.000000 
-0.244712 -1.440814 0.000000 
-0.094171 3.673510 0.000000 
-1.249468 0.016835 0.000000 
-0.142163 -67.233864 0.000000 
-0.162501 0.726415 0.000000 
0.451371 -1.407298 0.000000 
-0.696312 -98.372215 0.000000 
1.372179 0.264394 0.000000 
-1.047421 1.376608 0.000000 
-1.589716 -172.458390 0.000000 
-0.580759 0.327966 0.000000 
-0.012273 2.803847 0.000000 
-0.269263 0.449385 0.000000 
0.107250 0.170637 0.000000 
-1.528361 -148.155781 0.000000 
-0.560633 -0.693915 0.000000 
0.640667 0.497344 0.000000 
1.955252 -60.683778 0.000000 
0.895076 -0.461194 0.000000 
-0.857938 0.551911 0.000000 
2.590748 -172.923870 0.000000 
0.595685 0.375159 0.000000 
-1.698523 -28.063350 0.000000 
-0.163565 2.678977 0.000000 
-0.453040 0.610787 0.000000 
-0.617180 -0.151957 0.000000 
0.764268 0.672991 0.000000 
-0.703198 -76.856981 0.000000 
0.699283 -88.062331 0.000000 
-0.436945 -6.104824 0.000000 
-0.181585 0.212692 0.000000 
-0.132542 0.350599 0.000000 
-0.677104 0.599970 0.000000 
-0.250461 -1.055900 0.000000 
0.242877 0.515382 0.000000 
0.551540 -105.883599 0.000000 
1.590968 -50.963355 0.000000 
-0.150433 4.421536 0.000000 
-0.147820 2.361046 0.000000 
0.848706 -24.222699 0.000000 
0.038240 -100.118305 0.000000 
-0.056242 0.567534 0.000000 
-0.263856 -0.022621 0.000000 
0.412557 1.390517 0.000000 
0.281938 0.330226 0.000000 
0.252522 0.507793 0.000000 
-0.087208 1.206333 0.000000 
-0.083329 0.612456 0.000000 
-0.064103 0.500954 0.000000 
0.006074 0.228599 0.000000 
0.191200 0.073741 0.000000 
0.170754 0.009595 0.000000 
-0.098879 0.289551 0.000000 
0.339297 -0.082603 0.000000 
-0.140243 0.144381 0.000000 
-0.169262 0.569900 0.000000 
0.523091 -0.272546 0.000000 
0.038178 -0.043419 0.000000 
0.622941 -0.710720 0.000000 
0.482302 -0.336933 0.000000 
0.118032 -0.232699 0.000000 
0.420717 0.266087 0.000000 
0.786821 -0.615365 0.000000 
0.321581 1.662212 0.000000 
0.120089 3.520560 0.000000 
0.393974 0.279168 0.000000 
-0.009122 5.141775 0.000000 
-0.173213 8.019357 0.000000 
0.035539 2.827838 0.000000 
-0.207145 5.000790 0.000000 
-0.052591 2.835389 0.000000 
0.014028 7.676408 0.000000 
0.548813 -15.877540 0.000000 
0.425100 -15.306313 0.000000 
-0.221848 9.535667 0.000000 
0.763279 -37.192537 0.000000 
0.338826 -25.033092 0.000000 
0.001605 0.785125 0.000000 
0.156016 -37.824755 0.000000 
-0.105342 -24.460098 0.000000 
0.057255 -3.569268 0.000000 
-0.305389 -41.912429 0.000000 
-0.290656 -21.636696 0.000000 
-0.015238 -5.346732 0.000000 
-0.497772 -28.515907 0.000000 
0.104703 -5.818504 0.000000 
0.044819 -3.406581 0.000000 
0.345162 -1.276965 0.000000 
0.387147 9.108912 0.000000 
0.341804 6.259507 0.000000 
0.165517 7.646474 0.000000 
0.011115 5.320749 0.000000 
0.317571 9.824102 0.000000 
-0.046746 3.016843 0.000000 
-0.148673 1.280869 0.000000 
0.043615 5.576729 0.000000 
-0.133612 0.189082 0.000000 
0.010955 -0.533575 0.000000 
0.052457 2.531636 0.000000 
-0.289870 -1.021389 0.000000 
-0.301571 -0.700190 0.000000 
-0.518056 -0.998444 0.000000 
-0.246890 -0.432285 0.000000 
-0.116516 -0.350802 0.000000 
-0.476396 -1.004081 0.000000 
0.140045 0.079933 0.000000 
0.076504 0.293323 0.000000 
-0.202902 -0.384118 0.000000 
0.084806 0.860718 0.000000 
0.004467 0.958246 0.000000 
-0.056375 1.374064 0.000000 
-0.119475 1.228098 0.000000 
-0.166574 -0.108576 0.000000 
-0.139791 0.473772 0.000000 
0.238528 -0.156552 0.000000 
0.693959 -0.787843 0.000000 
-0.026146 1.823155 0.000000 
0.066858 7.314470 0.000000 
-0.164656 0.686284 0.000000 
0.206366 5.463079 0.000000 
-0.388633 -0.857493 0.000000 
0.015823 4.104819 0.000000 
-0.180582 9.159037 0.000000 
-0.033162 -0.297161 0.000000 
-0.247717 0.044269 0.000000 
0.156766 -0.370631 0.000000 
0.383523 -0.781777 0.000000 
0.510395 -0.715654 0.000000 
0.181676 0.617753 0.000000 
0.203169 -0.654226 0.000000 
-0.011365 2.658162 0.000000 