# vtk DataFile Version 3.0 
vtk output 
ASCII 
DATASET UNSTRUCTURED_GRID 
POINTS 175 float 
-0.026061 -0.426417 0.000000 
-0.106992 -0.358361 0.000000 
-0.054870 -0.366594 0.000000 
-0.028809 -0.320710 0.000000 
-0.186430 -0.294286 0.000000 
-0.137056 -0.296812 0.000000 
-0.114311 -0.243165 0.000000 
-0.058186 -0.258830 0.000000 
-0.029377 -0.218653 0.000000 
-0.265318 -0.231130 0.000000 
-0.217198 -0.231930 0.000000 
-0.196633 -0.174633 0.000000 
-0.143120 -0.183342 0.000000 
-0.116563 -0.136073 0.000000 
-0.058945 -0.155719 0.000000 
-0.029568 -0.117599 0.000000 
-0.344206 -0.167974 0.000000 
-0.296791 -0.167967 0.000000 
-0.278030 -0.108024 0.000000 
-0.225992 -0.113891 0.000000 
-0.201664 -0.061774 0.000000 
-0.145749 -0.075248 0.000000 
-0.117890 -0.030905 0.000000 
-0.059328 -0.053611 0.000000 
-0.029759 -0.016545 0.000000 
-0.058559 -0.467167 0.000000 
-0.162226 -0.488010 0.000000 
-0.123292 -0.452392 0.000000 
-0.142917 -0.403409 0.000000 
-0.261851 -0.510166 0.000000 
-0.229092 -0.473139 0.000000 
-0.256854 -0.421908 0.000000 
-0.209613 -0.387795 0.000000 
-0.223062 -0.340221 0.000000 
-0.360414 -0.532467 0.000000 
-0.329787 -0.495344 0.000000 
-0.361761 -0.443542 0.000000 
-0.321587 -0.407133 0.000000 
-0.341985 -0.356899 0.000000 
-0.290702 -0.324100 0.000000 
-0.302189 -0.277365 0.000000 
-0.458977 -0.554767 0.000000 
-0.429420 -0.517692 0.000000 
-0.464588 -0.465650 0.000000 
-0.427556 -0.428623 0.000000 
-0.453135 -0.377108 0.000000 
-0.407738 -0.341793 0.000000 
-0.425037 -0.292365 0.000000 
-0.370772 -0.260736 0.000000 
-0.381315 -0.214508 0.000000 
-0.046960 -0.517983 0.000000 
-0.095301 -0.612029 0.000000 
-0.098873 -0.559381 0.000000 
-0.149405 -0.544184 0.000000 
-0.140093 -0.703733 0.000000 
-0.148617 -0.655034 0.000000 
-0.205981 -0.644797 0.000000 
-0.203197 -0.586594 0.000000 
-0.248777 -0.567447 0.000000 
-0.184111 -0.794696 0.000000 
-0.194039 -0.747605 0.000000 
-0.254475 -0.740306 0.000000 
-0.257893 -0.686196 0.000000 
-0.309886 -0.670823 0.000000 
-0.303554 -0.610278 0.000000 
-0.347255 -0.590120 0.000000 
-0.228129 -0.885660 0.000000 
-0.238687 -0.839436 0.000000 
-0.301302 -0.834483 0.000000 
-0.307162 -0.782445 0.000000 
-0.363386 -0.770324 0.000000 
-0.362692 -0.712812 0.000000 
-0.412122 -0.695519 0.000000 
-0.403017 -0.633372 0.000000 
-0.445733 -0.612793 0.000000 
-0.000000 -0.540598 0.000000 
0.043388 -0.637028 0.000000 
-0.000000 -0.606996 0.000000 
-0.043388 -0.637028 0.000000 
0.087158 -0.729225 0.000000 
0.043769 -0.705526 0.000000 
-0.000000 -0.743992 0.000000 
-0.043769 -0.705526 0.000000 
-0.087158 -0.729225 0.000000 
0.130831 -0.820355 0.000000 
0.087824 -0.798756 0.000000 
0.044436 -0.841455 0.000000 
-0.000000 -0.810390 0.000000 
-0.044436 -0.841455 0.000000 
-0.087824 -0.798756 0.000000 
-0.130831 -0.820355 0.000000 
0.174505 -0.911484 0.000000 
0.131782 -0.890918 0.000000 
0.088871 -0.936785 0.000000 
0.044532 -0.908921 0.000000 
-0.000000 -0.945321 0.000000 
-0.044532 -0.908921 0.000000 
-0.088871 -0.936785 0.000000 
-0.131782 -0.890918 0.000000 
-0.174505 -0.911484 0.000000 
0.046960 -0.517983 0.000000 
0.149405 -0.544184 0.000000 
0.098873 -0.559381 0.000000 
0.095301 -0.612029 0.000000 
0.248777 -0.567447 0.000000 
0.203197 -0.586594 0.000000 
0.205981 -0.644797 0.000000 
0.148617 -0.655034 0.000000 
0.140093 -0.703733 0.000000 
0.347255 -0.590120 0.000000 
0.303554 -0.610278 0.000000 
0.309886 -0.670823 0.000000 
0.257893 -0.686196 0.000000 
0.254475 -0.740306 0.000000 
0.194039 -0.747605 0.000000 
0.184111 -0.794696 0.000000 
0.445733 -0.612793 0.000000 
0.403017 -0.633372 0.000000 
0.412122 -0.695519 0.000000 
0.362692 -0.712812 0.000000 
0.363386 -0.770324 0.000000 
0.307162 -0.782445 0.000000 
0.301302 -0.834483 0.000000 
0.238687 -0.839436 0.000000 
0.228129 -0.885660 0.000000 
0.058559 -0.467167 0.000000 
0.142917 -0.403409 0.000000 
0.123292 -0.452392 0.000000 
0.162226 -0.488010 0.000000 
0.223062 -0.340221 0.000000 
0.209613 -0.387795 0.000000 
0.256854 -0.421908 0.000000 
0.229092 -0.473139 0.000000 
0.261851 -0.510166 0.000000 
0.302189 -0.277365 0.000000 
0.290702 -0.324100 0.000000 
0.341985 -0.356899 0.000000 
0.321587 -0.407133 0.000000 
0.361761 -0.443542 0.000000 
0.329787 -0.495344 0.000000 
0.360414 -0.532467 0.000000 
0.381315 -0.214508 0.000000 
0.370772 -0.260736 0.000000 
0.425037 -0.292365 0.000000 
0.407738 -0.341793 0.000000 
0.453135 -0.377108 0.000000 
0.427556 -0.428623 0.000000 
0.464588 -0.465650 0.000000 
0.429420 -0.517692 0.000000 
0.458977 -0.554767 0.000000 
0.026061 -0.426417 0.000000 
0.028809 -0.320710 0.000000 
0.054870 -0.366594 0.000000 
0.106992 -0.358361 0.000000 
0.029377 -0.218653 0.000000 
0.058186 -0.258830 0.000000 
0.114311 -0.243165 0.000000 
0.137056 -0.296812 0.000000 
0.186430 -0.294286 0.000000 
0.029568 -0.117599 0.000000 
0.058945 -0.155719 0.000000 
0.116563 -0.136073 0.000000 
0.143120 -0.183342 0.000000 
0.196633 -0.174633 0.000000 
0.217198 -0.231930 0.000000 
0.265318 -0.231130 0.000000 
0.029759 -0.016545 0.000000 
0.059328 -0.053611 0.000000 
0.117890 -0.030905 0.000000 
0.145749 -0.075248 0.000000 
0.201664 -0.061774 0.000000 
0.225992 -0.113891 0.000000 
0.278030 -0.108024 0.000000 
0.296791 -0.167967 0.000000 
0.344206 -0.167974 0.000000 
CELLS 175 350 
1 0 
1 1 
1 2 
1 3 
1 4 
1 5 
1 6 
1 7 
1 8 
1 9 
1 10 
1 11 
1 12 
1 13 
1 14 
1 15 
1 16 
1 17 
1 18 
1 19 
1 20 
1 21 
1 22 
1 23 
1 24 
1 25 
1 26 
1 27 
1 28 
1 29 
1 30 
1 31 
1 32 
1 33 
1 34 
1 35 
1 36 
1 37 
1 38 
1 39 
1 40 
1 41 
1 42 
1 43 
1 44 
1 45 
1 46 
1 47 
1 48 
1 49 
1 50 
1 51 
1 52 
1 53 
1 54 
1 55 
1 56 
1 57 
1 58 
1 59 
1 60 
1 61 
1 62 
1 63 
1 64 
1 65 
1 66 
1 67 
1 68 
1 69 
1 70 
1 71 
1 72 
1 73 
1 74 
1 75 
1 76 
1 77 
1 78 
1 79 
1 80 
1 81 
1 82 
1 83 
1 84 
1 85 
1 86 
1 87 
1 88 
1 89 
1 90 
1 91 
1 92 
1 93 
1 94 
1 95 
1 96 
1 97 
1 98 
1 99 
1 100 
1 101 
1 102 
1 103 
1 104 
1 105 
1 106 
1 107 
1 108 
1 109 
1 110 
1 111 
1 112 
1 113 
1 114 
1 115 
1 116 
1 117 
1 118 
1 119 
1 120 
1 121 
1 122 
1 123 
1 124 
1 125 
1 126 
1 127 
1 128 
1 129 
1 130 
1 131 
1 132 
1 133 
1 134 
1 135 
1 136 
1 137 
1 138 
1 139 
1 140 
1 141 
1 142 
1 143 
1 144 
1 145 
1 146 
1 147 
1 148 
1 149 
1 150 
1 151 
1 152 
1 153 
1 154 
1 155 
1 156 
1 157 
1 158 
1 159 
1 160 
1 161 
1 162 
1 163 
1 164 
1 165 
1 166 
1 167 
1 168 
1 169 
1 170 
1 171 
1 172 
1 173 
1 174 
CELL_TYPES 175 
1 
1 
1 
1 
1 
1 
1 
1 
1 
1 
1 
1 
1 
1 
1 
1 
1 
1 
1 
1 
1 
1 
1 
1 
1 
1 
1 
1 
1 
1 
1 
1 
1 
1 
1 
1 
1 
1 
1 
1 
1 
1 
1 
1 
1 
1 
1 
1 
1 
1 
1 
1 
1 
1 
1 
1 
1 
1 
1 
1 
1 
1 
1 
1 
1 
1 
1 
1 
1 
1 
1 
1 
1 
1 
1 
1 
1 
1 
1 
1 
1 
1 
1 
1 
1 
1 
1 
1 
1 
1 
1 
1 
1 
1 
1 
1 
1 
1 
1 
1 
1 
1 
1 
1 
1 
1 
1 
1 
1 
1 
1 
1 
1 
1 
1 
1 
1 
1 
1 
1 
1 
1 
1 
1 
1 
1 
1 
1 
1 
1 
1 
1 
1 
1 
1 
1 
1 
1 
1 
1 
1 
1 
1 
1 
1 
1 
1 
1 
1 
1 
1 
1 
1 
1 
1 
1 
1 
1 
1 
1 
1 
1 
1 
1 
1 
1 
1 
1 
1 
1 
1 
1 
1 
1 
1 
POINT_DATA 175 
VECTORS X_GC float 
-0.026061 -0.426417 0.000000 
-0.106992 -0.358361 0.000000 
-0.054870 -0.366594 0.000000 
-0.028809 -0.320710 0.000000 
-0.186430 -0.294286 0.000000 
-0.137056 -0.296812 0.000000 
-0.114311 -0.243165 0.000000 
-0.058186 -0.258830 0.000000 
-0.029377 -0.218653 0.000000 
-0.265318 -0.231130 0.000000 
-0.217198 -0.231930 0.000000 
-0.196633 -0.174633 0.000000 
-0.143120 -0.183342 0.000000 
-0.116563 -0.136073 0.000000 
-0.058945 -0.155719 0.000000 
-0.029568 -0.117599 0.000000 
-0.344206 -0.167974 0.000000 
-0.296791 -0.167967 0.000000 
-0.278030 -0.108024 0.000000 
-0.225992 -0.113891 0.000000 
-0.201664 -0.061774 0.000000 
-0.145749 -0.075248 0.000000 
-0.117890 -0.030905 0.000000 
-0.059328 -0.053611 0.000000 
-0.029759 -0.016545 0.000000 
-0.058559 -0.467167 0.000000 
-0.162226 -0.488010 0.000000 
-0.123292 -0.452392 0.000000 
-0.142917 -0.403409 0.000000 
-0.261851 -0.510166 0.000000 
-0.229092 -0.473139 0.000000 
-0.256854 -0.421908 0.000000 
-0.209613 -0.387795 0.000000 
-0.223062 -0.340221 0.000000 
-0.360414 -0.532467 0.000000 
-0.329787 -0.495344 0.000000 
-0.361761 -0.443542 0.000000 
-0.321587 -0.407133 0.000000 
-0.341985 -0.356899 0.000000 
-0.290702 -0.324100 0.000000 
-0.302189 -0.277365 0.000000 
-0.458977 -0.554767 0.000000 
-0.429420 -0.517692 0.000000 
-0.464588 -0.465650 0.000000 
-0.427556 -0.428623 0.000000 
-0.453135 -0.377108 0.000000 
-0.407738 -0.341793 0.000000 
-0.425037 -0.292365 0.000000 
-0.370772 -0.260736 0.000000 
-0.381315 -0.214508 0.000000 
-0.046960 -0.517983 0.000000 
-0.095301 -0.612029 0.000000 
-0.098873 -0.559381 0.000000 
-0.149405 -0.544184 0.000000 
-0.140093 -0.703733 0.000000 
-0.148617 -0.655034 0.000000 
-0.205981 -0.644797 0.000000 
-0.203197 -0.586594 0.000000 
-0.248777 -0.567447 0.000000 
-0.184111 -0.794696 0.000000 
-0.194039 -0.747605 0.000000 
-0.254475 -0.740306 0.000000 
-0.257893 -0.686196 0.000000 
-0.309886 -0.670823 0.000000 
-0.303554 -0.610278 0.000000 
-0.347255 -0.590120 0.000000 
-0.228129 -0.885660 0.000000 
-0.238687 -0.839436 0.000000 
-0.301302 -0.834483 0.000000 
-0.307162 -0.782445 0.000000 
-0.363386 -0.770324 0.000000 
-0.362692 -0.712812 0.000000 
-0.412122 -0.695519 0.000000 
-0.403017 -0.633372 0.000000 
-0.445733 -0.612793 0.000000 
-0.000000 -0.540598 0.000000 
0.043388 -0.637028 0.000000 
-0.000000 -0.606996 0.000000 
-0.043388 -0.637028 0.000000 
0.087158 -0.729225 0.000000 
0.043769 -0.705526 0.000000 
-0.000000 -0.743992 0.000000 
-0.043769 -0.705526 0.000000 
-0.087158 -0.729225 0.000000 
0.130831 -0.820355 0.000000 
0.087824 -0.798756 0.000000 
0.044436 -0.841455 0.000000 
-0.000000 -0.810390 0.000000 
-0.044436 -0.841455 0.000000 
-0.087824 -0.798756 0.000000 
-0.130831 -0.820355 0.000000 
0.174505 -0.911484 0.000000 
0.131782 -0.890918 0.000000 
0.088871 -0.936785 0.000000 
0.044532 -0.908921 0.000000 
-0.000000 -0.945321 0.000000 
-0.044532 -0.908921 0.000000 
-0.088871 -0.936785 0.000000 
-0.131782 -0.890918 0.000000 
-0.174505 -0.911484 0.000000 
0.046960 -0.517983 0.000000 
0.149405 -0.544184 0.000000 
0.098873 -0.559381 0.000000 
0.095301 -0.612029 0.000000 
0.248777 -0.567447 0.000000 
0.203197 -0.586594 0.000000 
0.205981 -0.644797 0.000000 
0.148617 -0.655034 0.000000 
0.140093 -0.703733 0.000000 
0.347255 -0.590120 0.000000 
0.303554 -0.610278 0.000000 
0.309886 -0.670823 0.000000 
0.257893 -0.686196 0.000000 
0.254475 -0.740306 0.000000 
0.194039 -0.747605 0.000000 
0.184111 -0.794696 0.000000 
0.445733 -0.612793 0.000000 
0.403017 -0.633372 0.000000 
0.412122 -0.695519 0.000000 
0.362692 -0.712812 0.000000 
0.363386 -0.770324 0.000000 
0.307162 -0.782445 0.000000 
0.301302 -0.834483 0.000000 
0.238687 -0.839436 0.000000 
0.228129 -0.885660 0.000000 
0.058559 -0.467167 0.000000 
0.142917 -0.403409 0.000000 
0.123292 -0.452392 0.000000 
0.162226 -0.488010 0.000000 
0.223062 -0.340221 0.000000 
0.209613 -0.387795 0.000000 
0.256854 -0.421908 0.000000 
0.229092 -0.473139 0.000000 
0.261851 -0.510166 0.000000 
0.302189 -0.277365 0.000000 
0.290702 -0.324100 0.000000 
0.341985 -0.356899 0.000000 
0.321587 -0.407133 0.000000 
0.361761 -0.443542 0.000000 
0.329787 -0.495344 0.000000 
0.360414 -0.532467 0.000000 
0.381315 -0.214508 0.000000 
0.370772 -0.260736 0.000000 
0.425037 -0.292365 0.000000 
0.407738 -0.341793 0.000000 
0.453135 -0.377108 0.000000 
0.427556 -0.428623 0.000000 
0.464588 -0.465650 0.000000 
0.429420 -0.517692 0.000000 
0.458977 -0.554767 0.000000 
0.026061 -0.426417 0.000000 
0.028809 -0.320710 0.000000 
0.054870 -0.366594 0.000000 
0.106992 -0.358361 0.000000 
0.029377 -0.218653 0.000000 
0.058186 -0.258830 0.000000 
0.114311 -0.243165 0.000000 
0.137056 -0.296812 0.000000 
0.186430 -0.294286 0.000000 
0.029568 -0.117599 0.000000 
0.058945 -0.155719 0.000000 
0.116563 -0.136073 0.000000 
0.143120 -0.183342 0.000000 
0.196633 -0.174633 0.000000 
0.217198 -0.231930 0.000000 
0.265318 -0.231130 0.000000 
0.029759 -0.016545 0.000000 
0.059328 -0.053611 0.000000 
0.117890 -0.030905 0.000000 
0.145749 -0.075248 0.000000 
0.201664 -0.061774 0.000000 
0.225992 -0.113891 0.000000 
0.278030 -0.108024 0.000000 
0.296791 -0.167967 0.000000 
0.344206 -0.167974 0.000000 
VECTORS X_EC float 
0.338794 0.256626 0.000000 
-0.609100 -0.662123 0.000000 
0.713312 -0.550982 0.000000 
0.374519 0.829588 0.000000 
0.423588 0.472858 0.000000 
-0.218274 0.506962 0.000000 
-0.513962 -0.217277 0.000000 
0.756418 -0.005791 0.000000 
0.381900 -0.548184 0.000000 
-0.550868 -0.379745 0.000000 
0.823577 -0.368950 0.000000 
0.556234 0.857546 0.000000 
-0.139443 0.975115 0.000000 
-0.484677 0.336990 0.000000 
0.766286 0.602206 0.000000 
0.384386 0.087585 0.000000 
0.474677 0.767652 0.000000 
-0.141715 0.767555 0.000000 
-0.385608 -0.041673 0.000000 
0.937896 0.037523 0.000000 
0.621631 -0.666058 0.000000 
-0.105264 -0.484158 0.000000 
-0.467428 0.917215 0.000000 
0.771260 -0.776256 0.000000 
0.386873 0.723354 0.000000 
0.761262 0.806760 0.000000 
0.108942 -0.911863 0.000000 
-0.397202 0.607297 0.000000 
-0.142083 -0.053978 0.000000 
-0.595936 -0.612753 0.000000 
0.978194 0.887381 0.000000 
-0.660903 0.195756 0.000000 
0.724964 -0.264764 0.000000 
0.899809 -0.907012 0.000000 
0.685384 -0.311700 0.000000 
0.287229 -0.812859 0.000000 
0.702895 0.487813 0.000000 
0.180633 -0.003706 0.000000 
0.445811 -0.681866 0.000000 
-0.220880 0.875348 0.000000 
-0.071546 0.244423 0.000000 
-0.033296 -0.010648 0.000000 
-0.417537 -0.511158 0.000000 
0.039645 0.786280 0.000000 
-0.441768 0.286409 0.000000 
-0.109248 -0.409042 0.000000 
-0.699407 -0.885798 0.000000 
-0.474522 0.446923 0.000000 
0.820030 0.019930 0.000000 
0.957100 -0.604142 0.000000 
0.610485 -0.507234 0.000000 
-0.761092 0.762386 0.000000 
-0.714655 0.051648 0.000000 
-0.057734 -0.153519 0.000000 
-0.178789 0.000390 0.000000 
-0.067979 -0.657036 0.000000 
0.677748 -0.795240 0.000000 
0.641556 0.419015 0.000000 
-0.765897 0.160537 0.000000 
0.393446 -0.771601 0.000000 
0.522510 0.592669 0.000000 
-0.691820 0.494125 0.000000 
-0.647393 -0.236358 0.000000 
0.028512 -0.443884 0.000000 
-0.053800 0.738755 0.000000 
0.514316 0.466624 0.000000 
0.965681 0.456408 0.000000 
-0.897068 -0.167621 0.000000 
-0.083078 -0.234474 0.000000 
-0.006893 -0.936998 0.000000 
0.724017 0.899369 0.000000 
0.714996 0.122965 0.000000 
-0.642413 -0.110492 0.000000 
-0.760780 -0.949473 0.000000 
-0.205471 0.772712 0.000000 
0.000000 -0.201932 0.000000 
-0.564049 -0.900119 0.000000 
0.000000 0.694445 0.000000 
0.564049 -0.900119 0.000000 
0.866949 0.344536 0.000000 
-0.569003 0.024605 0.000000 
0.000000 0.543893 0.000000 
0.569003 0.024605 0.000000 
-0.866949 0.344536 0.000000 
0.299194 -0.425214 0.000000 
0.858290 -0.716798 0.000000 
-0.577662 -0.140352 0.000000 
0.000000 -0.559730 0.000000 
0.577662 -0.140352 0.000000 
-0.858290 -0.716798 0.000000 
-0.299194 -0.425214 0.000000 
-0.268560 0.805036 0.000000 
0.286830 0.527395 0.000000 
0.844677 -0.853407 0.000000 
-0.578910 0.770430 0.000000 
0.000000 -0.738166 0.000000 
0.578910 0.770430 0.000000 
-0.844677 -0.853407 0.000000 
-0.286830 0.527395 0.000000 
0.268560 0.805036 0.000000 
-0.610485 -0.507234 0.000000 
0.057734 -0.153519 0.000000 
0.714655 0.051648 0.000000 
0.761092 0.762386 0.000000 
0.765897 0.160537 0.000000 
-0.641556 0.419015 0.000000 
-0.677748 -0.795240 0.000000 
0.067979 -0.657036 0.000000 
0.178789 0.000390 0.000000 
-0.514316 0.466624 0.000000 
0.053800 0.738755 0.000000 
-0.028512 -0.443884 0.000000 
0.647393 -0.236358 0.000000 
0.691820 0.494125 0.000000 
-0.522510 0.592669 0.000000 
-0.393446 -0.771601 0.000000 
0.205471 0.772712 0.000000 
0.760780 -0.949473 0.000000 
0.642413 -0.110492 0.000000 
-0.714996 0.122965 0.000000 
-0.724017 0.899369 0.000000 
0.006894 -0.936998 0.000000 
0.083078 -0.234474 0.000000 
0.897068 -0.167621 0.000000 
-0.965681 0.456408 0.000000 
-0.761262 0.806760 0.000000 
0.142083 -0.053978 0.000000 
0.397202 0.607297 0.000000 
-0.108942 -0.911863 0.000000 
-0.899809 -0.907012 0.000000 
-0.724964 -0.264764 0.000000 
0.660903 0.195756 0.000000 
-0.978194 0.887382 0.000000 
0.595936 -0.612753 0.000000 
0.071546 0.244423 0.000000 
0.220880 0.875348 0.000000 
-0.445811 -0.681866 0.000000 
-0.180633 -0.003706 0.000000 
-0.702895 0.487813 0.000000 
-0.287229 -0.812859 0.000000 
-0.685384 -0.311700 0.000000 
-0.957100 -0.604142 0.000000 
-0.820030 0.019930 0.000000 
0.474522 0.446923 0.000000 
0.699407 -0.885798 0.000000 
0.109248 -0.409042 0.000000 
0.441768 0.286409 0.000000 
-0.039645 0.786280 0.000000 
0.417537 -0.511158 0.000000 
0.033296 -0.010648 0.000000 
-0.338794 0.256626 0.000000 
-0.374519 0.829588 0.000000 
-0.713312 -0.550982 0.000000 
0.609100 -0.662123 0.000000 
-0.381900 -0.548184 0.000000 
-0.756418 -0.005791 0.000000 
0.513962 -0.217277 0.000000 
0.218274 0.506962 0.000000 
-0.423588 0.472858 0.000000 
-0.384386 0.087585 0.000000 
-0.766286 0.602206 0.000000 
0.484677 0.336990 0.000000 
0.139443 0.975115 0.000000 
-0.556234 0.857546 0.000000 
-0.823577 -0.368950 0.000000 
0.550868 -0.379745 0.000000 
-0.386873 0.723354 0.000000 
-0.771260 -0.776256 0.000000 
0.467428 0.917215 0.000000 
0.105264 -0.484158 0.000000 
-0.621631 -0.666057 0.000000 
-0.937896 0.037523 0.000000 
0.385608 -0.041673 0.000000 
0.141715 0.767555 0.000000 
-0.474677 0.767652 0.000000 
CELL_DATA 175 
SCALARS MASS float 
LOOKUP_TABLE default 
0.781831 
0.864274 
0.946717 
0.864274 
0.881307 
0.921110 
0.858535 
0.921110 
0.881307 
0.887046 
0.910001 
0.869829 
0.915556 
0.869829 
0.910001 
0.887046 
0.892784 
0.915740 
0.892784 
0.927218 
0.892784 
0.927218 
0.892784 
0.915740 
0.892784 
0.781831 
0.864274 
0.946717 
0.864274 
0.881307 
0.921110 
0.858535 
0.921110 
0.881307 
0.887046 
0.910001 
0.869829 
0.915556 
0.869829 
0.910001 
0.887046 
0.892784 
0.915740 
0.892784 
0.927218 
0.892784 
0.927218 
0.892784 
0.915740 
0.892784 
0.781831 
0.864274 
0.946717 
0.864274 
0.881307 
0.921110 
0.858535 
0.921110 
0.881307 
0.887046 
0.910001 
0.869829 
0.915556 
0.869829 
0.910001 
0.887046 
0.892784 
0.915740 
0.892784 
0.927218 
0.892784 
0.927218 
0.892784 
0.915740 
0.892784 
0.781831 
0.864274 
0.946717 
0.864274 
0.881307 
0.921110 
0.858535 
0.921110 
0.881307 
0.887046 
0.910001 
0.869829 
0.915556 
0.869829 
0.910001 
0.887046 
0.892784 
0.915740 
0.892784 
0.927218 
0.892784 
0.927218 
0.892784 
0.915740 
0.892784 
0.781831 
0.864274 
0.946717 
0.864274 
0.881307 
0.921110 
0.858535 
0.921110 
0.881307 
0.887046 
0.910001 
0.869829 
0.915556 
0.869829 
0.910001 
0.887046 
0.892784 
0.915740 
0.892784 
0.927218 
0.892784 
0.927218 
0.892784 
0.915740 
0.892784 
0.781831 
0.864274 
0.946717 
0.864274 
0.881307 
0.921110 
0.858535 
0.921110 
0.881307 
0.887046 
0.910001 
0.869829 
0.915556 
0.869829 
0.910001 
0.887046 
0.892784 
0.915740 
0.892784 
0.927218 
0.892784 
0.927218 
0.892784 
0.915740 
0.892784 
0.781831 
0.864274 
0.946717 
0.864274 
0.881307 
0.921110 
0.858535 
0.921110 
0.881307 
0.887046 
0.910001 
0.869829 
0.915556 
0.869829 
0.910001 
0.887046 
0.892784 
0.915740 
0.892784 
0.927218 
0.892784 
0.927218 
0.892784 
0.915740 
0.892784 
SCALARS MASS float 
LOOKUP_TABLE default 
0.781831 
0.864274 
0.946717 
0.864274 
0.881307 
0.921110 
0.858535 
0.921110 
0.881307 
0.887046 
0.910001 
0.869829 
0.915556 
0.869829 
0.910001 
0.887046 
0.892784 
0.915740 
0.892784 
0.927218 
0.892784 
0.927218 
0.892784 
0.915740 
0.892784 
0.781831 
0.864274 
0.946717 
0.864274 
0.881307 
0.921110 
0.858535 
0.921110 
0.881307 
0.887046 
0.910001 
0.869829 
0.915556 
0.869829 
0.910001 
0.887046 
0.892784 
0.915740 
0.892784 
0.927218 
0.892784 
0.927218 
0.892784 
0.915740 
0.892784 
0.781831 
0.864274 
0.946717 
0.864274 
0.881307 
0.921110 
0.858535 
0.921110 
0.881307 
0.887046 
0.910001 
0.869829 
0.915556 
0.869829 
0.910001 
0.887046 
0.892784 
0.915740 
0.892784 
0.927218 
0.892784 
0.927218 
0.892784 
0.915740 
0.892784 
0.781831 
0.864274 
0.946717 
0.864274 
0.881307 
0.921110 
0.858535 
0.921110 
0.881307 
0.887046 
0.910001 
0.869829 
0.915556 
0.869829 
0.910001 
0.887046 
0.892784 
0.915740 
0.892784 
0.927218 
0.892784 
0.927218 
0.892784 
0.915740 
0.892784 
0.781831 
0.864274 
0.946717 
0.864274 
0.881307 
0.921110 
0.858535 
0.921110 
0.881307 
0.887046 
0.910001 
0.869829 
0.915556 
0.869829 
0.910001 
0.887046 
0.892784 
0.915740 
0.892784 
0.927218 
0.892784 
0.927218 
0.892784 
0.915740 
0.892784 
0.781831 
0.864274 
0.946717 
0.864274 
0.881307 
0.921110 
0.858535 
0.921110 
0.881307 
0.887046 
0.910001 
0.869829 
0.915556 
0.869829 
0.910001 
0.887046 
0.892784 
0.915740 
0.892784 
0.927218 
0.892784 
0.927218 
0.892784 
0.915740 
0.892784 
0.781831 
0.864274 
0.946717 
0.864274 
0.881307 
0.921110 
0.858535 
0.921110 
0.881307 
0.887046 
0.910001 
0.869829 
0.915556 
0.869829 
0.910001 
0.887046 
0.892784 
0.915740 
0.892784 
0.927218 
0.892784 
0.927218 
0.892784 
0.915740 
0.892784 
SCALARS DENSITY float 
LOOKUP_TABLE default 
200.000000 
200.000000 
200.000000 
200.000000 
200.000000 
200.000000 
200.000000 
200.000000 
200.000000 
200.000000 
200.000000 
200.000000 
200.000000 
200.000000 
200.000000 
200.000000 
200.000000 
200.000000 
200.000000 
200.000000 
200.000000 
200.000000 
200.000000 
200.000000 
200.000000 
200.000000 
200.000000 
200.000000 
200.000000 
200.000000 
200.000000 
200.000000 
200.000000 
200.000000 
200.000000 
200.000000 
200.000000 
200.000000 
200.000000 
200.000000 
200.000000 
200.000000 
200.000000 
200.000000 
200.000000 
200.000000 
200.000000 
200.000000 
200.000000 
200.000000 
200.000000 
200.000000 
200.000000 
200.000000 
200.000000 
200.000000 
200.000000 
200.000000 
200.000000 
200.000000 
200.000000 
200.000000 
200.000000 
200.000000 
200.000000 
200.000000 
200.000000 
200.000000 
200.000000 
200.000000 
200.000000 
200.000000 
200.000000 
200.000000 
200.000000 
200.000000 
200.000000 
200.000000 
200.000000 
200.000000 
200.000000 
200.000000 
200.000000 
200.000000 
200.000000 
200.000000 
200.000000 
200.000000 
200.000000 
200.000000 
200.000000 
200.000000 
200.000000 
200.000000 
200.000000 
200.000000 
200.000000 
200.000000 
200.000000 
200.000000 
200.000000 
200.000000 
200.000000 
200.000000 
200.000000 
200.000000 
200.000000 
200.000000 
200.000000 
200.000000 
200.000000 
200.000000 
200.000000 
200.000000 
200.000000 
200.000000 
200.000000 
200.000000 
200.000000 
200.000000 
200.000000 
200.000000 
200.000000 
200.000000 
200.000000 
200.000000 
200.000000 
200.000000 
200.000000 
200.000000 
200.000000 
200.000000 
200.000000 
200.000000 
200.000000 
200.000000 
200.000000 
200.000000 
200.000000 
200.000000 
200.000000 
200.000000 
200.000000 
200.000000 
200.000000 
200.000000 
200.000000 
200.000000 
200.000000 
200.000000 
200.000000 
200.000000 
200.000000 
200.000000 
200.000000 
200.000000 
200.000000 
200.000000 
200.000000 
200.000000 
200.000000 
200.000000 
200.000000 
200.000000 
200.000000 
200.000000 
200.000000 
200.000000 
200.000000 
200.000000 
200.000000 
200.000000 
200.000000 
200.000000 
200.000000 
SCALARS ELEM_i float 
LOOKUP_TABLE default 
179 
206 
179 
180 
207 
207 
207 
180 
180 
234 
207 
208 
208 
208 
181 
181 
235 
235 
235 
208 
208 
208 
209 
181 
182 
179 
205 
206 
206 
232 
206 
233 
206 
206 
232 
232 
233 
233 
233 
234 
234 
259 
259 
260 
260 
260 
260 
261 
234 
234 
178 
205 
205 
205 
204 
204 
204 
205 
232 
203 
204 
231 
231 
231 
232 
232 
203 
230 
230 
230 
231 
231 
258 
258 
259 
178 
177 
178 
177 
150 
177 
177 
177 
204 
149 
149 
176 
176 
176 
203 
203 
149 
149 
148 
176 
175 
176 
202 
203 
203 
178 
151 
151 
151 
124 
151 
150 
150 
150 
124 
124 
123 
123 
123 
150 
149 
97 
96 
96 
123 
123 
122 
122 
122 
149 
179 
152 
152 
151 
152 
152 
125 
152 
124 
126 
126 
125 
125 
125 
124 
124 
126 
126 
99 
98 
98 
98 
98 
97 
97 
179 
180 
179 
152 
180 
180 
153 
153 
153 
181 
181 
154 
154 
154 
153 
126 
182 
181 
155 
154 
154 
154 
127 
127 
127 
VECTORS VELOCITY float 
0.000000 -3.060720 0.000000 
0.000000 -3.060720 0.000000 
0.000000 -3.060720 0.000000 
0.000000 -3.060720 0.000000 
0.000000 -3.060720 0.000000 
0.000000 -3.060720 0.000000 
0.000000 -3.060720 0.000000 
0.000000 -3.060720 0.000000 
-0.000000 -3.060720 0.000000 
0.000000 -3.060720 0.000000 
0.000000 -3.060720 0.000000 
-0.000000 -3.060720 0.000000 
-0.000000 -3.060720 0.000000 
-0.000000 -3.060720 0.000000 
-0.000000 -3.060720 0.000000 
0.000000 -3.060720 0.000000 
0.000000 -3.060720 0.000000 
0.000000 -3.060720 0.000000 
0.000000 -3.060720 0.000000 
-0.000000 -3.060720 0.000000 
0.000000 -3.060720 0.000000 
-0.000000 -3.060720 0.000000 
0.000000 -3.060720 0.000000 
-0.000000 -3.060720 0.000000 
0.000000 -3.060720 0.000000 
0.000000 -3.060720 0.000000 
-0.000000 -3.060720 0.000000 
0.000000 -3.060720 0.000000 
0.000000 -3.060720 0.000000 
-0.000000 -3.060720 0.000000 
-0.000000 -3.060720 0.000000 
0.000000 -3.060720 0.000000 
0.000000 -3.060720 0.000000 
0.000000 -3.060720 0.000000 
0.000000 -3.060720 0.000000 
0.000000 -3.060720 0.000000 
0.000000 -3.060720 0.000000 
0.000000 -3.060720 0.000000 
0.000000 -3.060720 0.000000 
0.000000 -3.060720 0.000000 
0.000000 -3.060720 0.000000 
-0.000000 -3.060720 0.000000 
0.000000 -3.060720 0.000000 
-0.000000 -3.060720 0.000000 
0.000000 -3.060720 0.000000 
-0.000000 -3.060720 0.000000 
-0.000000 -3.060720 0.000000 
-0.000000 -3.060720 0.000000 
0.000000 -3.060720 0.000000 
-0.000000 -3.060720 0.000000 
0.000000 -3.060720 0.000000 
0.000000 -3.060720 0.000000 
0.000000 -3.060720 0.000000 
-0.000000 -3.060720 0.000000 
0.000000 -3.060720 0.000000 
-0.000000 -3.060720 0.000000 
-0.000000 -3.060720 0.000000 
-0.000000 -3.060720 0.000000 
-0.000000 -3.060720 0.000000 
-0.000000 -3.060720 0.000000 
0.000000 -3.060720 0.000000 
-0.000000 -3.060720 0.000000 
-0.000000 -3.060720 0.000000 
-0.000000 -3.060720 0.000000 
-0.000000 -3.060720 0.000000 
0.000000 -3.060720 0.000000 
-0.000000 -3.060720 0.000000 
-0.000000 -3.060720 0.000000 
-0.000000 -3.060720 0.000000 
0.000000 -3.060720 0.000000 
0.000000 -3.060720 0.000000 
-0.000000 -3.060720 0.000000 
0.000000 -3.060720 0.000000 
0.000000 -3.060720 0.000000 
0.000000 -3.060720 0.000000 
-0.000000 -3.060720 0.000000 
0.000000 -3.060720 0.000000 
0.000000 -3.060720 0.000000 
0.000000 -3.060720 0.000000 
0.000000 -3.060720 0.000000 
0.000000 -3.060720 0.000000 
0.000000 -3.060720 0.000000 
0.000000 -3.060720 0.000000 
0.000000 -3.060720 0.000000 
-0.000000 -3.060720 0.000000 
0.000000 -3.060720 0.000000 
-0.000000 -3.060720 0.000000 
0.000000 -3.060720 0.000000 
0.000000 -3.060720 0.000000 
0.000000 -3.060720 0.000000 
0.000000 -3.060720 0.000000 
-0.000000 -3.060720 0.000000 
-0.000000 -3.060720 0.000000 
-0.000000 -3.060720 0.000000 
-0.000000 -3.060720 0.000000 
-0.000000 -3.060720 0.000000 
0.000000 -3.060720 0.000000 
0.000000 -3.060720 0.000000 
0.000000 -3.060720 0.000000 
0.000000 -3.060720 0.000000 
-0.000000 -3.060720 0.000000 
-0.000000 -3.060720 0.000000 
-0.000000 -3.060720 0.000000 
0.000000 -3.060720 0.000000 
-0.000000 -3.060720 0.000000 
-0.000000 -3.060720 0.000000 
-0.000000 -3.060720 0.000000 
0.000000 -3.060720 0.000000 
0.000000 -3.060720 0.000000 
0.000000 -3.060720 0.000000 
0.000000 -3.060720 0.000000 
-0.000000 -3.060720 0.000000 
-0.000000 -3.060720 0.000000 
-0.000000 -3.060720 0.000000 
-0.000000 -3.060720 0.000000 
-0.000000 -3.060720 0.000000 
-0.000000 -3.060720 0.000000 
0.000000 -3.060720 0.000000 
0.000000 -3.060720 0.000000 
0.000000 -3.060720 0.000000 
0.000000 -3.060720 0.000000 
-0.000000 -3.060720 0.000000 
-0.000000 -3.060720 0.000000 
-0.000000 -3.060720 0.000000 
-0.000000 -3.060720 0.000000 
-0.000000 -3.060720 0.000000 
-0.000000 -3.060720 0.000000 
-0.000000 -3.060720 0.000000 
-0.000000 -3.060720 0.000000 
0.000000 -3.060720 0.000000 
0.000000 -3.060720 0.000000 
-0.000000 -3.060720 0.000000 
0.000000 -3.060720 0.000000 
0.000000 -3.060720 0.000000 
0.000000 -3.060720 0.000000 
0.000000 -3.060720 0.000000 
-0.000000 -3.060720 0.000000 
0.000000 -3.060720 0.000000 
0.000000 -3.060720 0.000000 
0.000000 -3.060720 0.000000 
0.000000 -3.060720 0.000000 
-0.000000 -3.060720 0.000000 
-0.000000 -3.060720 0.000000 
0.000000 -3.060720 0.000000 
-0.000000 -3.060720 0.000000 
-0.000000 -3.060720 0.000000 
-0.000000 -3.060720 0.000000 
-0.000000 -3.060720 0.000000 
0.000000 -3.060720 0.000000 
0.000000 -3.060720 0.000000 
-0.000000 -3.060720 0.000000 
-0.000000 -3.060720 0.000000 
0.000000 -3.060720 0.000000 
0.000000 -3.060720 0.000000 
-0.000000 -3.060720 0.000000 
-0.000000 -3.060720 0.000000 
-0.000000 -3.060720 0.000000 
-0.000000 -3.060720 0.000000 
0.000000 -3.060720 0.000000 
0.000000 -3.060720 0.000000 
-0.000000 -3.060720 0.000000 
0.000000 -3.060720 0.000000 
0.000000 -3.060720 0.000000 
0.000000 -3.060720 0.000000 
0.000000 -3.060720 0.000000 
0.000000 -3.060720 0.000000 
0.000000 -3.060720 0.000000 
0.000000 -3.060720 0.000000 
-0.000000 -3.060720 0.000000 
0.000000 -3.060720 0.000000 
-0.000000 -3.060720 0.000000 
-0.000000 -3.060720 0.000000 
-0.000000 -3.060720 0.000000 
-0.000000 -3.060720 0.000000 
-0.000000 -3.060720 0.000000 
TENSORS STRESS float 
0.000000 -0.000000 0.000000 
0.000000 0.000000 0.000000 
0.000000 0.000000 0.000000 

0.000000 -0.000000 0.000000 
0.000000 0.000000 0.000000 
0.000000 0.000000 0.000000 

0.000000 -0.000000 0.000000 
0.000000 0.000000 0.000000 
0.000000 0.000000 0.000000 

-0.000000 -0.000000 0.000000 
0.000000 -0.000000 0.000000 
0.000000 0.000000 0.000000 

-0.000000 0.000000 0.000000 
0.000000 -0.000000 0.000000 
0.000000 0.000000 0.000000 

-0.000000 -0.000000 0.000000 
0.000000 -0.000000 0.000000 
0.000000 0.000000 0.000000 

0.000000 0.000000 0.000000 
0.000000 0.000000 0.000000 
0.000000 0.000000 0.000000 

0.000000 0.000000 0.000000 
0.000000 0.000000 0.000000 
0.000000 0.000000 0.000000 

0.000000 0.000000 0.000000 
0.000000 0.000000 0.000000 
0.000000 0.000000 0.000000 

0.000000 0.000000 0.000000 
0.000000 0.000000 0.000000 
0.000000 0.000000 0.000000 

0.000000 0.000000 0.000000 
0.000000 0.000000 0.000000 