# vtk DataFile Version 3.0 
vtk output 
ASCII 
DATASET UNSTRUCTURED_GRID 
POINTS 184 float 
-nan -nan 0.000000 
-nan -nan 0.000000 
-nan -nan 0.000000 
-nan -nan 0.000000 
-nan -nan 0.000000 
0.469072 12.674991 0.000000 
-nan -nan 0.000000 
-nan -nan 0.000000 
-nan -nan 0.000000 
-nan -nan 0.000000 
-nan -nan 0.000000 
-nan -nan 0.000000 
-nan -nan 0.000000 
-nan -nan 0.000000 
-nan -nan 0.000000 
-nan -nan 0.000000 
-nan -nan 0.000000 
-nan -nan 0.000000 
-nan -nan 0.000000 
-nan -nan 0.000000 
-nan -nan 0.000000 
-nan -nan 0.000000 
-nan -nan 0.000000 
-1.104639 71.740070 0.000000 
-nan -nan 0.000000 
-nan -nan 0.000000 
-27.081727 50.686406 0.000000 
-1.508905 19.615192 0.000000 
-nan -nan 0.000000 
-nan -nan 0.000000 
-nan -nan 0.000000 
-nan -nan 0.000000 
-nan -nan 0.000000 
-nan -nan 0.000000 
-nan -nan 0.000000 
-nan -nan 0.000000 
-nan -nan 0.000000 
-nan -nan 0.000000 
-nan -nan 0.000000 
-nan -nan 0.000000 
-nan -nan 0.000000 
-nan -nan 0.000000 
-nan -nan 0.000000 
-nan -nan 0.000000 
-nan -nan 0.000000 
-nan -nan 0.000000 
-nan -nan 0.000000 
-nan -nan 0.000000 
-nan -nan 0.000000 
-nan -nan 0.000000 
-nan -nan 0.000000 
-nan -nan 0.000000 
-6.005276 -7.439680 0.000000 
-nan -nan 0.000000 
-nan -nan 0.000000 
-nan -nan 0.000000 
-nan -nan 0.000000 
-nan -nan 0.000000 
-nan -nan 0.000000 
14.875878 -30.678369 0.000000 
-8.972139 -6.267920 0.000000 
25.156250 29.921875 0.000000 
-nan -nan 0.000000 
-nan -nan 0.000000 
-nan -nan 0.000000 
-nan -nan 0.000000 
-nan -nan 0.000000 
-nan -nan 0.000000 
-nan -nan 0.000000 
-nan -nan 0.000000 
-nan -nan 0.000000 
-nan -nan 0.000000 
-nan -nan 0.000000 
-nan -nan 0.000000 
-nan -nan 0.000000 
-nan -nan 0.000000 
-nan -nan 0.000000 
-nan -nan 0.000000 
-nan -nan 0.000000 
-nan -nan 0.000000 
-nan -nan 0.000000 
-nan -nan 0.000000 
-nan -nan 0.000000 
-nan -nan 0.000000 
-nan -nan 0.000000 
-nan -nan 0.000000 
0.000000 -36.000000 0.000000 
-nan -nan 0.000000 
-nan -nan 0.000000 
-nan -nan 0.000000 
-nan -nan 0.000000 
-nan -nan 0.000000 
-nan -nan 0.000000 
-nan -nan 0.000000 
-nan -nan 0.000000 
-nan -nan 0.000000 
-nan -nan 0.000000 
-nan -nan 0.000000 
-6.169236 -15.639628 0.000000 
-nan -nan 0.000000 
-nan -nan 0.000000 
-nan -nan 0.000000 
1.954078 -11.674239 0.000000 
-nan -nan 0.000000 
2.948730 19.069824 0.000000 
-nan -nan 0.000000 
-nan -nan 0.000000 
-nan -nan 0.000000 
-nan -nan 0.000000 
-nan -nan 0.000000 
-nan -nan 0.000000 
-nan -nan 0.000000 
14.165934 20.174767 0.000000 
-nan -nan 0.000000 
-nan -nan 0.000000 
-nan -nan 0.000000 
-nan -nan 0.000000 
-nan -nan 0.000000 
-nan -nan 0.000000 
-nan -nan 0.000000 
-nan -nan 0.000000 
-nan -nan 0.000000 
-nan -nan 0.000000 
-nan -nan 0.000000 
-nan -nan 0.000000 
-nan -nan 0.000000 
-nan -nan 0.000000 
-nan -nan 0.000000 
-nan -nan 0.000000 
-nan -nan 0.000000 
-12.529153 9.610749 0.000000 
-nan -nan 0.000000 
-nan -nan 0.000000 
-nan -nan 0.000000 
-nan -nan 0.000000 
-nan -nan 0.000000 
-nan -nan 0.000000 
-nan -nan 0.000000 
-nan -nan 0.000000 
-nan -nan 0.000000 
-nan -nan 0.000000 
-nan -nan 0.000000 
-12.801483 -8.538418 0.000000 
-nan -nan 0.000000 
-nan -nan 0.000000 
-nan -nan 0.000000 
-nan -nan 0.000000 
-nan -nan 0.000000 
10.529906 14.597914 0.000000 
-nan -nan 0.000000 
-nan -nan 0.000000 
-nan -nan 0.000000 
-nan -nan 0.000000 
-nan -nan 0.000000 
-nan -nan 0.000000 
-nan -nan 0.000000 
-nan -nan 0.000000 
-nan -nan 0.000000 
-nan -nan 0.000000 
-nan -nan 0.000000 
-nan -nan 0.000000 
-nan -nan 0.000000 
-nan -nan 0.000000 
-nan -nan 0.000000 
-nan -nan 0.000000 
-nan -nan 0.000000 
-15.248590 58.495641 0.000000 
8.889313 27.529105 0.000000 
-nan -nan 0.000000 
-nan -nan 0.000000 
-nan -nan 0.000000 
-nan -nan 0.000000 
-nan -nan 0.000000 
-nan -nan 0.000000 
-nan -nan 0.000000 
-nan -nan 0.000000 
-nan -nan 0.000000 
-6.293801 33.931930 0.000000 
-nan -nan 0.000000 
-nan -nan 0.000000 
-nan -nan 0.000000 
-nan -nan 0.000000 
-nan -nan 0.000000 
15.107707 -3.053203 0.000000 
CELLS 184 368 
1 0 
1 1 
1 2 
1 3 
1 4 
1 5 
1 6 
1 7 
1 8 
1 9 
1 10 
1 11 
1 12 
1 13 
1 14 
1 15 
1 16 
1 17 
1 18 
1 19 
1 20 
1 21 
1 22 
1 23 
1 24 
1 25 
1 26 
1 27 
1 28 
1 29 
1 30 
1 31 
1 32 
1 33 
1 34 
1 35 
1 36 
1 37 
1 38 
1 39 
1 40 
1 41 
1 42 
1 43 
1 44 
1 45 
1 46 
1 47 
1 48 
1 49 
1 50 
1 51 
1 52 
1 53 
1 54 
1 55 
1 56 
1 57 
1 58 
1 59 
1 60 
1 61 
1 62 
1 63 
1 64 
1 65 
1 66 
1 67 
1 68 
1 69 
1 70 
1 71 
1 72 
1 73 
1 74 
1 75 
1 76 
1 77 
1 78 
1 79 
1 80 
1 81 
1 82 
1 83 
1 84 
1 85 
1 86 
1 87 
1 88 
1 89 
1 90 
1 91 
1 92 
1 93 
1 94 
1 95 
1 96 
1 97 
1 98 
1 99 
1 100 
1 101 
1 102 
1 103 
1 104 
1 105 
1 106 
1 107 
1 108 
1 109 
1 110 
1 111 
1 112 
1 113 
1 114 
1 115 
1 116 
1 117 
1 118 
1 119 
1 120 
1 121 
1 122 
1 123 
1 124 
1 125 
1 126 
1 127 
1 128 
1 129 
1 130 
1 131 
1 132 
1 133 
1 134 
1 135 
1 136 
1 137 
1 138 
1 139 
1 140 
1 141 
1 142 
1 143 
1 144 
1 145 
1 146 
1 147 
1 148 
1 149 
1 150 
1 151 
1 152 
1 153 
1 154 
1 155 
1 156 
1 157 
1 158 
1 159 
1 160 
1 161 
1 162 
1 163 
1 164 
1 165 
1 166 
1 167 
1 168 
1 169 
1 170 
1 171 
1 172 
1 173 
1 174 
1 175 
1 176 
1 177 
1 178 
1 179 
1 180 
1 181 
1 182 
1 183 
CELL_TYPES 184 
1 
1 
1 
1 
1 
1 
1 
1 
1 
1 
1 
1 
1 
1 
1 
1 
1 
1 
1 
1 
1 
1 
1 
1 
1 
1 
1 
1 
1 
1 
1 
1 
1 
1 
1 
1 
1 
1 
1 
1 
1 
1 
1 
1 
1 
1 
1 
1 
1 
1 
1 
1 
1 
1 
1 
1 
1 
1 
1 
1 
1 
1 
1 
1 
1 
1 
1 
1 
1 
1 
1 
1 
1 
1 
1 
1 
1 
1 
1 
1 
1 
1 
1 
1 
1 
1 
1 
1 
1 
1 
1 
1 
1 
1 
1 
1 
1 
1 
1 
1 
1 
1 
1 
1 
1 
1 
1 
1 
1 
1 
1 
1 
1 
1 
1 
1 
1 
1 
1 
1 
1 
1 
1 
1 
1 
1 
1 
1 
1 
1 
1 
1 
1 
1 
1 
1 
1 
1 
1 
1 
1 
1 
1 
1 
1 
1 
1 
1 
1 
1 
1 
1 
1 
1 
1 
1 
1 
1 
1 
1 
1 
1 
1 
1 
1 
1 
1 
1 
1 
1 
1 
1 
1 
1 
1 
1 
1 
1 
1 
1 
1 
1 
1 
1 
POINT_DATA 184 
VECTORS X_GC float 
-nan -nan 0.000000 
-nan -nan 0.000000 
-nan -nan 0.000000 
-nan -nan 0.000000 
-nan -nan 0.000000 
0.469072 12.674991 0.000000 
-nan -nan 0.000000 
-nan -nan 0.000000 
-nan -nan 0.000000 
-nan -nan 0.000000 
-nan -nan 0.000000 
-nan -nan 0.000000 
-nan -nan 0.000000 
-nan -nan 0.000000 
-nan -nan 0.000000 
-nan -nan 0.000000 
-nan -nan 0.000000 
-nan -nan 0.000000 
-nan -nan 0.000000 
-nan -nan 0.000000 
-nan -nan 0.000000 
-nan -nan 0.000000 
-nan -nan 0.000000 
-1.104639 71.740070 0.000000 
-nan -nan 0.000000 
-nan -nan 0.000000 
-27.081727 50.686406 0.000000 
-1.508905 19.615192 0.000000 
-nan -nan 0.000000 
-nan -nan 0.000000 
-nan -nan 0.000000 
-nan -nan 0.000000 
-nan -nan 0.000000 
-nan -nan 0.000000 
-nan -nan 0.000000 
-nan -nan 0.000000 
-nan -nan 0.000000 
-nan -nan 0.000000 
-nan -nan 0.000000 
-nan -nan 0.000000 
-nan -nan 0.000000 
-nan -nan 0.000000 
-nan -nan 0.000000 
-nan -nan 0.000000 
-nan -nan 0.000000 
-nan -nan 0.000000 
-nan -nan 0.000000 
-nan -nan 0.000000 
-nan -nan 0.000000 
-nan -nan 0.000000 
-nan -nan 0.000000 
-nan -nan 0.000000 
-6.005276 -7.439680 0.000000 
-nan -nan 0.000000 
-nan -nan 0.000000 
-nan -nan 0.000000 
-nan -nan 0.000000 
-nan -nan 0.000000 
-nan -nan 0.000000 
14.875878 -30.678369 0.000000 
-8.972139 -6.267920 0.000000 
25.156250 29.921875 0.000000 
-nan -nan 0.000000 
-nan -nan 0.000000 
-nan -nan 0.000000 
-nan -nan 0.000000 
-nan -nan 0.000000 
-nan -nan 0.000000 
-nan -nan 0.000000 
-nan -nan 0.000000 
-nan -nan 0.000000 
-nan -nan 0.000000 
-nan -nan 0.000000 
-nan -nan 0.000000 
-nan -nan 0.000000 
-nan -nan 0.000000 
-nan -nan 0.000000 
-nan -nan 0.000000 
-nan -nan 0.000000 
-nan -nan 0.000000 
-nan -nan 0.000000 
-nan -nan 0.000000 
-nan -nan 0.000000 
-nan -nan 0.000000 
-nan -nan 0.000000 
-nan -nan 0.000000 
0.000000 -36.000000 0.000000 
-nan -nan 0.000000 
-nan -nan 0.000000 
-nan -nan 0.000000 
-nan -nan 0.000000 
-nan -nan 0.000000 
-nan -nan 0.000000 
-nan -nan 0.000000 
-nan -nan 0.000000 
-nan -nan 0.000000 
-nan -nan 0.000000 
-nan -nan 0.000000 
-6.169236 -15.639628 0.000000 
-nan -nan 0.000000 
-nan -nan 0.000000 
-nan -nan 0.000000 
1.954078 -11.674239 0.000000 
-nan -nan 0.000000 
2.948730 19.069824 0.000000 
-nan -nan 0.000000 
-nan -nan 0.000000 
-nan -nan 0.000000 
-nan -nan 0.000000 
-nan -nan 0.000000 
-nan -nan 0.000000 
-nan -nan 0.000000 
14.165934 20.174767 0.000000 
-nan -nan 0.000000 
-nan -nan 0.000000 
-nan -nan 0.000000 
-nan -nan 0.000000 
-nan -nan 0.000000 
-nan -nan 0.000000 
-nan -nan 0.000000 
-nan -nan 0.000000 
-nan -nan 0.000000 
-nan -nan 0.000000 
-nan -nan 0.000000 
-nan -nan 0.000000 
-nan -nan 0.000000 
-nan -nan 0.000000 
-nan -nan 0.000000 
-nan -nan 0.000000 
-nan -nan 0.000000 
-12.529153 9.610749 0.000000 
-nan -nan 0.000000 
-nan -nan 0.000000 
-nan -nan 0.000000 
-nan -nan 0.000000 
-nan -nan 0.000000 
-nan -nan 0.000000 
-nan -nan 0.000000 
-nan -nan 0.000000 
-nan -nan 0.000000 
-nan -nan 0.000000 
-nan -nan 0.000000 
-12.801483 -8.538418 0.000000 
-nan -nan 0.000000 
-nan -nan 0.000000 
-nan -nan 0.000000 
-nan -nan 0.000000 
-nan -nan 0.000000 
10.529906 14.597914 0.000000 
-nan -nan 0.000000 
-nan -nan 0.000000 
-nan -nan 0.000000 
-nan -nan 0.000000 
-nan -nan 0.000000 
-nan -nan 0.000000 
-nan -nan 0.000000 
-nan -nan 0.000000 
-nan -nan 0.000000 
-nan -nan 0.000000 
-nan -nan 0.000000 
-nan -nan 0.000000 
-nan -nan 0.000000 
-nan -nan 0.000000 
-nan -nan 0.000000 
-nan -nan 0.000000 
-nan -nan 0.000000 
-15.248590 58.495641 0.000000 
8.889313 27.529105 0.000000 
-nan -nan 0.000000 
-nan -nan 0.000000 
-nan -nan 0.000000 
-nan -nan 0.000000 
-nan -nan 0.000000 
-nan -nan 0.000000 
-nan -nan 0.000000 
-nan -nan 0.000000 
-nan -nan 0.000000 
-6.293801 33.931930 0.000000 
-nan -nan 0.000000 
-nan -nan 0.000000 
-nan -nan 0.000000 
-nan -nan 0.000000 
-nan -nan 0.000000 
15.107707 -3.053203 0.000000 
VECTORS X_EC float 
-nan -nan 0.000000 
-nan -nan 0.000000 
-nan -nan 0.000000 
-nan -nan 0.000000 
-nan -nan 0.000000 
-0.926535 0.151098 0.000000 
-nan -nan 0.000000 
-nan -nan 0.000000 
-nan -nan 0.000000 
-nan -nan 0.000000 
-nan -nan 0.000000 
-nan -nan 0.000000 
-nan -nan 0.000000 
-nan -nan 0.000000 
-nan -nan 0.000000 
-nan -nan 0.000000 
-nan -nan 0.000000 
-nan -nan 0.000000 
-nan -nan 0.000000 
-nan -nan 0.000000 
-nan -nan 0.000000 
-nan -nan 0.000000 
-nan -nan 0.000000 
-0.226433 -0.252852 0.000000 
-nan -nan 0.000000 
-nan -nan 0.000000 
-0.198587 0.919997 0.000000 
-0.312778 -0.455740 0.000000 
-nan -nan 0.000000 
-nan -nan 0.000000 
-nan -nan 0.000000 
-nan -nan 0.000000 
-nan -nan 0.000000 
-nan -nan 0.000000 
-nan -nan 0.000000 
-nan -nan 0.000000 
-nan -nan 0.000000 
-nan -nan 0.000000 
-nan -nan 0.000000 
-nan -nan 0.000000 
-nan -nan 0.000000 
-nan -nan 0.000000 
-nan -nan 0.000000 
-nan -nan 0.000000 
-nan -nan 0.000000 
-nan -nan 0.000000 
-nan -nan 0.000000 
-nan -nan 0.000000 
-nan -nan 0.000000 
-nan -nan 0.000000 
-nan -nan 0.000000 
-nan -nan 0.000000 
-0.970336 0.430234 0.000000 
-nan -nan 0.000000 
-nan -nan 0.000000 
-nan -nan 0.000000 
-nan -nan 0.000000 
-nan -nan 0.000000 
-nan -nan 0.000000 
-0.072906 0.675935 0.000000 
0.450105 -0.478707 0.000000 
-0.580751 -0.992214 0.000000 
-nan -nan 0.000000 
-nan -nan 0.000000 
-nan -nan 0.000000 
-nan -nan 0.000000 
-nan -nan 0.000000 
-nan -nan 0.000000 
-nan -nan 0.000000 
-nan -nan 0.000000 
-nan -nan 0.000000 
-nan -nan 0.000000 
-nan -nan 0.000000 
-nan -nan 0.000000 
-nan -nan 0.000000 
-nan -nan 0.000000 
-nan -nan 0.000000 
-nan -nan 0.000000 
-nan -nan 0.000000 
-nan -nan 0.000000 
-nan -nan 0.000000 
-nan -nan 0.000000 
-nan -nan 0.000000 
-nan -nan 0.000000 
-nan -nan 0.000000 
-nan -nan 0.000000 
0.929782 0.775887 0.000000 
-nan -nan 0.000000 
-nan -nan 0.000000 
-nan -nan 0.000000 
-nan -nan 0.000000 
-nan -nan 0.000000 
-nan -nan 0.000000 
-nan -nan 0.000000 
-nan -nan 0.000000 
-nan -nan 0.000000 
-nan -nan 0.000000 
-nan -nan 0.000000 
-0.581196 0.791722 0.000000 
-nan -nan 0.000000 
-nan -nan 0.000000 
-nan -nan 0.000000 
0.944285 -0.483814 0.000000 
-nan -nan 0.000000 
0.517288 -0.885028 0.000000 
-nan -nan 0.000000 
-nan -nan 0.000000 
-nan -nan 0.000000 
-nan -nan 0.000000 
-nan -nan 0.000000 
-nan -nan 0.000000 
-nan -nan 0.000000 
0.258108 0.244364 0.000000 
-nan -nan 0.000000 
-nan -nan 0.000000 
-nan -nan 0.000000 
-nan -nan 0.000000 
-nan -nan 0.000000 
-nan -nan 0.000000 
-nan -nan 0.000000 
-nan -nan 0.000000 
-nan -nan 0.000000 
-nan -nan 0.000000 
-nan -nan 0.000000 
-nan -nan 0.000000 
-nan -nan 0.000000 
-nan -nan 0.000000 
-nan -nan 0.000000 
-nan -nan 0.000000 
-nan -nan 0.000000 
-0.416283 0.860424 0.000000 
-nan -nan 0.000000 
-nan -nan 0.000000 
-nan -nan 0.000000 
-nan -nan 0.000000 
-nan -nan 0.000000 
-nan -nan 0.000000 
-nan -nan 0.000000 
-nan -nan 0.000000 
-nan -nan 0.000000 
-nan -nan 0.000000 
-nan -nan 0.000000 
-0.984610 0.458703 0.000000 
-nan -nan 0.000000 
-nan -nan 0.000000 
-nan -nan 0.000000 
-nan -nan 0.000000 
-nan -nan 0.000000 
0.717486 0.318074 0.000000 
-nan -nan 0.000000 
-nan -nan 0.000000 
-nan -nan 0.000000 
-nan -nan 0.000000 
-nan -nan 0.000000 
-nan -nan 0.000000 
-nan -nan 0.000000 
-nan -nan 0.000000 
-nan -nan 0.000000 
-nan -nan 0.000000 
-nan -nan 0.000000 
-nan -nan 0.000000 
-nan -nan 0.000000 
-nan -nan 0.000000 
-nan -nan 0.000000 
-nan -nan 0.000000 
-nan -nan 0.000000 
-0.864361 0.727214 0.000000 
-0.225323 0.776029 0.000000 
-nan -nan 0.000000 
-nan -nan 0.000000 
-nan -nan 0.000000 
-nan -nan 0.000000 
-nan -nan 0.000000 
-nan -nan 0.000000 
-nan -nan 0.000000 
-nan -nan 0.000000 
-nan -nan 0.000000 
-0.733025 -0.900515 0.000000 
-nan -nan 0.000000 
-nan -nan 0.000000 
-nan -nan 0.000000 
-nan -nan 0.000000 
-nan -nan 0.000000 
-0.451651 -0.766611 0.000000 
CELL_DATA 184 
SCALARS MASS float 
LOOKUP_TABLE default 
0.051252 
0.046008 
0.051531 
0.046188 
0.052854 
0.051531 
0.052854 
0.052854 
0.051531 
0.050859 
0.052854 
0.047395 
0.052854 
0.052854 
0.051434 
0.045995 
0.052854 
0.051281 
0.051530 
0.046441 
0.052854 
0.052854 
0.050612 
0.049065 
0.052975 
0.049197 
0.049245 
0.052975 
0.052990 
0.055938 
0.049713 
0.052094 
0.055938 
0.050456 
0.055938 
0.053198 
0.052878 
0.049051 
0.052807 
0.049481 
0.052974 
0.049465 
0.049257 
0.055938 
0.105225 
0.104629 
0.082126 
0.094264 
0.094771 
0.094259 
0.094771 
0.083366 
0.104047 
0.083092 
0.081316 
0.081315 
0.092719 
0.079469 
0.108073 
0.092710 
0.108073 
0.093129 
0.104035 
0.094961 
0.104398 
0.081316 
0.125285 
0.099128 
0.098320 
0.087841 
0.082650 
0.097481 
0.086914 
0.081921 
0.086680 
0.086680 
0.081485 
0.107769 
0.088711 
0.084874 
0.107874 
0.082612 
0.095190 
0.095229 
0.083942 
0.085089 
0.079923 
0.081132 
0.095301 
0.097917 
0.090576 
0.085268 
0.095896 
0.081062 
0.095454 
0.090083 
0.081027 
0.085251 
0.101961 
0.083022 
0.095445 
0.080604 
0.081018 
0.085240 
0.097826 
0.090495 
0.095435 
0.095845 
0.081023 
0.085241 
0.090072 
0.081024 
0.095436 
0.101966 
0.083028 
0.085242 
0.080610 
0.081024 
0.095437 
0.082345 
0.082694 
0.085242 
0.109264 
0.089885 
0.095437 
0.108636 
0.083028 
0.085242 
0.080610 
0.074817 
0.073569 
0.082490 
0.095437 
0.095617 
0.133784 
0.138292 
0.139667 
0.139695 
0.139694 
0.139689 
0.139693 
0.140105 
0.139774 
0.086622 
0.086622 
0.089038 
0.077179 
0.079159 
0.072465 
0.084345 
0.092656 
0.093083 
0.084037 
0.098826 
0.101847 
0.085968 
0.086444 
0.074619 
0.064825 
0.094138 
0.124406 
0.086607 
0.131576 
0.102571 
0.084703 
0.076503 
0.084191 
0.084191 
0.086793 
0.075696 
0.084714 
0.090949 
0.084009 
0.076569 
0.086383 
0.098391 
0.110757 
0.093222 
0.143196 
0.101090 
0.091038 
0.150913 
0.178131 
0.206980 
SCALARS MASS float 
LOOKUP_TABLE default 
0.051252 
0.046008 
0.051531 
0.046188 
0.052854 
0.051531 
0.052854 
0.052854 
0.051531 
0.050859 
0.052854 
0.047395 
0.052854 
0.052854 
0.051434 
0.045995 
0.052854 
0.051281 
0.051530 
0.046441 
0.052854 
0.052854 
0.050612 
0.049065 
0.052975 
0.049197 
0.049245 
0.052975 
0.052990 
0.055938 
0.049713 
0.052094 
0.055938 
0.050456 
0.055938 
0.053198 
0.052878 
0.049051 
0.052807 
0.049481 
0.052974 
0.049465 
0.049257 
0.055938 
0.105225 
0.104629 
0.082126 
0.094264 
0.094771 
0.094259 
0.094771 
0.083366 
0.104047 
0.083092 
0.081316 
0.081315 
0.092719 
0.079469 
0.108073 
0.092710 
0.108073 
0.093129 
0.104035 
0.094961 
0.104398 
0.081316 
0.125285 
0.099128 
0.098320 
0.087841 
0.082650 
0.097481 
0.086914 
0.081921 
0.086680 
0.086680 
0.081485 
0.107769 
0.088711 
0.084874 
0.107874 
0.082612 
0.095190 
0.095229 
0.083942 
0.085089 
0.079923 
0.081132 
0.095301 
0.097917 
0.090576 
0.085268 
0.095896 
0.081062 
0.095454 
0.090083 
0.081027 
0.085251 
0.101961 
0.083022 
0.095445 
0.080604 
0.081018 
0.085240 
0.097826 
0.090495 
0.095435 
0.095845 
0.081023 
0.085241 
0.090072 
0.081024 
0.095436 
0.101966 
0.083028 
0.085242 
0.080610 
0.081024 
0.095437 
0.082345 
0.082694 
0.085242 
0.109264 
0.089885 
0.095437 
0.108636 
0.083028 
0.085242 
0.080610 
0.074817 
0.073569 
0.082490 
0.095437 
0.095617 
0.133784 
0.138292 
0.139667 
0.139695 
0.139694 
0.139689 
0.139693 
0.140105 
0.139774 
0.086622 
0.086622 
0.089038 
0.077179 
0.079159 
0.072465 
0.084345 
0.092656 
0.093083 
0.084037 
0.098826 
0.101847 
0.085968 
0.086444 
0.074619 
0.064825 
0.094138 
0.124406 
0.086607 
0.131576 
0.102571 
0.084703 
0.076503 
0.084191 
0.084191 
0.086793 
0.075696 
0.084714 
0.090949 
0.084009 
0.076569 
0.086383 
0.098391 
0.110757 
0.093222 
0.143196 
0.101090 
0.091038 
0.150913 
0.178131 
0.206980 
SCALARS DENSITY float 
LOOKUP_TABLE default 
-nan 
-nan 
-nan 
-nan 
-nan 
1846476.931024 
-nan 
-nan 
-nan 
-nan 
-nan 
-nan 
-nan 
-nan 
-nan 
-nan 
-nan 
-nan 
-nan 
0.000000 
-nan 
-nan 
-nan 
0.000000 
-nan 
-nan 
0.000000 
283014826.772981 
-nan 
-nan 
-nan 
-nan 
-nan 
-nan 
-nan 
-nan 
-nan 
-nan 
-nan 
-nan 
-nan 
-nan 
-nan 
-nan 
-nan 
-nan 
-nan 
-nan 
-nan 
-nan 
-nan 
-nan 
0.000012 
-nan 
-nan 
-nan 
-nan 
-nan 
-nan 
0.215447 
0.000000 
-0.000000 
-nan 
-nan 
-nan 
-nan 
-nan 
-nan 
-nan 
-nan 
-nan 
-nan 
-nan 
-nan 
-nan 
-nan 
-nan 
-nan 
-nan 
-nan 
-nan 
-nan 
-nan 
-nan 
-nan 
-nan 
0.000000 
-nan 
-nan 
-nan 
-nan 
-nan 
-nan 
-nan 
-nan 
-nan 
-nan 
-nan 
0.000000 
-nan 
-nan 
-nan 
42685628292.275444 
-nan 
0.000000 
-nan 
-nan 
-nan 
-nan 
-nan 
-nan 
-nan 
117865.367045 
-nan 
-nan 
-nan 
-nan 
-nan 
-nan 
-nan 
-nan 
-nan 
-nan 
-nan 
-nan 
-nan 
-nan 
-nan 
-nan 
-nan 
0.000003 
-nan 
-nan 
-nan 
-nan 
-nan 
-nan 
-nan 
-nan 
-nan 
-nan 
-nan 
0.000000 
-nan 
-nan 
-nan 
-nan 
-nan 
-0.000001 
-nan 
-nan 
-nan 
-nan 
-nan 
-nan 
-nan 
0.000000 
-nan 
-nan 
-nan 
-nan 
-nan 
-nan 
-nan 
-nan 
-nan 
-0.028943 
1832047623.310198 
-nan 
-nan 
-nan 
-nan 
-nan 
-nan 
-nan 
-nan 
-nan 
0.000010 
-nan 
-nan 
-nan 
-nan 
-nan 
356.359710 
SCALARS ELEM_i float 
LOOKUP_TABLE default 
1199 
1199 
1199 
1199 
1199 
476 
1199 
1199 
1199 
1199 
1199 
1199 
1199 
1199 
1199 
1199 
1199 
1199 
1199 
1199 
1199 
1199 
1199 
896 
1199 
1199 
1126 
591 
1199 
1199 
1199 
1199 
1199 
1199 
1199 
1199 
1199 
1199 
1199 
1199 
1199 
1199 
1199 
1199 
1199 
1199 
1199 
1199 
1199 
1199 
1199 
1199 
1109 
1199 
1199 
1199 
1199 
1199 
1199 
13 
1096 
397 
1199 
1199 
1199 
1199 
1199 
1199 
1199 
1199 
1199 
1199 
1199 
1199 
1199 
1199 
1199 
1199 
1199 
1199 
1199 
1199 
1199 
1199 
1199 
1199 
788 
1199 
1199 
1199 
1199 
1199 
1199 
1199 
1199 
1199 
1199 
1199 
1085 
1199 
1199 
1199 
123 
1199 
32 
1199 
1199 
1199 
1199 
1199 
1199 
1199 
95 
1199 
1199 
1199 
1199 
1199 
1199 
1199 
1199 
1199 
1199 
1199 
1199 
1199 
1199 
1199 
1199 
1199 
1180 
1199 
1199 
1199 
1199 
1199 
1199 
1199 
1199 
1199 
1199 
1199 
1102 
1199 
1199 
1199 
1199 
1199 
99 
1199 
1199 
1199 
1199 
1199 
1199 
1199 
1199 
1199 
1199 
1199 
1199 
1199 
1199 
1199 
1199 
1199 
1075 
55 
1199 
1199 
1199 
1199 
1199 
1199 
1199 
1199 
1199 
765 
1199 
1199 
1199 
1199 
1199 
87 
VECTORS VELOCITY float 
-nan -nan 0.000000 
-nan -nan 0.000000 
-nan -nan 0.000000 
-nan -nan 0.000000 
-nan -nan 0.000000 
4.798488 278.515057 0.000000 
-nan -nan 0.000000 
-nan -nan 0.000000 
-nan -nan 0.000000 
-nan -nan 0.000000 
-nan -nan 0.000000 
-nan -nan 0.000000 
-nan -nan 0.000000 
-nan -nan 0.000000 
-nan -nan 0.000000 
-nan -nan 0.000000 
-nan -nan 0.000000 
-nan -nan 0.000000 
-nan -nan 0.000000 
-nan -nan 0.000000 
-nan -nan 0.000000 
-nan -nan 0.000000 
-nan -nan 0.000000 
-15.856079 1644.503906 0.000000 
-nan -nan 0.000000 
-nan -nan 0.000000 
-570.470703 1066.793457 0.000000 
-39.363608 435.873735 0.000000 
-nan -nan 0.000000 
-nan -nan 0.000000 
-nan -nan 0.000000 
-nan -nan 0.000000 
-nan -nan 0.000000 
-nan -nan 0.000000 
-nan -nan 0.000000 
-nan -nan 0.000000 
-nan -nan 0.000000 
-nan -nan 0.000000 
-nan -nan 0.000000 
-nan -nan 0.000000 
-nan -nan 0.000000 
-nan -nan 0.000000 
-nan -nan 0.000000 
-nan -nan 0.000000 
-nan -nan 0.000000 
-nan -nan 0.000000 
-nan -nan 0.000000 
-nan -nan 0.000000 
-nan -nan 0.000000 
-nan -nan 0.000000 
-nan -nan 0.000000 
-nan -nan 0.000000 
-123.899829 -175.628769 0.000000 
-nan -nan 0.000000 
-nan -nan 0.000000 
-nan -nan 0.000000 
-nan -nan 0.000000 
-nan -nan 0.000000 
-nan -nan 0.000000 
302.657224 -630.532615 0.000000 
-192.848495 -117.859459 0.000000 
600.000000 706.000000 0.000000 
-nan -nan 0.000000 
-nan -nan 0.000000 
-nan -nan 0.000000 
-nan -nan 0.000000 
-nan -nan 0.000000 
-nan -nan 0.000000 
-nan -nan 0.000000 
-nan -nan 0.000000 
-nan -nan 0.000000 
-nan -nan 0.000000 
-nan -nan 0.000000 
-nan -nan 0.000000 
-nan -nan 0.000000 
-nan -nan 0.000000 
-nan -nan 0.000000 
-nan -nan 0.000000 
-nan -nan 0.000000 
-nan -nan 0.000000 
-nan -nan 0.000000 
-nan -nan 0.000000 
-nan -nan 0.000000 
-nan -nan 0.000000 
-nan -nan 0.000000 
-nan -nan 0.000000 
0.000000 0.000000 0.000000 
-nan -nan 0.000000 
-nan -nan 0.000000 
-nan -nan 0.000000 
-nan -nan 0.000000 
-nan -nan 0.000000 
-nan -nan 0.000000 
-nan -nan 0.000000 
-nan -nan 0.000000 
-nan -nan 0.000000 
-nan -nan 0.000000 
-nan -nan 0.000000 
-133.707390 -328.937429 0.000000 
-nan -nan 0.000000 
-nan -nan 0.000000 
-nan -nan 0.000000 
34.758123 -251.512050 0.000000 
-nan -nan 0.000000 
49.250000 446.875000 0.000000 
-nan -nan 0.000000 
-nan -nan 0.000000 
-nan -nan 0.000000 
-nan -nan 0.000000 
-nan -nan 0.000000 
-nan -nan 0.000000 
-nan -nan 0.000000 
302.928163 446.089103 0.000000 
-nan -nan 0.000000 
-nan -nan 0.000000 
-nan -nan 0.000000 
-nan -nan 0.000000 
-nan -nan 0.000000 
-nan -nan 0.000000 
-nan -nan 0.000000 
-nan -nan 0.000000 
-nan -nan 0.000000 
-nan -nan 0.000000 
-nan -nan 0.000000 
-nan -nan 0.000000 
-nan -nan 0.000000 
-nan -nan 0.000000 
-nan -nan 0.000000 
-nan -nan 0.000000 
-nan -nan 0.000000 
-263.635623 195.334217 0.000000 
-nan -nan 0.000000 
-nan -nan 0.000000 
-nan -nan 0.000000 
-nan -nan 0.000000 
-nan -nan 0.000000 
-nan -nan 0.000000 
-nan -nan 0.000000 
-nan -nan 0.000000 
-nan -nan 0.000000 
-nan -nan 0.000000 
-nan -nan 0.000000 
-285.731270 -185.088642 0.000000 
-nan -nan 0.000000 
-nan -nan 0.000000 
-nan -nan 0.000000 
-nan -nan 0.000000 
-nan -nan 0.000000 
263.969225 370.554381 0.000000 
-nan -nan 0.000000 
-nan -nan 0.000000 
-nan -nan 0.000000 
-nan -nan 0.000000 
-nan -nan 0.000000 
-nan -nan 0.000000 
-nan -nan 0.000000 
-nan -nan 0.000000 
-nan -nan 0.000000 
-nan -nan 0.000000 
-nan -nan 0.000000 
-nan -nan 0.000000 
-nan -nan 0.000000 
-nan -nan 0.000000 
-nan -nan 0.000000 
-nan -nan 0.000000 
-nan -nan 0.000000 
-346.233514 1332.708598 0.000000 
198.201180 625.261270 0.000000 
-nan -nan 0.000000 
-nan -nan 0.000000 
-nan -nan 0.000000 
-nan -nan 0.000000 
-nan -nan 0.000000 
-nan -nan 0.000000 
-nan -nan 0.000000 
-nan -nan 0.000000 
-nan -nan 0.000000 
-138.192107 734.723628 0.000000 
-nan -nan 0.000000 
-nan -nan 0.000000 
-nan -nan 0.000000 
-nan -nan 0.000000 
-nan -nan 0.000000 
323.525564 -64.786313 0.000000 
TENSORS STRESS float 
-nan -nan 0.000000 
0.000000 -nan 0.000000 
0.000000 0.000000 0.000000 

-nan -nan 0.000000 
0.000000 -nan 0.000000 
0.000000 0.000000 0.000000 

-nan -nan 0.000000 
0.000000 -nan 0.000000 
0.000000 0.000000 0.000000 

-nan -nan 0.000000 
0.000000 -nan 0.000000 
0.000000 0.000000 0.000000 

-nan -nan 0.000000 
0.000000 -nan 0.000000 
0.000000 0.000000 0.000000 

-0.000864 -0.000258 0.000000 
0.000000 -0.001368 0.000000 
0.000000 0.000000 0.000000 

-nan -nan 0.000000 
0.000000 -nan 0.000000 
0.000000 0.000000 0.000000 

-nan -nan 0.000000 
0.000000 -nan 0.000000 
0.000000 0.000000 0.000000 

-nan -nan 0.000000 
0.000000 -nan 0.000000 
0.000000 0.000000 0.000000 

-nan -nan 0.000000 
0.000000 -nan 0.000000 
0.000000 0.000000 0.000000 

-nan -nan 0.000000 
0.000000 -nan 0.000000 
0.000000 0.000000 0.000000 

-nan -nan 0.000000 
0.000000 -nan 0.000000 
0.000000 0.000000 0.000000 

-nan -nan 0.000000 
0.000000 -nan 0.000000 
0.000000 0.000000 0.000000 

-nan -nan 0.000000 
0.000000 -nan 0.000000 
0.000000 0.000000 0.000000 

-nan -nan 0.000000 
0.000000 -nan 0.000000 
0.000000 0.000000 0.000000 

-nan -nan 0.000000 
0.000000 -nan 0.000000 
0.000000 0.000000 0.000000 

-nan -nan 0.000000 
0.000000 -nan 0.000000 
0.000000 0.000000 0.000000 

-nan -nan 0.000000 
0.000000 -nan 0.000000 
0.000000 0.000000 0.000000 

-nan -nan 0.000000 
0.000000 -nan 0.000000 
0.000000 0.000000 0.000000 

-inf -inf 0.000000 
0.000000 -inf 0.000000 
0.000000 0.000000 0.000000 

-nan -nan 0.000000 
0.000000 -nan 0.000000 
0.000000 0.000000 0.000000 

-nan -nan 0.000000 
0.000000 -nan 0.000000 
0.000000 0.000000 0.000000 

-nan -nan 0.000000 
0.000000 -nan 0.000000 
0.000000 0.000000 0.000000 

4832983376921.826172 -1034670243658.216064 0.000000 
0.000000 18452741977333.269531 0.000000 
0.000000 0.000000 0.000000 

-nan -nan 0.000000 
0.000000 -nan 0.000000 
0.000000 0.000000 0.000000 

-nan -nan 0.000000 
0.000000 -nan 0.000000 
0.000000 0.000000 0.000000 

2308171517141.273438 -3946595392141.476074 0.000000 
0.000000 8861644047133.498047 0.000000 
0.000000 0.000000 0.000000 

-0.000007 -0.000000 0.000000 
0.000000 -0.000012 0.000000 
0.000000 0.000000 0.000000 

-nan -nan 0.000000 
0.000000 -nan 0.000000 
0.000000 0.000000 0.000000 

-nan -nan 0.000000 
0.000000 -nan 0.000000 
0.000000 0.000000 0.000000 

-nan -nan 0.000000 
0.000000 -nan 0.000000 
0.000000 0.000000 0.000000 

-nan -nan 0.000000 
0.000000 -nan 0.000000 
0.000000 0.000000 0.000000 

-nan -nan 0.000000 
0.000000 -nan 0.000000 
0.000000 0.000000 0.000000 

-nan -nan 0.000000 
0.000000 -nan 0.000000 
0.000000 0.000000 0.000000 

-nan -nan 0.000000 
0.000000 -nan 0.000000 
0.000000 0.000000 0.000000 

-nan -nan 0.000000 
0.000000 -nan 0.000000 
0.000000 0.000000 0.000000 

-nan -nan 0.000000 
0.000000 -nan 0.000000 
0.000000 0.000000 0.000000 

-nan -nan 0.000000 
0.000000 -nan 0.000000 
0.000000 0.000000 0.000000 

-nan -nan 0.000000 
0.000000 -nan 0.000000 
0.000000 0.000000 0.000000 

-nan -nan 0.000000 
0.000000 -nan 0.000000 
0.000000 0.000000 0.000000 

-nan -nan 0.000000 
0.000000 -nan 0.000000 
0.000000 0.000000 0.000000 

-nan -nan 0.000000 
0.000000 -nan 0.000000 
0.000000 0.000000 0.000000 

-nan -nan 0.000000 
0.000000 -nan 0.000000 
0.000000 0.000000 0.000000 

-nan -nan 0.000000 
0.000000 -nan 0.000000 
0.000000 0.000000 0.000000 

-nan -nan 0.000000 
0.000000 -nan 0.000000 
0.000000 0.000000 0.000000 

-nan -nan 0.000000 
0.000000 -nan 0.000000 
0.000000 0.000000 0.000000 

-nan -nan 0.000000 
0.000000 -nan 0.000000 
0.000000 0.000000 0.000000 

-nan -nan 0.000000 
0.000000 -nan 0.000000 
0.000000 0.000000 0.000000 

-nan -nan 0.000000 
0.000000 -nan 0.000000 
0.000000 0.000000 0.000000 

-nan -nan 0.000000 
0.000000 -nan 0.000000 
0.000000 0.000000 0.000000 

-nan -nan 0.000000 
0.000000 -nan 0.000000 
0.000000 0.000000 0.000000 

-nan -nan 0.000000 
0.000000 -nan 0.000000 
0.000000 0.000000 0.000000 

601172095.149543 -560156840.103049 0.000000 
0.000000 1314605761.459225 0.000000 
0.000000 0.000000 0.000000 

-nan -nan 0.000000 
0.000000 -nan 0.000000 
0.000000 0.000000 0.000000 

-nan -nan 0.000000 
0.000000 -nan 0.000000 
0.000000 0.000000 0.000000 

-nan -nan 0.000000 
0.000000 -nan 0.000000 
0.000000 0.000000 0.000000 

-nan -nan 0.000000 
0.000000 -nan 0.000000 
0.000000 0.000000 0.000000 

-nan -nan 0.000000 
0.000000 -nan 0.000000 
0.000000 0.000000 0.000000 

-nan -nan 0.000000 
0.000000 -nan 0.000000 
0.000000 0.000000 0.000000 

35000.671433 -15383.307978 0.000000 
0.000000 -20257.189364 0.000000 
0.000000 0.000000 0.000000 

1433795906070.540527 -37355038939.750313 0.000000 
0.000000 1278926282947.603027 0.000000 
0.000000 0.000000 0.000000 

-9351702075423118.000000 -61297561524981200.000000 0.000000 
0.000000 -47849524846769000.000000 0.000000 
0.000000 0.000000 0.000000 

-nan -nan 0.000000 
0.000000 -nan 0.000000 
0.000000 0.000000 0.000000 

-nan -nan 0.000000 
0.000000 -nan 0.000000 
0.000000 0.000000 0.000000 

-nan -nan 0.000000 
0.000000 -nan 0.000000 
0.000000 0.000000 0.000000 

-nan -nan 0.000000 
0.000000 -nan 0.000000 
0.000000 0.000000 0.000000 

-nan -nan 0.000000 
0.000000 -nan 0.000000 
0.000000 0.000000 0.000000 

-nan -nan 0.000000 
0.000000 -nan 0.000000 
0.000000 0.000000 0.000000 

-nan -nan 0.000000 
0.000000 -nan 0.000000 
0.000000 0.000000 0.000000 

-nan -nan 0.000000 
0.000000 -nan 0.000000 
0.000000 0.000000 0.000000 

-nan -nan 0.000000 
0.000000 -nan 0.000000 
0.000000 0.000000 0.000000 

-nan -nan 0.000000 
0.000000 -nan 0.000000 
0.000000 0.000000 0.000000 

-nan -nan 0.000000 
0.000000 -nan 0.000000 
0.000000 0.000000 0.000000 

-nan -nan 0.000000 
0.000000 -nan 0.000000 
0.000000 0.000000 0.000000 

-nan -nan 0.000000 
0.000000 -nan 0.000000 
0.000000 0.000000 0.000000 

-nan -nan 0.000000 
0.000000 -nan 0.000000 
0.000000 0.000000 0.000000 

-nan -nan 0.000000 
0.000000 -nan 0.000000 
0.000000 0.000000 0.000000 

-nan -nan 0.000000 
0.000000 -nan 0.000000 
0.000000 0.000000 0.000000 

-nan -nan 0.000000 
0.000000 -nan 0.000000 
0.000000 0.000000 0.000000 

-nan -nan 0.000000 
0.000000 -nan 0.000000 
0.000000 0.000000 0.000000 

-nan -nan 0.000000 
0.000000 -nan 0.000000 
0.000000 0.000000 0.000000 

-nan -nan 0.000000 
0.000000 -nan 0.000000 
0.000000 0.000000 0.000000 
