# vtk DataFile Version 3.0 
vtk output 
ASCII 
DATASET UNSTRUCTURED_GRID 
POINTS 184 float 
-0.031429 -2.041073 0.000000 
-0.358804 -2.907980 0.000000 
0.474129 -2.538038 0.000000 
-0.447508 -2.350570 0.000000 
0.181061 -3.094686 0.000000 
0.220557 -2.093555 0.000000 
-0.283832 -2.135231 0.000000 
-0.112129 -3.133991 0.000000 
0.417743 -2.290383 0.000000 
-0.462700 -2.614993 0.000000 
0.390665 -2.825938 0.000000 
-0.167897 -2.066296 0.000000 
-0.234901 -3.034729 0.000000 
0.466128 -2.410048 0.000000 
-0.472780 -2.484892 0.000000 
0.291127 -2.963512 0.000000 
0.098174 -2.051355 0.000000 
-0.378073 -2.228178 0.000000 
0.051123 -3.157596 0.000000 
0.335651 -2.175005 0.000000 
-0.423798 -2.737586 0.000000 
0.445890 -2.671178 0.000000 
-0.123490 -2.053053 0.000000 
-0.312147 -2.952772 0.000000 
0.474341 -2.491174 0.000000 
-0.460395 -2.395818 0.000000 
0.254007 -3.017061 0.000000 
0.176210 -2.074828 0.000000 
-0.346999 -2.191518 0.000000 
-0.059187 -3.143319 0.000000 
0.366196 -2.211578 0.000000 
-0.450588 -2.657702 0.000000 
0.427684 -2.719565 0.000000 
-0.209079 -2.087095 0.000000 
-0.159224 -3.104573 0.000000 
0.438475 -2.333162 0.000000 
-0.472294 -2.531015 0.000000 
0.335515 -2.933393 0.000000 
0.016244 -2.041777 0.000000 
-0.428181 -2.307416 0.000000 
0.102521 -3.144013 0.000000 
0.300040 -2.143533 0.000000 
-0.387944 -2.846425 0.000000 
0.458536 -2.627638 0.000000 
-0.081076 -2.070674 0.000000 
0.367413 -2.257543 0.000000 
0.046445 -2.067903 0.000000 
0.211844 -2.981207 0.000000 
-0.170863 -3.004932 0.000000 
-0.376250 -2.775922 0.000000 
0.390204 -2.734187 0.000000 
-0.304960 -2.187200 0.000000 
-0.387570 -2.287564 0.000000 
0.425811 -2.372544 0.000000 
0.137433 -2.087296 0.000000 
0.121100 -3.035698 0.000000 
-0.262567 -2.924725 0.000000 
-0.416049 -2.675436 0.000000 
0.440581 -2.585931 0.000000 
0.334158 -2.846102 0.000000 
-0.010886 -3.028961 0.000000 
-0.225502 -2.125665 0.000000 
-0.443829 -2.435366 0.000000 
-0.444536 -2.565252 0.000000 
0.253936 -2.142375 0.000000 
0.446717 -2.461540 0.000000 
-0.080132 -2.126800 0.000000 
-0.130752 -2.171199 0.000000 
-0.191735 -2.166815 0.000000 
-0.111771 -2.230826 0.000000 
-0.223613 -2.222515 0.000000 
-0.170910 -2.259632 0.000000 
-0.055570 -2.244901 0.000000 
-0.278386 -2.233448 0.000000 
-0.039748 -2.301069 0.000000 
-0.015540 -2.202975 0.000000 
-0.296170 -2.293055 0.000000 
-0.349385 -2.323460 0.000000 
-0.351197 -2.389352 0.000000 
-0.254552 -2.331926 0.000000 
-0.391720 -2.436902 0.000000 
-0.370535 -2.495257 0.000000 
-0.284805 -2.389572 0.000000 
-0.395325 -2.551108 0.000000 
-0.361717 -2.593505 0.000000 
-0.314402 -2.494970 0.000000 
-0.371939 -2.647471 0.000000 
-0.327057 -2.675721 0.000000 
-0.309664 -2.554224 0.000000 
-0.322423 -2.739885 0.000000 
-0.264578 -2.766112 0.000000 
-0.276389 -2.651197 0.000000 
-0.239839 -2.838618 0.000000 
-0.175803 -2.841408 0.000000 
-0.237470 -2.698358 0.000000 
-0.137029 -2.904867 0.000000 
-0.074964 -2.880037 0.000000 
-0.148204 -2.778253 0.000000 
-0.018690 -2.918632 0.000000 
0.037260 -2.883142 0.000000 
-0.085904 -2.802200 0.000000 
0.094668 -2.920377 0.000000 
0.134301 -2.864159 0.000000 
0.027604 -2.814669 0.000000 
0.195762 -2.877365 0.000000 
0.228619 -2.804576 0.000000 
0.091142 -2.800969 0.000000 
0.286232 -2.784939 0.000000 
0.301477 -2.712670 0.000000 
0.193462 -2.745108 0.000000 
0.350979 -2.685436 0.000000 
0.349154 -2.629124 0.000000 
0.239358 -2.694963 0.000000 
0.388753 -2.584441 0.000000 
0.370507 -2.528931 0.000000 
0.296531 -2.608483 0.000000 
0.395663 -2.477528 0.000000 
0.361105 -2.433213 0.000000 
0.308938 -2.551227 0.000000 
0.372724 -2.379332 0.000000 
0.324931 -2.339994 0.000000 
0.304354 -2.446663 0.000000 
0.318799 -2.278380 0.000000 
0.259792 -2.249294 0.000000 
0.280964 -2.386320 0.000000 
0.231888 -2.190813 0.000000 
0.169245 -2.184831 0.000000 
0.218038 -2.291414 0.000000 
0.131175 -2.138255 0.000000 
0.076496 -2.148466 0.000000 
0.032028 -2.113721 0.000000 
-0.021226 -2.144270 0.000000 
0.165622 -2.252593 0.000000 
0.046912 -2.203099 0.000000 
-0.184155 -2.309327 0.000000 
-0.267829 -2.438381 0.000000 
-0.039459 -2.774947 0.000000 
0.235939 -2.649117 0.000000 
0.278563 -2.513031 0.000000 
0.117238 -2.750495 0.000000 
0.233356 -2.366676 0.000000 
-0.269022 -2.583979 0.000000 
-0.185013 -2.704419 0.000000 
-0.079976 -2.343224 0.000000 
0.016259 -2.315686 0.000000 
-0.141306 -2.346143 0.000000 
-0.169941 -2.404346 0.000000 
-0.215266 -2.442590 0.000000 
-0.205722 -2.502946 0.000000 
-0.128752 -2.440759 0.000000 
-0.219914 -2.559045 0.000000 
-0.148125 -2.495617 0.000000 
-0.175740 -2.602317 0.000000 
-0.075748 -2.407218 0.000000 
-0.157251 -2.657511 0.000000 
-0.126562 -2.575953 0.000000 
-0.075187 -2.601359 0.000000 
-0.113038 -2.524974 0.000000 
-0.051622 -2.509254 0.000000 
-0.031533 -2.560804 0.000000 
-0.033670 -2.446639 0.000000 
0.032139 -2.372815 0.000000 
0.062680 -2.259451 0.000000 
-0.090039 -2.657039 0.000000 
0.010221 -2.430954 0.000000 
0.052282 -2.478941 0.000000 
0.054253 -2.532661 0.000000 
0.098586 -2.450889 0.000000 
0.011921 -2.574372 0.000000 
0.028869 -2.629481 0.000000 
0.018314 -2.680966 0.000000 
0.078895 -2.706043 0.000000 
0.084139 -2.628815 0.000000 
0.119053 -2.664747 0.000000 
0.180530 -2.638271 0.000000 
0.099447 -2.573619 0.000000 
0.165678 -2.461160 0.000000 
0.088475 -2.393270 0.000000 
0.162295 -2.575393 0.000000 
0.190706 -2.404639 0.000000 
0.131963 -2.361129 0.000000 
0.122022 -2.284090 0.000000 
-0.041432 -2.696496 0.000000 
0.198088 -2.519624 0.000000 
CELLS 184 368 
1 0 
1 1 
1 2 
1 3 
1 4 
1 5 
1 6 
1 7 
1 8 
1 9 
1 10 
1 11 
1 12 
1 13 
1 14 
1 15 
1 16 
1 17 
1 18 
1 19 
1 20 
1 21 
1 22 
1 23 
1 24 
1 25 
1 26 
1 27 
1 28 
1 29 
1 30 
1 31 
1 32 
1 33 
1 34 
1 35 
1 36 
1 37 
1 38 
1 39 
1 40 
1 41 
1 42 
1 43 
1 44 
1 45 
1 46 
1 47 
1 48 
1 49 
1 50 
1 51 
1 52 
1 53 
1 54 
1 55 
1 56 
1 57 
1 58 
1 59 
1 60 
1 61 
1 62 
1 63 
1 64 
1 65 
1 66 
1 67 
1 68 
1 69 
1 70 
1 71 
1 72 
1 73 
1 74 
1 75 
1 76 
1 77 
1 78 
1 79 
1 80 
1 81 
1 82 
1 83 
1 84 
1 85 
1 86 
1 87 
1 88 
1 89 
1 90 
1 91 
1 92 
1 93 
1 94 
1 95 
1 96 
1 97 
1 98 
1 99 
1 100 
1 101 
1 102 
1 103 
1 104 
1 105 
1 106 
1 107 
1 108 
1 109 
1 110 
1 111 
1 112 
1 113 
1 114 
1 115 
1 116 
1 117 
1 118 
1 119 
1 120 
1 121 
1 122 
1 123 
1 124 
1 125 
1 126 
1 127 
1 128 
1 129 
1 130 
1 131 
1 132 
1 133 
1 134 
1 135 
1 136 
1 137 
1 138 
1 139 
1 140 
1 141 
1 142 
1 143 
1 144 
1 145 
1 146 
1 147 
1 148 
1 149 
1 150 
1 151 
1 152 
1 153 
1 154 
1 155 
1 156 
1 157 
1 158 
1 159 
1 160 
1 161 
1 162 
1 163 
1 164 
1 165 
1 166 
1 167 
1 168 
1 169 
1 170 
1 171 
1 172 
1 173 
1 174 
1 175 
1 176 
1 177 
1 178 
1 179 
1 180 
1 181 
1 182 
1 183 
CELL_TYPES 184 
1 
1 
1 
1 
1 
1 
1 
1 
1 
1 
1 
1 
1 
1 
1 
1 
1 
1 
1 
1 
1 
1 
1 
1 
1 
1 
1 
1 
1 
1 
1 
1 
1 
1 
1 
1 
1 
1 
1 
1 
1 
1 
1 
1 
1 
1 
1 
1 
1 
1 
1 
1 
1 
1 
1 
1 
1 
1 
1 
1 
1 
1 
1 
1 
1 
1 
1 
1 
1 
1 
1 
1 
1 
1 
1 
1 
1 
1 
1 
1 
1 
1 
1 
1 
1 
1 
1 
1 
1 
1 
1 
1 
1 
1 
1 
1 
1 
1 
1 
1 
1 
1 
1 
1 
1 
1 
1 
1 
1 
1 
1 
1 
1 
1 
1 
1 
1 
1 
1 
1 
1 
1 
1 
1 
1 
1 
1 
1 
1 
1 
1 
1 
1 
1 
1 
1 
1 
1 
1 
1 
1 
1 
1 
1 
1 
1 
1 
1 
1 
1 
1 
1 
1 
1 
1 
1 
1 
1 
1 
1 
1 
1 
1 
1 
1 
1 
1 
1 
1 
1 
1 
1 
1 
1 
1 
1 
1 
1 
1 
1 
1 
1 
1 
1 
POINT_DATA 184 
VECTORS X_GC float 
-0.031429 -2.041073 0.000000 
-0.358804 -2.907980 0.000000 
0.474129 -2.538038 0.000000 
-0.447508 -2.350570 0.000000 
0.181061 -3.094686 0.000000 
0.220557 -2.093555 0.000000 
-0.283832 -2.135231 0.000000 
-0.112129 -3.133991 0.000000 
0.417743 -2.290383 0.000000 
-0.462700 -2.614993 0.000000 
0.390665 -2.825938 0.000000 
-0.167897 -2.066296 0.000000 
-0.234901 -3.034729 0.000000 
0.466128 -2.410048 0.000000 
-0.472780 -2.484892 0.000000 
0.291127 -2.963512 0.000000 
0.098174 -2.051355 0.000000 
-0.378073 -2.228178 0.000000 
0.051123 -3.157596 0.000000 
0.335651 -2.175005 0.000000 
-0.423798 -2.737586 0.000000 
0.445890 -2.671178 0.000000 
-0.123490 -2.053053 0.000000 
-0.312147 -2.952772 0.000000 
0.474341 -2.491174 0.000000 
-0.460395 -2.395818 0.000000 
0.254007 -3.017061 0.000000 
0.176210 -2.074828 0.000000 
-0.346999 -2.191518 0.000000 
-0.059187 -3.143319 0.000000 
0.366196 -2.211578 0.000000 
-0.450588 -2.657702 0.000000 
0.427684 -2.719565 0.000000 
-0.209079 -2.087095 0.000000 
-0.159224 -3.104573 0.000000 
0.438475 -2.333162 0.000000 
-0.472294 -2.531015 0.000000 
0.335515 -2.933393 0.000000 
0.016244 -2.041777 0.000000 
-0.428181 -2.307416 0.000000 
0.102521 -3.144013 0.000000 
0.300040 -2.143533 0.000000 
-0.387944 -2.846425 0.000000 
0.458536 -2.627638 0.000000 
-0.081076 -2.070674 0.000000 
0.367413 -2.257543 0.000000 
0.046445 -2.067903 0.000000 
0.211844 -2.981207 0.000000 
-0.170863 -3.004932 0.000000 
-0.376250 -2.775922 0.000000 
0.390204 -2.734187 0.000000 
-0.304960 -2.187200 0.000000 
-0.387570 -2.287564 0.000000 
0.425811 -2.372544 0.000000 
0.137433 -2.087296 0.000000 
0.121100 -3.035698 0.000000 
-0.262567 -2.924725 0.000000 
-0.416049 -2.675436 0.000000 
0.440581 -2.585931 0.000000 
0.334158 -2.846102 0.000000 
-0.010886 -3.028961 0.000000 
-0.225502 -2.125665 0.000000 
-0.443829 -2.435366 0.000000 
-0.444536 -2.565252 0.000000 
0.253936 -2.142375 0.000000 
0.446717 -2.461540 0.000000 
-0.080132 -2.126800 0.000000 
-0.130752 -2.171199 0.000000 
-0.191735 -2.166815 0.000000 
-0.111771 -2.230826 0.000000 
-0.223613 -2.222515 0.000000 
-0.170910 -2.259632 0.000000 
-0.055570 -2.244901 0.000000 
-0.278386 -2.233448 0.000000 
-0.039748 -2.301069 0.000000 
-0.015540 -2.202975 0.000000 
-0.296170 -2.293055 0.000000 
-0.349385 -2.323460 0.000000 
-0.351197 -2.389352 0.000000 
-0.254552 -2.331926 0.000000 
-0.391720 -2.436902 0.000000 
-0.370535 -2.495257 0.000000 
-0.284805 -2.389572 0.000000 
-0.395325 -2.551108 0.000000 
-0.361717 -2.593505 0.000000 
-0.314402 -2.494970 0.000000 
-0.371939 -2.647471 0.000000 
-0.327057 -2.675721 0.000000 
-0.309664 -2.554224 0.000000 
-0.322423 -2.739885 0.000000 
-0.264578 -2.766112 0.000000 
-0.276389 -2.651197 0.000000 
-0.239839 -2.838618 0.000000 
-0.175803 -2.841408 0.000000 
-0.237470 -2.698358 0.000000 
-0.137029 -2.904867 0.000000 
-0.074964 -2.880037 0.000000 
-0.148204 -2.778253 0.000000 
-0.018690 -2.918632 0.000000 
0.037260 -2.883142 0.000000 
-0.085904 -2.802200 0.000000 
0.094668 -2.920377 0.000000 
0.134301 -2.864159 0.000000 
0.027604 -2.814669 0.000000 
0.195762 -2.877365 0.000000 
0.228619 -2.804576 0.000000 
0.091142 -2.800969 0.000000 
0.286232 -2.784939 0.000000 
0.301477 -2.712670 0.000000 
0.193462 -2.745108 0.000000 
0.350979 -2.685436 0.000000 
0.349154 -2.629124 0.000000 
0.239358 -2.694963 0.000000 
0.388753 -2.584441 0.000000 
0.370507 -2.528931 0.000000 
0.296531 -2.608483 0.000000 
0.395663 -2.477528 0.000000 
0.361105 -2.433213 0.000000 
0.308938 -2.551227 0.000000 
0.372724 -2.379332 0.000000 
0.324931 -2.339994 0.000000 
0.304354 -2.446663 0.000000 
0.318799 -2.278380 0.000000 
0.259792 -2.249294 0.000000 
0.280964 -2.386320 0.000000 
0.231888 -2.190813 0.000000 
0.169245 -2.184831 0.000000 
0.218038 -2.291414 0.000000 
0.131175 -2.138255 0.000000 
0.076496 -2.148466 0.000000 
0.032028 -2.113721 0.000000 
-0.021226 -2.144270 0.000000 
0.165622 -2.252593 0.000000 
0.046912 -2.203099 0.000000 
-0.184155 -2.309327 0.000000 
-0.267829 -2.438381 0.000000 
-0.039459 -2.774947 0.000000 
0.235939 -2.649117 0.000000 
0.278563 -2.513031 0.000000 
0.117238 -2.750495 0.000000 
0.233356 -2.366676 0.000000 
-0.269022 -2.583979 0.000000 
-0.185013 -2.704419 0.000000 
-0.079976 -2.343224 0.000000 
0.016259 -2.315686 0.000000 
-0.141306 -2.346143 0.000000 
-0.169941 -2.404346 0.000000 
-0.215266 -2.442590 0.000000 
-0.205722 -2.502946 0.000000 
-0.128752 -2.440759 0.000000 
-0.219914 -2.559045 0.000000 
-0.148125 -2.495617 0.000000 
-0.175740 -2.602317 0.000000 
-0.075748 -2.407218 0.000000 
-0.157251 -2.657511 0.000000 
-0.126562 -2.575953 0.000000 
-0.075187 -2.601359 0.000000 
-0.113038 -2.524974 0.000000 
-0.051622 -2.509254 0.000000 
-0.031533 -2.560804 0.000000 
-0.033670 -2.446639 0.000000 
0.032139 -2.372815 0.000000 
0.062680 -2.259451 0.000000 
-0.090039 -2.657039 0.000000 
0.010221 -2.430954 0.000000 
0.052282 -2.478941 0.000000 
0.054253 -2.532661 0.000000 
0.098586 -2.450889 0.000000 
0.011921 -2.574372 0.000000 
0.028869 -2.629481 0.000000 
0.018314 -2.680966 0.000000 
0.078895 -2.706043 0.000000 
0.084139 -2.628815 0.000000 
0.119053 -2.664747 0.000000 
0.180530 -2.638271 0.000000 
0.099447 -2.573619 0.000000 
0.165678 -2.461160 0.000000 
0.088475 -2.393270 0.000000 
0.162295 -2.575393 0.000000 
0.190706 -2.404639 0.000000 
0.131963 -2.361129 0.000000 
0.122022 -2.284090 0.000000 
-0.041432 -2.696496 0.000000 
0.198088 -2.519624 0.000000 
VECTORS X_EC float 
-0.790475 0.607154 0.000000 
-0.607973 0.386530 0.000000 
-0.160863 -0.079749 0.000000 
-0.016610 0.670468 0.000000 
-0.248183 0.946404 0.000000 
-0.470382 0.957031 0.000000 
0.892216 -0.765125 0.000000 
-0.208874 0.964511 0.000000 
0.215050 0.269223 0.000000 
0.084666 0.433290 0.000000 
0.395566 -0.160414 0.000000 
0.119312 0.775307 0.000000 
0.626334 0.986501 0.000000 
-0.107521 -0.933015 0.000000 
0.151865 -0.434056 0.000000 
-0.940849 0.756746 0.000000 
0.345510 0.675699 0.000000 
-0.479516 -0.145482 0.000000 
0.674495 0.937567 0.000000 
0.762325 -0.499967 0.000000 
-0.174681 -0.749424 0.000000 
0.027403 0.807851 0.000000 
-0.176733 0.687022 0.000000 
-0.919017 0.685148 0.000000 
-0.162275 -0.392171 0.000000 
0.069299 0.972121 0.000000 
-0.678778 0.992812 0.000000 
-0.174731 0.832186 0.000000 
-0.686673 -0.389879 0.000000 
-0.572427 0.921027 0.000000 
0.558691 -0.256149 0.000000 
0.003917 0.718012 0.000000 
0.148773 -0.869565 0.000000 
0.393857 0.913967 0.000000 
0.119212 0.951185 0.000000 
0.076835 0.554410 0.000000 
0.148628 -0.126563 0.000000 
0.763232 0.555956 0.000000 
0.891704 0.611846 0.000000 
-0.145458 0.382773 0.000000 
0.304228 0.957028 0.000000 
0.999734 -0.709779 0.000000 
-0.413706 -0.023834 0.000000 
-0.056907 0.517587 0.000000 
-0.459495 0.804492 0.000000 
0.550582 0.050290 0.000000 
0.690365 0.786018 0.000000 
-0.412290 0.874714 0.000000 
0.144528 0.997078 0.000000 
-0.491664 -0.493854 0.000000 
0.398637 -0.772086 0.000000 
-0.966931 -0.418666 0.000000 
-0.416199 0.250429 0.000000 
0.161258 0.816961 0.000000 
0.083783 0.915309 0.000000 
0.184510 0.990440 0.000000 
0.750446 0.498167 0.000000 
-0.226342 0.836237 0.000000 
0.062791 0.239540 0.000000 
0.772281 -0.025985 0.000000 
-0.895255 0.999530 0.000000 
0.503350 -0.828898 0.000000 
-0.041142 -0.764225 0.000000 
-0.036426 0.101681 0.000000 
-0.692908 -0.717503 0.000000 
0.021884 -0.589736 0.000000 
-0.465785 -0.821335 0.000000 
-0.128323 -0.525338 0.000000 
0.278233 -0.554570 0.000000 
-0.254858 -0.127828 0.000000 
0.490755 -0.183232 0.000000 
0.139398 0.064216 0.000000 
-0.629532 -0.033995 0.000000 
0.855907 -0.110349 0.000000 
-0.735015 0.340458 0.000000 
-0.896398 -0.313502 0.000000 
0.974464 0.287033 0.000000 
-0.670765 0.489732 0.000000 
-0.658684 0.929013 0.000000 
0.697013 0.546175 0.000000 
-0.388530 -0.753984 0.000000 
-0.529769 -0.364954 0.000000 
0.898698 0.930479 0.000000 
-0.364498 0.007386 0.000000 
-0.588555 0.290035 0.000000 
-0.903987 -0.366867 0.000000 
-0.520409 0.649805 0.000000 
-0.819622 0.838142 0.000000 
-0.935575 0.028160 0.000000 
-0.850516 -0.734098 0.000000 
0.763852 -0.559253 0.000000 
0.842595 0.674645 0.000000 
0.598927 -0.075881 0.000000 
0.172021 -0.057283 0.000000 
0.583133 0.989054 0.000000 
-0.086470 0.365780 0.000000 
-0.500241 0.200245 0.000000 
-0.011975 -0.478311 0.000000 
-0.875400 0.457550 0.000000 
0.751603 0.220950 0.000000 
-0.427306 -0.318665 0.000000 
0.368877 0.469179 0.000000 
0.104663 0.094394 0.000000 
0.815971 -0.235538 0.000000 
-0.305079 0.182435 0.000000 
-0.524125 -0.302826 0.000000 
0.392385 -0.326870 0.000000 
-0.908210 -0.433741 0.000000 
0.990155 -0.915534 0.000000 
-0.289749 -0.699282 0.000000 
0.660137 0.902904 0.000000 
0.672308 0.527494 0.000000 
-0.595720 0.966418 0.000000 
0.408315 0.229608 0.000000 
0.529951 -0.140461 0.000000 
-0.976873 0.389887 0.000000 
0.362249 -0.483144 0.000000 
0.592635 -0.778581 0.000000 
0.940410 0.008180 0.000000 
0.515176 0.862215 0.000000 
0.833796 0.599957 0.000000 
0.970975 -0.688915 0.000000 
0.874677 0.189203 0.000000 
-0.731947 -0.004704 0.000000 
-0.873096 0.908802 0.000000 
-0.545922 -0.394577 0.000000 
-0.128299 -0.434461 0.000000 
-0.453589 0.276091 0.000000 
0.125499 -0.744965 0.000000 
0.490024 -0.676892 0.000000 
0.786477 -0.908524 0.000000 
-0.858496 -0.704865 0.000000 
-0.104148 0.017286 0.000000 
0.687254 -0.312672 0.000000 
0.227697 0.395515 0.000000 
0.785524 -0.744129 0.000000 
-0.736940 -0.500356 0.000000 
-0.572927 0.660781 0.000000 
-0.857089 -0.246463 0.000000 
0.218416 -0.663363 0.000000 
-0.555710 0.777842 0.000000 
0.793480 0.226525 0.000000 
0.233418 -0.970539 0.000000 
-0.466824 0.621492 0.000000 
0.891608 0.437909 0.000000 
-0.057958 0.640951 0.000000 
0.132940 -0.971029 0.000000 
0.435107 -0.716067 0.000000 
0.371481 -0.313694 0.000000 
-0.141653 -0.728272 0.000000 
0.466094 0.060301 0.000000 
-0.012498 -0.362556 0.000000 
0.171599 0.348780 0.000000 
-0.495011 -0.951882 0.000000 
0.048343 0.716742 0.000000 
-0.156251 0.173021 0.000000 
-0.498756 0.342390 0.000000 
-0.246414 -0.166840 0.000000 
-0.655855 -0.271642 0.000000 
-0.789779 0.072027 0.000000 
-0.775534 -0.689077 0.000000 
0.785740 0.818764 0.000000 
0.582135 0.063003 0.000000 
-0.399741 0.713595 0.000000 
0.931857 -0.793639 0.000000 
0.651451 -0.473724 0.000000 
0.638315 -0.115594 0.000000 
0.342760 -0.660741 0.000000 
0.920526 0.162477 0.000000 
0.807543 0.529874 0.000000 
0.877905 0.873110 0.000000 
0.474031 -0.959711 0.000000 
0.439072 0.525436 0.000000 
0.206314 0.764982 0.000000 
-0.203534 0.588472 0.000000 
0.337023 0.157459 0.000000 
-0.104518 -0.592269 0.000000 
0.410164 0.955131 0.000000 
-0.081966 0.169285 0.000000 
-0.271370 -0.969075 0.000000 
0.120246 0.740859 0.000000 
0.186520 0.227267 0.000000 
-0.723789 0.976639 0.000000 
-0.320584 -0.202507 0.000000 
CELL_DATA 184 
SCALARS MASS float 
LOOKUP_TABLE default 
0.051252 
0.046008 
0.051531 
0.046188 
0.052854 
0.051531 
0.052854 
0.052854 
0.051531 
0.050859 
0.052854 
0.047395 
0.052854 
0.052854 
0.051434 
0.045995 
0.052854 
0.051281 
0.051530 
0.046441 
0.052854 
0.052854 
0.050612 
0.049065 
0.052975 
0.049197 
0.049245 
0.052975 
0.052990 
0.055938 
0.049713 
0.052094 
0.055938 
0.050456 
0.055938 
0.053198 
0.052878 
0.049051 
0.052807 
0.049481 
0.052974 
0.049465 
0.049257 
0.055938 
0.105225 
0.104629 
0.082126 
0.094264 
0.094771 
0.094259 
0.094771 
0.083366 
0.104047 
0.083092 
0.081316 
0.081315 
0.092719 
0.079469 
0.108073 
0.092710 
0.108073 
0.093129 
0.104035 
0.094961 
0.104398 
0.081316 
0.125285 
0.099128 
0.098320 
0.087841 
0.082650 
0.097481 
0.086914 
0.081921 
0.086680 
0.086680 
0.081485 
0.107769 
0.088711 
0.084874 
0.107874 
0.082612 
0.095190 
0.095229 
0.083942 
0.085089 
0.079923 
0.081132 
0.095301 
0.097917 
0.090576 
0.085268 
0.095896 
0.081062 
0.095454 
0.090083 
0.081027 
0.085251 
0.101961 
0.083022 
0.095445 
0.080604 
0.081018 
0.085240 
0.097826 
0.090495 
0.095435 
0.095845 
0.081023 
0.085241 
0.090072 
0.081024 
0.095436 
0.101966 
0.083028 
0.085242 
0.080610 
0.081024 
0.095437 
0.082345 
0.082694 
0.085242 
0.109264 
0.089885 
0.095437 
0.108636 
0.083028 
0.085242 
0.080610 
0.074817 
0.073569 
0.082490 
0.095437 
0.095617 
0.133784 
0.138292 
0.139667 
0.139695 
0.139694 
0.139689 
0.139693 
0.140105 
0.139774 
0.086622 
0.086622 
0.089038 
0.077179 
0.079159 
0.072465 
0.084345 
0.092656 
0.093083 
0.084037 
0.098826 
0.101847 
0.085968 
0.086444 
0.074619 
0.064825 
0.094138 
0.124406 
0.086607 
0.131576 
0.102571 
0.084703 
0.076503 
0.084191 
0.084191 
0.086793 
0.075696 
0.084714 
0.090949 
0.084009 
0.076569 
0.086383 
0.098391 
0.110757 
0.093222 
0.143196 
0.101090 
0.091038 
0.150913 
0.178131 
0.206980 
SCALARS MASS float 
LOOKUP_TABLE default 
0.051252 
0.046008 
0.051531 
0.046188 
0.052854 
0.051531 
0.052854 
0.052854 
0.051531 
0.050859 
0.052854 
0.047395 
0.052854 
0.052854 
0.051434 
0.045995 
0.052854 
0.051281 
0.051530 
0.046441 
0.052854 
0.052854 
0.050612 
0.049065 
0.052975 
0.049197 
0.049245 
0.052975 
0.052990 
0.055938 
0.049713 
0.052094 
0.055938 
0.050456 
0.055938 
0.053198 
0.052878 
0.049051 
0.052807 
0.049481 
0.052974 
0.049465 
0.049257 
0.055938 
0.105225 
0.104629 
0.082126 
0.094264 
0.094771 
0.094259 
0.094771 
0.083366 
0.104047 
0.083092 
0.081316 
0.081315 
0.092719 
0.079469 
0.108073 
0.092710 
0.108073 
0.093129 
0.104035 
0.094961 
0.104398 
0.081316 
0.125285 
0.099128 
0.098320 
0.087841 
0.082650 
0.097481 
0.086914 
0.081921 
0.086680 
0.086680 
0.081485 
0.107769 
0.088711 
0.084874 
0.107874 
0.082612 
0.095190 
0.095229 
0.083942 
0.085089 
0.079923 
0.081132 
0.095301 
0.097917 
0.090576 
0.085268 
0.095896 
0.081062 
0.095454 
0.090083 
0.081027 
0.085251 
0.101961 
0.083022 
0.095445 
0.080604 
0.081018 
0.085240 
0.097826 
0.090495 
0.095435 
0.095845 
0.081023 
0.085241 
0.090072 
0.081024 
0.095436 
0.101966 
0.083028 
0.085242 
0.080610 
0.081024 
0.095437 
0.082345 
0.082694 
0.085242 
0.109264 
0.089885 
0.095437 
0.108636 
0.083028 
0.085242 
0.080610 
0.074817 
0.073569 
0.082490 
0.095437 
0.095617 
0.133784 
0.138292 
0.139667 
0.139695 
0.139694 
0.139689 
0.139693 
0.140105 
0.139774 
0.086622 
0.086622 
0.089038 
0.077179 
0.079159 
0.072465 
0.084345 
0.092656 
0.093083 
0.084037 
0.098826 
0.101847 
0.085968 
0.086444 
0.074619 
0.064825 
0.094138 
0.124406 
0.086607 
0.131576 
0.102571 
0.084703 
0.076503 
0.084191 
0.084191 
0.086793 
0.075696 
0.084714 
0.090949 
0.084009 
0.076569 
0.086383 
0.098391 
0.110757 
0.093222 
0.143196 
0.101090 
0.091038 
0.150913 
0.178131 
0.206980 
SCALARS DENSITY float 
LOOKUP_TABLE default 
19.733117 
6480678824479.885742 
33.957079 
26.873753 
94349975444652608051782122441756916056064.000000 
17.691968 
17.561739 
39773834556635349130286272298044576759808.000000 
23.514606 
48.057242 
228948748.505530 
22.938751 
7874416341870396683343322152960.000000 
22.563850 
42.340990 
86936783583122550685696.000000 
21.860651 
22.168854 
1393724358139768909086991832537630768073799999946752.000000 
14.760185 
14194.127978 
35.584804 
21.806926 
312583434159209600.000000 
37.894058 
63.899462 
839498670173087484685737525248.000000 
23.448087 
15.616285 
7659534289777235820810883002837672487865548800.000000 
15.813444 
45.102117 
2458.533212 
24.100415 
6051242747930928969421111759579643904.000000 
24.687089 
53.041714 
4345610313446378.000000 
20.431329 
25.960721 
91092446496742514479476769038832570440933067689295872.000000 
50.288619 
3212050298.335139 
36.380497 
20.545052 
23.052466 
20.209785 
525181573173112508394766336.000000 
2722070244386780151812194304.000000 
1126818.533552 
8063.897227 
17.085459 
26.965706 
26.068925 
22.155063 
12045059493731654438993059989774401536.000000 
4151302093399068770304.000000 
35.830582 
26.142839 
392703117813.816284 
344814534503606262862461168660514865152.000000 
14.363130 
10.231211 
30.902244 
17.948329 
18.991543 
14.869785 
19.418115 
18.830526 
25.237778 
23.200373 
26.247753 
25.201864 
25.410447 
21.345163 
23.529217 
26.828858 
27.452262 
28.191609 
26.717781 
16.567443 
41.574111 
26.472359 
22.281066 
26.153767 
32.610297 
30.001733 
21.989806 
11.563118 
8311.638628 
5634291.054932 
22.061067 
13202805629086.550781 
284733590130737.000000 
80.330851 
5149538495041100800.000000 
59706037368203040.000000 
104134788.472837 
5222179871262007885824.000000 
7847287940226926592.000000 
10788377894.860415 
291748161998532703682560.000000 
15307522560258532.000000 
204918093974.039276 
1822764542507072256.000000 
71952176564.315323 
17453876434.675426 
313086659.149954 
439.339007 
310810.048988 
25.547722 
26.991276 
48.504536 
21.481018 
23.919798 
22.655008 
31.300102 
16.212222 
12.177130 
25.703063 
24.736531 
30.956722 
24.649148 
25.716278 
24.831167 
19.206543 
19.267226 
23.684149 
16.520019 
18.966991 
16.300571 
17.936418 
24.910401 
22.994543 
24.450424 
25.832890 
275391204.305893 
23.034838 
18.746731 
2662430.415784 
25.227122 
20.803822 
137.178043 
26.212444 
22.971015 
26.459696 
21.690893 
24.229315 
16.859189 
20.604099 
17.803628 
13.789940 
33.982818 
20.976468 
21.251461 
34.879095 
50.204716 
17.927322 
13.151088 
44.245435 
13.470612 
25.642251 
23.955359 
21.184030 
23.070011 
7.440572 
24.558174 
16.194142 
62.190051 
35.155606 
19.423398 
226.634255 
32.436988 
20.984161 
25.340476 
39.255710 
14.774380 
31.781643 
28.207558 
22.133140 
25.524905 
22.543938 
47.781500 
18.038310 
SCALARS ELEM_i float 
LOOKUP_TABLE default 
203 
220 
161 
222 
180 
183 
202 
200 
162 
221 
160 
203 
200 
161 
221 
180 
183 
222 
180 
162 
220 
161 
203 
220 
161 
222 
180 
183 
222 
200 
162 
221 
160 
203 
200 
162 
221 
160 
183 
222 
180 
162 
220 
161 
203 
162 
183 
180 
200 
220 
160 
222 
222 
162 
183 
180 
200 
221 
161 
160 
200 
202 
221 
221 
182 
161 
202 
202 
202 
202 
202 
202 
202 
202 
202 
202 
202 
222 
222 
202 
221 
221 
202 
221 
221 
221 
221 
221 
221 
220 
200 
201 
200 
200 
201 
200 
200 
200 
200 
180 
200 
180 
180 
180 
180 
180 
180 
180 
160 
180 
161 
161 
181 
161 
161 
181 
161 
161 
161 
162 
162 
161 
162 
182 
182 
182 
182 
182 
182 
182 
182 
202 
182 
182 
202 
201 
200 
181 
181 
180 
182 
201 
200 
202 
182 
202 
201 
201 
201 
201 
201 
201 
201 
201 
201 
201 
201 
201 
201 
201 
201 
182 
182 
201 
181 
181 
181 
181 
181 
181 
181 
180 
181 
181 
181 
181 
181 
182 
181 
181 
182 
182 
201 
181 
VECTORS VELOCITY float 
-0.464205 -0.972828 0.000000 
-2.623460 -50.857337 0.000000 
-0.200669 1.458155 0.000000 
-0.117568 -0.529963 0.000000 
1.526771 -143.675028 0.000000 
-0.453130 0.663214 0.000000 
0.271293 0.854591 0.000000 
-2.244150 -167.119137 0.000000 
-0.105507 -0.079001 0.000000 
0.514635 2.547552 0.000000 
0.645697 -23.378277 0.000000 
0.237666 1.001026 0.000000 
0.801453 -108.927760 0.000000 
1.188264 0.558775 0.000000 
0.073124 1.145950 0.000000 
-1.096293 -71.663727 0.000000 
-0.815568 -0.591178 0.000000 
0.054383 -0.131179 0.000000 
1.791605 -183.051602 0.000000 
-0.006057 0.985340 0.000000 
0.020210 -1.080128 0.000000 
-0.471524 2.987397 0.000000 
-0.193149 0.664893 0.000000 
-0.375089 -68.282163 0.000000 
0.208239 1.383351 0.000000 
-0.178148 -0.563713 0.000000 
-0.655111 -99.207781 0.000000 
-1.245409 0.022936 0.000000 
0.011481 0.349407 0.000000 
-1.674011 -173.240483 0.000000 
-0.263658 0.485474 0.000000 
0.377059 3.453890 0.000000 
-0.645101 -0.235605 0.000000 
0.909026 0.726854 0.000000 
-1.655873 -149.167264 0.000000 
0.254426 -0.071644 0.000000 
0.618664 1.355100 0.000000 
1.996567 -61.318951 0.000000 
-0.459424 -1.429491 0.000000 
-0.062480 -0.536114 0.000000 
2.578288 -173.653792 0.000000 
0.134733 1.384133 0.000000 
-1.744458 -28.350064 0.000000 
-0.400371 2.220502 0.000000 
-0.137393 0.372312 0.000000 
-0.220049 -0.031088 0.000000 
-0.508198 -0.268680 0.000000 
-0.672185 -77.587232 0.000000 
0.577519 -89.111821 0.000000 
-0.514273 -6.084023 0.000000 
-0.373035 -0.159655 0.000000 
0.055801 0.476268 0.000000 
-0.043407 -0.503887 0.000000 
0.500391 -0.322093 0.000000 
-0.925305 0.276893 0.000000 
0.546182 -106.643911 0.000000 
1.329362 -51.840465 0.000000 
0.040397 4.941715 0.000000 
-0.154144 2.229038 0.000000 
0.898219 -24.528006 0.000000 
-0.017201 -100.846578 0.000000 
0.243392 0.774677 0.000000 
-0.810924 0.612575 0.000000 
0.387648 2.021511 0.000000 
-0.125463 1.047628 0.000000 
0.755838 1.179085 0.000000 
0.011466 0.466639 0.000000 
0.070008 0.182358 0.000000 
0.102238 0.380216 0.000000 
0.169484 -0.282902 0.000000 
0.193704 -0.099563 0.000000 
0.192812 -0.395221 0.000000 
0.182016 -0.345788 0.000000 
0.212032 -0.153785 0.000000 
0.299991 -0.368364 0.000000 
0.067382 -0.311984 0.000000 
0.062386 -0.676229 0.000000 
-0.150433 -0.719897 0.000000 
-0.198155 -1.198815 0.000000 
0.015311 -0.953897 0.000000 
-0.588849 -0.169399 0.000000 
-0.202390 0.220725 0.000000 
-0.087802 -1.601776 0.000000 
-0.025463 1.925370 0.000000 
-0.307030 3.635519 0.000000 
-0.467817 -0.289896 0.000000 
-0.235146 5.438897 0.000000 
-0.679079 8.215002 0.000000 
-0.765644 2.455304 0.000000 
-0.646796 5.023682 0.000000 
-0.519753 2.686763 0.000000 
-0.620215 7.672388 0.000000 
0.196852 -16.324273 0.000000 
0.134632 -15.672755 0.000000 
-0.741951 9.725471 0.000000 
0.566644 -37.767652 0.000000 
0.169231 -25.406742 0.000000 
-0.323165 0.723727 0.000000 
0.053500 -38.254144 0.000000 
-0.183459 -24.734691 0.000000 
-0.180238 -3.650542 0.000000 
-0.333846 -42.344605 0.000000 
-0.295997 -21.852632 0.000000 
-0.127770 -5.364027 0.000000 
-0.455106 -28.796432 0.000000 
0.193919 -5.787771 0.000000 
-0.007171 -3.368294 0.000000 
0.502659 -1.154981 0.000000 
0.597739 9.565281 0.000000 
0.405354 6.541592 0.000000 
0.175564 7.710867 0.000000 
0.139152 5.324434 0.000000 
0.466414 10.324975 0.000000 
0.075574 2.933238 0.000000 
0.153712 1.236486 0.000000 
0.352410 5.669753 0.000000 
0.298985 0.366476 0.000000 
0.540622 -0.633687 0.000000 
0.396012 2.353844 0.000000 
0.311730 -0.931774 0.000000 
0.052528 -0.996986 0.000000 
-0.068661 -1.687287 0.000000 
-0.108319 -0.417107 0.000000 
-0.136609 -0.262680 0.000000 
-0.021663 -1.814962 0.000000 
-0.049697 0.381251 0.000000 
-0.027999 0.263633 0.000000 
0.001522 -0.621650 0.000000 
-0.122766 0.662895 0.000000 
-0.070550 0.348755 0.000000 
-0.175843 0.336656 0.000000 
-0.054746 0.161205 0.000000 
-0.018063 -0.328779 0.000000 
0.030236 -0.226871 0.000000 
0.134047 -0.658876 0.000000 
-0.089789 -1.627725 0.000000 
-0.231382 1.904899 0.000000 
0.280121 7.616831 0.000000 
0.233965 0.333238 0.000000 
0.177008 5.705804 0.000000 
0.068391 -1.459841 0.000000 
-0.656494 3.841310 0.000000 
-0.622595 9.371538 0.000000 
0.305828 -0.745733 0.000000 
0.369486 -0.408297 0.000000 
0.195333 -0.902630 0.000000 