# vtk DataFile Version 3.0 
vtk output 
ASCII 
DATASET UNSTRUCTURED_GRID 
POINTS 175 float 
-0.035570 -2.551097 0.000000 
-0.108246 -2.474604 0.000000 
-0.056222 -2.492380 0.000000 
-0.021708 -2.446524 0.000000 
-0.190468 -2.356344 0.000000 
-0.132172 -2.388236 0.000000 
-0.104051 -2.312578 0.000000 
-0.046618 -2.361103 0.000000 
-0.023195 -2.299754 0.000000 
-0.277132 -2.216733 0.000000 
-0.214556 -2.228600 0.000000 
-0.192292 -2.184491 0.000000 
-0.135640 -2.210792 0.000000 
-0.110427 -2.174209 0.000000 
-0.049679 -2.213415 0.000000 
-0.025839 -2.175988 0.000000 
-0.364584 -2.152983 0.000000 
-0.310964 -2.157351 0.000000 
-0.284132 -2.111232 0.000000 
-0.224530 -2.126043 0.000000 
-0.196347 -2.098739 0.000000 
-0.140726 -2.117834 0.000000 
-0.110842 -2.093226 0.000000 
-0.053778 -2.122654 0.000000 
-0.026402 -2.074267 0.000000 
-0.090764 -2.588882 0.000000 
-0.179145 -2.596769 0.000000 
-0.150750 -2.567226 0.000000 
-0.159671 -2.501363 0.000000 
-0.226473 -2.593945 0.000000 
-0.218375 -2.576258 0.000000 
-0.262524 -2.478929 0.000000 
-0.233429 -2.477681 0.000000 
-0.247615 -2.402209 0.000000 
-0.302543 -2.503501 0.000000 
-0.283430 -2.501333 0.000000 
-0.338984 -2.469372 0.000000 
-0.327392 -2.461024 0.000000 
-0.343767 -2.382633 0.000000 
-0.302714 -2.345466 0.000000 
-0.320453 -2.276066 0.000000 
-0.394261 -2.484936 0.000000 
-0.370931 -2.487896 0.000000 
-0.453289 -2.415114 0.000000 
-0.415166 -2.411732 0.000000 
-0.435973 -2.345494 0.000000 
-0.408265 -2.328426 0.000000 
-0.419306 -2.268603 0.000000 
-0.406098 -2.249504 0.000000 
-0.404997 -2.208461 0.000000 
-0.098582 -2.618139 0.000000 
-0.173451 -2.617263 0.000000 
-0.167008 -2.611816 0.000000 
-0.175668 -2.605435 0.000000 
-0.173510 -2.652812 0.000000 
-0.175428 -2.614606 0.000000 
-0.178931 -2.605836 0.000000 
-0.181916 -2.601458 0.000000 
-0.197234 -2.589645 0.000000 
-0.256305 -2.443096 0.000000 
-0.184728 -2.652991 0.000000 
-0.208797 -2.485822 0.000000 
-37.052544 -17.828879 0.000000 
-0.230000 -2.593272 0.000000 
-0.238404 -2.590921 0.000000 
-0.283418 -2.574046 0.000000 
-736.575082 130.968815 0.000000 
-382.860537 -31.051798 0.000000 
1314.378600 -11.573713 0.000000 
-0.273659 -2.579753 0.000000 
-0.267430 -2.592430 0.000000 
-0.255359 -2.603707 0.000000 
-0.307137 -2.607296 0.000000 
-0.321577 -2.591661 0.000000 
-0.356083 -2.570342 0.000000 
-0.001287 -2.634978 0.000000 
0.160879 -2.652030 0.000000 
-0.000149 -2.659217 0.000000 
-0.160350 -2.652880 0.000000 
0.165196 -2.675534 0.000000 
0.148089 -2.684278 0.000000 
0.000655 -2.708349 0.000000 
-0.147255 -2.687155 0.000000 
-0.164586 -2.678076 0.000000 
39.530303 -140.890777 0.000000 
1.250792 -4.925186 0.000000 
1.685046 -3.021188 0.000000 
0.000278 -2.818627 0.000000 
-1.659574 -3.020507 0.000000 
-1.209515 -4.821990 0.000000 
-37.324216 -133.275070 0.000000 
133.147216 17.118272 0.000000 
11.185768 -3.247270 0.000000 
3.850561 -3.388215 0.000000 
1.442364 -3.110171 0.000000 
-0.000022 -3.260758 0.000000 
-1.421294 -3.109856 0.000000 
-3.791039 -3.379783 0.000000 
-11.010663 -3.238727 0.000000 
-130.835952 16.402661 0.000000 
0.096338 -2.620215 0.000000 
0.175892 -2.608123 0.000000 
0.167102 -2.614056 0.000000 
0.173801 -2.618741 0.000000 
0.197911 -2.593268 0.000000 
0.182286 -2.604205 0.000000 
0.179264 -2.608236 0.000000 
0.175783 -2.616213 0.000000 
0.174004 -2.651649 0.000000 
0.284214 -2.577909 0.000000 
0.239643 -2.594162 0.000000 
0.231280 -2.596086 0.000000 
37.045351 33.801020 0.000000 
0.210395 -2.497788 0.000000 
0.185198 -2.651413 0.000000 
0.257150 -2.426942 0.000000 
0.355645 -2.570493 0.000000 
0.321401 -2.593134 0.000000 
0.307125 -2.608318 0.000000 
0.256028 -2.605520 0.000000 
0.268244 -2.595179 0.000000 
0.274709 -2.583376 0.000000 
-1344.288233 -10.695812 0.000000 
394.486066 -30.008684 0.000000 
749.736778 135.432340 0.000000 
0.085807 -2.592589 0.000000 
0.158197 -2.504230 0.000000 
0.149178 -2.573323 0.000000 
0.179318 -2.600385 0.000000 
0.247983 -2.388954 0.000000 
0.234701 -2.472315 0.000000 
0.264331 -2.479928 0.000000 
0.219672 -2.581493 0.000000 
0.227744 -2.597388 0.000000 
0.320575 -2.274706 0.000000 
0.302997 -2.340107 0.000000 
0.344161 -2.379022 0.000000 
0.327999 -2.453280 0.000000 
0.339499 -2.467094 0.000000 
0.285061 -2.508748 0.000000 
0.303117 -2.507698 0.000000 
0.405062 -2.208428 0.000000 
0.406195 -2.249453 0.000000 
0.419392 -2.268507 0.000000 
0.408436 -2.328512 0.000000 
0.435971 -2.345577 0.000000 
0.415304 -2.412056 0.000000 
0.453134 -2.415426 0.000000 
0.369923 -2.488147 0.000000 
0.391866 -2.484824 0.000000 
0.028803 -2.552677 0.000000 
0.021272 -2.445753 0.000000 
0.052998 -2.492502 0.000000 
0.106761 -2.472020 0.000000 
0.023236 -2.299445 0.000000 
0.046700 -2.359823 0.000000 
0.104112 -2.310376 0.000000 
0.132361 -2.382236 0.000000 
0.190675 -2.348881 0.000000 
0.025860 -2.175984 0.000000 
0.049695 -2.213392 0.000000 
0.110427 -2.174224 0.000000 
0.135621 -2.210816 0.000000 
0.192252 -2.184554 0.000000 
0.214476 -2.228626 0.000000 
0.277126 -2.216771 0.000000 
0.026438 -2.074276 0.000000 
0.053809 -2.122665 0.000000 
0.110859 -2.093269 0.000000 
0.140723 -2.117877 0.000000 
0.196317 -2.098804 0.000000 
0.224483 -2.126121 0.000000 
0.284101 -2.111281 0.000000 
0.310966 -2.157384 0.000000 
0.364609 -2.152987 0.000000 
CELLS 175 350 
1 0 
1 1 
1 2 
1 3 
1 4 
1 5 
1 6 
1 7 
1 8 
1 9 
1 10 
1 11 
1 12 
1 13 
1 14 
1 15 
1 16 
1 17 
1 18 
1 19 
1 20 
1 21 
1 22 
1 23 
1 24 
1 25 
1 26 
1 27 
1 28 
1 29 
1 30 
1 31 
1 32 
1 33 
1 34 
1 35 
1 36 
1 37 
1 38 
1 39 
1 40 
1 41 
1 42 
1 43 
1 44 
1 45 
1 46 
1 47 
1 48 
1 49 
1 50 
1 51 
1 52 
1 53 
1 54 
1 55 
1 56 
1 57 
1 58 
1 59 
1 60 
1 61 
1 62 
1 63 
1 64 
1 65 
1 66 
1 67 
1 68 
1 69 
1 70 
1 71 
1 72 
1 73 
1 74 
1 75 
1 76 
1 77 
1 78 
1 79 
1 80 
1 81 
1 82 
1 83 
1 84 
1 85 
1 86 
1 87 
1 88 
1 89 
1 90 
1 91 
1 92 
1 93 
1 94 
1 95 
1 96 
1 97 
1 98 
1 99 
1 100 
1 101 
1 102 
1 103 
1 104 
1 105 
1 106 
1 107 
1 108 
1 109 
1 110 
1 111 
1 112 
1 113 
1 114 
1 115 
1 116 
1 117 
1 118 
1 119 
1 120 
1 121 
1 122 
1 123 
1 124 
1 125 
1 126 
1 127 
1 128 
1 129 
1 130 
1 131 
1 132 
1 133 
1 134 
1 135 
1 136 
1 137 
1 138 
1 139 
1 140 
1 141 
1 142 
1 143 
1 144 
1 145 
1 146 
1 147 
1 148 
1 149 
1 150 
1 151 
1 152 
1 153 
1 154 
1 155 
1 156 
1 157 
1 158 
1 159 
1 160 
1 161 
1 162 
1 163 
1 164 
1 165 
1 166 
1 167 
1 168 
1 169 
1 170 
1 171 
1 172 
1 173 
1 174 
CELL_TYPES 175 
1 
1 
1 
1 
1 
1 
1 
1 
1 
1 
1 
1 
1 
1 
1 
1 
1 
1 
1 
1 
1 
1 
1 
1 
1 
1 
1 
1 
1 
1 
1 
1 
1 
1 
1 
1 
1 
1 
1 
1 
1 
1 
1 
1 
1 
1 
1 
1 
1 
1 
1 
1 
1 
1 
1 
1 
1 
1 
1 
1 
1 
1 
1 
1 
1 
1 
1 
1 
1 
1 
1 
1 
1 
1 
1 
1 
1 
1 
1 
1 
1 
1 
1 
1 
1 
1 
1 
1 
1 
1 
1 
1 
1 
1 
1 
1 
1 
1 
1 
1 
1 
1 
1 
1 
1 
1 
1 
1 
1 
1 
1 
1 
1 
1 
1 
1 
1 
1 
1 
1 
1 
1 
1 
1 
1 
1 
1 
1 
1 
1 
1 
1 
1 
1 
1 
1 
1 
1 
1 
1 
1 
1 
1 
1 
1 
1 
1 
1 
1 
1 
1 
1 
1 
1 
1 
1 
1 
1 
1 
1 
1 
1 
1 
1 
1 
1 
1 
1 
1 
1 
1 
1 
1 
1 
1 
POINT_DATA 175 
VECTORS X_GC float 
-0.035570 -2.551097 0.000000 
-0.108246 -2.474604 0.000000 
-0.056222 -2.492380 0.000000 
-0.021708 -2.446524 0.000000 
-0.190468 -2.356344 0.000000 
-0.132172 -2.388236 0.000000 
-0.104051 -2.312578 0.000000 
-0.046618 -2.361103 0.000000 
-0.023195 -2.299754 0.000000 
-0.277132 -2.216733 0.000000 
-0.214556 -2.228600 0.000000 
-0.192292 -2.184491 0.000000 
-0.135640 -2.210792 0.000000 
-0.110427 -2.174209 0.000000 
-0.049679 -2.213415 0.000000 
-0.025839 -2.175988 0.000000 
-0.364584 -2.152983 0.000000 
-0.310964 -2.157351 0.000000 
-0.284132 -2.111232 0.000000 
-0.224530 -2.126043 0.000000 
-0.196347 -2.098739 0.000000 
-0.140726 -2.117834 0.000000 
-0.110842 -2.093226 0.000000 
-0.053778 -2.122654 0.000000 
-0.026402 -2.074267 0.000000 
-0.090764 -2.588882 0.000000 
-0.179145 -2.596769 0.000000 
-0.150750 -2.567226 0.000000 
-0.159671 -2.501363 0.000000 
-0.226473 -2.593945 0.000000 
-0.218375 -2.576258 0.000000 
-0.262524 -2.478929 0.000000 
-0.233429 -2.477681 0.000000 
-0.247615 -2.402209 0.000000 
-0.302543 -2.503501 0.000000 
-0.283430 -2.501333 0.000000 
-0.338984 -2.469372 0.000000 
-0.327392 -2.461024 0.000000 
-0.343767 -2.382633 0.000000 
-0.302714 -2.345466 0.000000 
-0.320453 -2.276066 0.000000 
-0.394261 -2.484936 0.000000 
-0.370931 -2.487896 0.000000 
-0.453289 -2.415114 0.000000 
-0.415166 -2.411732 0.000000 
-0.435973 -2.345494 0.000000 
-0.408265 -2.328426 0.000000 
-0.419306 -2.268603 0.000000 
-0.406098 -2.249504 0.000000 
-0.404997 -2.208461 0.000000 
-0.098582 -2.618139 0.000000 
-0.173451 -2.617263 0.000000 
-0.167008 -2.611816 0.000000 
-0.175668 -2.605435 0.000000 
-0.173510 -2.652812 0.000000 
-0.175428 -2.614606 0.000000 
-0.178931 -2.605836 0.000000 
-0.181916 -2.601458 0.000000 
-0.197234 -2.589645 0.000000 
-0.256305 -2.443096 0.000000 
-0.184728 -2.652991 0.000000 
-0.208797 -2.485822 0.000000 
-37.052544 -17.828879 0.000000 
-0.230000 -2.593272 0.000000 
-0.238404 -2.590921 0.000000 
-0.283418 -2.574046 0.000000 
-736.575082 130.968815 0.000000 
-382.860537 -31.051798 0.000000 
1314.378600 -11.573713 0.000000 
-0.273659 -2.579753 0.000000 
-0.267430 -2.592430 0.000000 
-0.255359 -2.603707 0.000000 
-0.307137 -2.607296 0.000000 
-0.321577 -2.591661 0.000000 
-0.356083 -2.570342 0.000000 
-0.001287 -2.634978 0.000000 
0.160879 -2.652030 0.000000 
-0.000149 -2.659217 0.000000 
-0.160350 -2.652880 0.000000 
0.165196 -2.675534 0.000000 
0.148089 -2.684278 0.000000 
0.000655 -2.708349 0.000000 
-0.147255 -2.687155 0.000000 
-0.164586 -2.678076 0.000000 
39.530303 -140.890777 0.000000 
1.250792 -4.925186 0.000000 
1.685046 -3.021188 0.000000 
0.000278 -2.818627 0.000000 
-1.659574 -3.020507 0.000000 
-1.209515 -4.821990 0.000000 
-37.324216 -133.275070 0.000000 
133.147216 17.118272 0.000000 
11.185768 -3.247270 0.000000 
3.850561 -3.388215 0.000000 
1.442364 -3.110171 0.000000 
-0.000022 -3.260758 0.000000 
-1.421294 -3.109856 0.000000 
-3.791039 -3.379783 0.000000 
-11.010663 -3.238727 0.000000 
-130.835952 16.402661 0.000000 
0.096338 -2.620215 0.000000 
0.175892 -2.608123 0.000000 
0.167102 -2.614056 0.000000 
0.173801 -2.618741 0.000000 
0.197911 -2.593268 0.000000 
0.182286 -2.604205 0.000000 
0.179264 -2.608236 0.000000 
0.175783 -2.616213 0.000000 
0.174004 -2.651649 0.000000 
0.284214 -2.577909 0.000000 
0.239643 -2.594162 0.000000 
0.231280 -2.596086 0.000000 
37.045351 33.801020 0.000000 
0.210395 -2.497788 0.000000 
0.185198 -2.651413 0.000000 
0.257150 -2.426942 0.000000 
0.355645 -2.570493 0.000000 
0.321401 -2.593134 0.000000 
0.307125 -2.608318 0.000000 
0.256028 -2.605520 0.000000 
0.268244 -2.595179 0.000000 
0.274709 -2.583376 0.000000 
-1344.288233 -10.695812 0.000000 
394.486066 -30.008684 0.000000 
749.736778 135.432340 0.000000 
0.085807 -2.592589 0.000000 
0.158197 -2.504230 0.000000 
0.149178 -2.573323 0.000000 
0.179318 -2.600385 0.000000 
0.247983 -2.388954 0.000000 
0.234701 -2.472315 0.000000 
0.264331 -2.479928 0.000000 
0.219672 -2.581493 0.000000 
0.227744 -2.597388 0.000000 
0.320575 -2.274706 0.000000 
0.302997 -2.340107 0.000000 
0.344161 -2.379022 0.000000 
0.327999 -2.453280 0.000000 
0.339499 -2.467094 0.000000 
0.285061 -2.508748 0.000000 
0.303117 -2.507698 0.000000 
0.405062 -2.208428 0.000000 
0.406195 -2.249453 0.000000 
0.419392 -2.268507 0.000000 
0.408436 -2.328512 0.000000 
0.435971 -2.345577 0.000000 
0.415304 -2.412056 0.000000 
0.453134 -2.415426 0.000000 
0.369923 -2.488147 0.000000 
0.391866 -2.484824 0.000000 
0.028803 -2.552677 0.000000 
0.021272 -2.445753 0.000000 
0.052998 -2.492502 0.000000 
0.106761 -2.472020 0.000000 
0.023236 -2.299445 0.000000 
0.046700 -2.359823 0.000000 
0.104112 -2.310376 0.000000 
0.132361 -2.382236 0.000000 
0.190675 -2.348881 0.000000 
0.025860 -2.175984 0.000000 
0.049695 -2.213392 0.000000 
0.110427 -2.174224 0.000000 
0.135621 -2.210816 0.000000 
0.192252 -2.184554 0.000000 
0.214476 -2.228626 0.000000 
0.277126 -2.216771 0.000000 
0.026438 -2.074276 0.000000 
0.053809 -2.122665 0.000000 
0.110859 -2.093269 0.000000 
0.140723 -2.117877 0.000000 
0.196317 -2.098804 0.000000 
0.224483 -2.126121 0.000000 
0.284101 -2.111281 0.000000 
0.310966 -2.157384 0.000000 
0.364609 -2.152987 0.000000 
VECTORS X_EC float 
0.462413 0.939816 0.000000 
-0.592800 -0.092842 0.000000 
0.730891 0.147126 0.000000 
0.282203 -0.471930 0.000000 
0.476083 0.310647 0.000000 
-0.281763 0.741193 0.000000 
-0.647340 -0.280192 0.000000 
0.606032 0.374892 0.000000 
0.301530 -0.453319 0.000000 
-0.397278 0.425899 0.000000 
0.789229 0.586094 0.000000 
0.499795 -0.009369 0.000000 
-0.236681 0.345692 0.000000 
-0.564445 -0.148180 0.000000 
0.645822 0.381107 0.000000 
0.335907 -0.124164 0.000000 
0.739596 -0.434727 0.000000 
0.042532 -0.375763 0.000000 
-0.306289 -0.998371 0.000000 
0.918888 -0.798418 0.000000 
0.552511 0.832973 0.000000 
-0.170557 -0.909239 0.000000 
-0.559055 0.758547 0.000000 
0.699116 -0.844175 0.000000 
0.343232 0.502605 0.000000 
-0.820067 -0.550093 0.000000 
0.328890 -0.443612 0.000000 
-0.040247 -0.842455 0.000000 
0.075722 0.268402 0.000000 
0.944153 -0.481736 0.000000 
0.838877 -0.720524 0.000000 
-0.587193 -0.034458 0.000000 
-0.965423 -0.051303 0.000000 
-0.781007 0.929825 0.000000 
-0.066946 0.297269 0.000000 
-0.315413 0.267991 0.000000 
0.406797 -0.163481 0.000000 
0.256100 -0.276171 0.000000 
0.468971 0.665550 0.000000 
-0.064720 0.163796 0.000000 
0.165889 -0.773111 0.000000 
-0.874602 0.046636 0.000000 
0.822103 0.086602 0.000000 
-0.107243 -0.895959 0.000000 
-0.602838 -0.941613 0.000000 
-0.332347 0.164169 0.000000 
-0.692561 -0.066248 0.000000 
-0.549017 -0.873860 0.000000 
-0.720729 0.868307 0.000000 
-0.735036 0.314221 0.000000 
-0.718437 -0.155121 0.000000 
0.254863 -0.166954 0.000000 
0.171108 -0.240491 0.000000 
0.283688 -0.326633 0.000000 
0.255633 0.312962 0.000000 
0.280570 -0.202814 0.000000 
0.326103 -0.321219 0.000000 
0.364911 -0.380321 0.000000 
0.564047 -0.539795 0.000000 
-0.668035 -0.518205 0.000000 
0.401466 0.315376 0.000000 
0.714359 0.058592 0.000000 
-0.979619 -0.861022 0.000000 
0.989998 -0.490830 0.000000 
-0.900754 -0.522563 0.000000 
-0.315571 -0.750383 0.000000 
0.808930 0.945648 0.000000 
-0.057878 0.819844 0.000000 
0.315175 0.903630 0.000000 
-0.442436 -0.673339 0.000000 
-0.523416 -0.502201 0.000000 
-0.680336 -0.349954 0.000000 
-0.007219 -0.301505 0.000000 
0.180497 -0.512571 0.000000 
0.629076 -0.800384 0.000000 
0.016725 0.072208 0.000000 
-0.091431 0.302409 0.000000 
0.001931 0.399432 0.000000 
0.084544 0.313883 0.000000 
-0.147547 0.619707 0.000000 
0.074848 0.737751 0.000000 
-0.008509 -0.937294 0.000000 
-0.085680 0.776591 0.000000 
0.139616 0.654020 0.000000 
0.885200 -0.506816 0.000000 
-0.247327 -0.333774 0.000000 
0.748521 0.978687 0.000000 
-0.003608 0.551467 0.000000 
-0.748521 0.978687 0.000000 
0.241775 -0.330793 0.000000 
-0.891866 -0.507652 0.000000 
0.704269 0.937207 0.000000 
-0.724313 0.961051 0.000000 
0.412755 0.887080 0.000000 
0.791852 0.988079 0.000000 
0.000000 0.760633 0.000000 
-0.791852 0.988079 0.000000 
-0.412755 0.887080 0.000000 
0.724313 0.961051 0.000000 
-0.704269 0.937207 0.000000 
0.747612 -0.127102 0.000000 
-0.286593 -0.290341 0.000000 
-0.172330 -0.210251 0.000000 
-0.259409 -0.146997 0.000000 
-0.572848 -0.490878 0.000000 
-0.369723 -0.343232 0.000000 
-0.330427 -0.288812 0.000000 
-0.285179 -0.181130 0.000000 
-0.262048 0.297265 0.000000 
0.305219 -0.698230 0.000000 
0.884643 -0.478815 0.000000 
0.993363 -0.452836 0.000000 
-0.990892 0.843781 0.000000 
-0.735139 0.220142 0.000000 
-0.407576 0.294073 0.000000 
0.657045 -0.736288 0.000000 
-0.623381 -0.798348 0.000000 
-0.178209 -0.492685 0.000000 
0.007372 -0.287703 0.000000 
0.671641 -0.325485 0.000000 
0.512831 -0.465083 0.000000 
0.428788 -0.624422 0.000000 
-0.315175 0.903630 0.000000 
0.044765 0.818738 0.000000 
-0.808930 0.945648 0.000000 
0.884504 -0.500048 0.000000 
-0.056566 0.307101 0.000000 
0.060690 -0.760138 0.000000 
-0.331131 -0.394807 0.000000 
0.776219 0.750885 0.000000 
0.948887 -0.123743 0.000000 
0.563693 -0.020972 0.000000 
-0.855730 -0.649851 0.000000 
-0.960668 -0.435264 0.000000 
-0.167479 -0.791475 0.000000 
0.061035 0.091445 0.000000 
-0.474096 0.616801 0.000000 
-0.263984 -0.380715 0.000000 
-0.413485 -0.194230 0.000000 
0.294213 0.368097 0.000000 
0.059474 0.353918 0.000000 
0.734198 0.313783 0.000000 
0.719468 0.867618 0.000000 
0.547902 -0.875153 0.000000 
0.690332 -0.065088 0.000000 
0.332374 0.165286 0.000000 
0.601044 -0.937238 0.000000 
0.109256 -0.891750 0.000000 
-0.809004 0.089984 0.000000 
0.905745 0.045123 0.000000 
-0.374442 0.961146 0.000000 
-0.276539 -0.482337 0.000000 
-0.688974 0.148777 0.000000 
0.612113 -0.127728 0.000000 
-0.302067 -0.457489 0.000000 
-0.607094 0.357608 0.000000 
0.646541 -0.309923 0.000000 
0.279312 0.660188 0.000000 
-0.478775 0.209899 0.000000 
-0.336183 -0.124220 0.000000 
-0.646029 0.380796 0.000000 
0.564445 -0.147969 0.000000 
0.236929 0.346016 0.000000 
-0.499280 -0.008517 0.000000 
-0.788191 0.586452 0.000000 
0.397357 0.426414 0.000000 
-0.343697 0.502730 0.000000 
-0.699521 -0.844025 0.000000 
0.558832 0.759125 0.000000 
0.170605 -0.908661 0.000000 
-0.552125 0.833857 0.000000 
-0.918274 -0.797364 0.000000 
0.306684 -0.997704 0.000000 
-0.042560 -0.375311 0.000000 
-0.739911 -0.434680 0.000000 
CELL_DATA 175 
SCALARS MASS float 
LOOKUP_TABLE default 
0.781831 
0.864274 
0.946717 
0.864274 
0.881307 
0.921110 
0.858535 
0.921110 
0.881307 
0.887046 
0.910001 
0.869829 
0.915556 
0.869829 
0.910001 
0.887046 
0.892784 
0.915740 
0.892784 
0.927218 
0.892784 
0.927218 
0.892784 
0.915740 
0.892784 
0.781831 
0.864274 
0.946717 
0.864274 
0.881307 
0.921110 
0.858535 
0.921110 
0.881307 
0.887046 
0.910001 
0.869829 
0.915556 
0.869829 
0.910001 
0.887046 
0.892784 
0.915740 
0.892784 
0.927218 
0.892784 
0.927218 
0.892784 
0.915740 
0.892784 
0.781831 
0.864274 
0.946717 
0.864274 
0.881307 
0.921110 
0.858535 
0.921110 
0.881307 
0.887046 
0.910001 
0.869829 
0.915556 
0.869829 
0.910001 
0.887046 
0.892784 
0.915740 
0.892784 
0.927218 
0.892784 
0.927218 
0.892784 
0.915740 
0.892784 
0.781831 
0.864274 
0.946717 
0.864274 
0.881307 
0.921110 
0.858535 
0.921110 
0.881307 
0.887046 
0.910001 
0.869829 
0.915556 
0.869829 
0.910001 
0.887046 
0.892784 
0.915740 
0.892784 
0.927218 
0.892784 
0.927218 
0.892784 
0.915740 
0.892784 
0.781831 
0.864274 
0.946717 
0.864274 
0.881307 
0.921110 
0.858535 
0.921110 
0.881307 
0.887046 
0.910001 
0.869829 
0.915556 
0.869829 
0.910001 
0.887046 
0.892784 
0.915740 
0.892784 
0.927218 
0.892784 
0.927218 
0.892784 
0.915740 
0.892784 
0.781831 
0.864274 
0.946717 
0.864274 
0.881307 
0.921110 
0.858535 
0.921110 
0.881307 
0.887046 
0.910001 
0.869829 
0.915556 
0.869829 
0.910001 
0.887046 
0.892784 
0.915740 
0.892784 
0.927218 
0.892784 
0.927218 
0.892784 
0.915740 
0.892784 
0.781831 
0.864274 
0.946717 
0.864274 
0.881307 
0.921110 
0.858535 
0.921110 
0.881307 
0.887046 
0.910001 
0.869829 
0.915556 
0.869829 
0.910001 
0.887046 
0.892784 
0.915740 
0.892784 
0.927218 
0.892784 
0.927218 
0.892784 
0.915740 
0.892784 
SCALARS MASS float 
LOOKUP_TABLE default 
0.781831 
0.864274 
0.946717 
0.864274 
0.881307 
0.921110 
0.858535 
0.921110 
0.881307 
0.887046 
0.910001 
0.869829 
0.915556 
0.869829 
0.910001 
0.887046 
0.892784 
0.915740 
0.892784 
0.927218 
0.892784 
0.927218 
0.892784 
0.915740 
0.892784 
0.781831 
0.864274 
0.946717 
0.864274 
0.881307 
0.921110 
0.858535 
0.921110 
0.881307 
0.887046 
0.910001 
0.869829 
0.915556 
0.869829 
0.910001 
0.887046 
0.892784 
0.915740 
0.892784 
0.927218 
0.892784 
0.927218 
0.892784 
0.915740 
0.892784 
0.781831 
0.864274 
0.946717 
0.864274 
0.881307 
0.921110 
0.858535 
0.921110 
0.881307 
0.887046 
0.910001 
0.869829 
0.915556 
0.869829 
0.910001 
0.887046 
0.892784 
0.915740 
0.892784 
0.927218 
0.892784 
0.927218 
0.892784 
0.915740 
0.892784 
0.781831 
0.864274 
0.946717 
0.864274 
0.881307 
0.921110 
0.858535 
0.921110 
0.881307 
0.887046 
0.910001 
0.869829 
0.915556 
0.869829 
0.910001 
0.887046 
0.892784 
0.915740 
0.892784 
0.927218 
0.892784 
0.927218 
0.892784 
0.915740 
0.892784 
0.781831 
0.864274 
0.946717 
0.864274 
0.881307 
0.921110 
0.858535 
0.921110 
0.881307 
0.887046 
0.910001 
0.869829 
0.915556 
0.869829 
0.910001 
0.887046 
0.892784 
0.915740 
0.892784 
0.927218 
0.892784 
0.927218 
0.892784 
0.915740 
0.892784 
0.781831 
0.864274 
0.946717 
0.864274 
0.881307 
0.921110 
0.858535 
0.921110 
0.881307 
0.887046 
0.910001 
0.869829 
0.915556 
0.869829 
0.910001 
0.887046 
0.892784 
0.915740 
0.892784 
0.927218 
0.892784 
0.927218 
0.892784 
0.915740 
0.892784 
0.781831 
0.864274 
0.946717 
0.864274 
0.881307 
0.921110 
0.858535 
0.921110 
0.881307 
0.887046 
0.910001 
0.869829 
0.915556 
0.869829 
0.910001 
0.887046 
0.892784 
0.915740 
0.892784 
0.927218 
0.892784 
0.927218 
0.892784 
0.915740 
0.892784 
SCALARS DENSITY float 
LOOKUP_TABLE default 
178.662225 
448.776935 
683.142976 
75.500056 
465.235013 
238.324133 
1118.498576 
432.869371 
943.996912 
1749.323573 
386106.079479 
186.747447 
226.966113 
170.424883 
217.695083 
130.384720 
629.212721 
95.337945 
202.768321 
302.472445 
335.283478 
232.407558 
307.148331 
635.546788 
286.518175 
150354.679956 
3153.475839 
600.852424 
110.901060 
186.936622 
5447.022335 
32.541203 
1055.952978 
1244.777021 
223.116349 
514.241379 
1337.946408 
508.063929 
3628.307240 
165.751660 
706.202820 
2468.261476 
71.310380 
11370.754802 
89.332026 
2847.825139 
609.159706 
113.803079 
2242.667594 
164.000914 
189524.939248 
678.941139 
558.608969 
3905.471112 
10791563672229866.000000 
94.488876 
16.148765 
449.521659 
66.705631 
35622988623239148.000000 
191448199633835189600256.000000 
275.976189 
2.466367 
2686.423797 
150.451414 
841.944852 
-107262481381670682624.000000 
53925485.036872 
0.121669 
83956.249758 
5986.051310 
81.126559 
1213.499835 
2543.219222 
421.750935 
688.448981 
341.999630 
138.570957 
338.734723 
-309447249552851186986672440280943167248718102528.000000 
27272220.666598 
31698310457324587712512.000000 
26765919.160006 
-314434862679870884607639142340113575995913535488.000000 
5345244256149794631809136328704.000000 
5902765665167966335926272.000000 
134561984674736465061609472.000000 
183141829102.621796 
142579123873108735018663936.000000 
6218595751605219780198400.000000 
5531347298196482285506884796416.000000 
-249733190935920.312500 
272727269171719939088304285632164141994518688259535777419799560192.000000 
54145701403018319690509389310196073554247680.000000 
-31459584153965360737071499754338504484071816007865935873086847179717420777472.000000 
20511879.435808 
-33299613392454243540495909745701843165158296135827480061122022924220811444224.000000 
55896772007975593779526368948474266150502400.000000 
296947828969819402111941977454212519002761296293053029080073502720.000000 
-261071756286225.937500 
189335.749262 
3911.514681 
560.543796 
679.757112 
66.808323 
448.660087 
16.103069 
94.208237 
10936123848868872.000000 
835.318010 
149.825388 
2667.076372 
0.196053 
340.846287 
191180936312597761753088.000000 
35774780641721008.000000 
418.898828 
2514.727840 
1200.510455 
80.059315 
5907.157239 
83078.022151 
0.119694 
52617270.532834 
-107378236438882549760.000000 
150462.724477 
111.272201 
604.470467 
3183.215525 
1276.895424 
1057.670285 
32.535572 
5516.203603 
188.783444 
708.556448 
166.536295 
3631.459731 
508.866849 
1339.529597 
519.292387 
223.584830 
164.019709 
2242.614645 
113.602600 
608.047687 
2840.470017 
89.517020 
11354.455259 
70.924558 
2451.534085 
178.704540 
75.504714 
683.543513 
450.015714 
943.713834 
432.621174 
1119.862705 
238.907609 
468.858162 
130.383445 
217.690082 
170.387385 
226.877211 
186.631861 
392449.175659 
1759.565512 
286.517494 
635.537378 
307.064885 
232.339721 
335.092216 
302.211546 
202.701359 
95.323331 
629.553356 
SCALARS ELEM_i float 
LOOKUP_TABLE default 
165 
192 
165 
165 
193 
193 
193 
166 
166 
221 
194 
194 
194 
194 
167 
167 
221 
221 
221 
194 
195 
194 
195 
167 
168 
191 
191 
191 
192 
191 
191 
219 
219 
220 
219 
219 
219 
219 
220 
220 
220 
246 
219 
246 
246 
247 
247 
247 
248 
248 
191 
191 
191 
191 
191 
191 
191 
191 
191 
219 
191 
192 
187 
191 
218 
218 
216 
216 
243 
218 
218 
218 
218 
218 
218 
164 
137 
164 
191 
137 
137 
163 
191 
191 
108 
136 
135 
163 
189 
190 
216 
108 
135 
135 
135 
162 
189 
189 
189 
216 
137 
137 
137 
137 
137 
137 
137 
137 
137 
110 
110 
110 
215 
138 
137 
111 
110 
110 
110 
110 
110 
110 
81 
108 
108 
137 
138 
137 
137 
112 
111 
111 
137 
137 
112 
112 
112 
111 
111 
111 
111 
86 
86 
85 
85 
85 
84 
84 
111 
84 
165 
165 
165 
138 
166 
166 
139 
139 
139 
167 
167 
140 
140 
140 
140 
113 
168 
167 
141 
140 
141 
140 
113 
113 
113 
VECTORS VELOCITY float 
-1.886436 -13.473154 0.000000 
-2.180409 -25.836181 0.000000 
0.713255 -15.052725 0.000000 
3.663849 -14.191512 0.000000 
-5.263266 -33.897407 0.000000 
-0.757749 -28.372739 0.000000 
4.853365 -7.410505 0.000000 
5.683509 -7.107405 0.000000 
3.569716 -0.355834 0.000000 
-3.197290 13.315020 0.000000 
2.321514 9.988954 0.000000 
3.620416 15.032738 0.000000 
4.807790 12.855514 0.000000 
4.155653 11.829996 0.000000 
5.195435 8.752850 0.000000 
2.026305 8.633546 0.000000 
-4.843987 7.574432 0.000000 
-2.255323 11.615956 0.000000 
0.308969 6.827743 0.000000 
2.119999 12.380969 0.000000 
0.810185 3.310212 0.000000 
1.262448 7.333340 0.000000 
0.014355 1.601780 0.000000 
0.964064 4.158499 0.000000 
0.190549 8.064240 0.000000 
-5.492839 -16.745811 0.000000 
-9.720553 -33.241488 0.000000 
-13.642677 -27.981238 0.000000 
-12.583418 -29.010872 0.000000 
4.019385 -39.561017 0.000000 
-5.666015 -42.175260 0.000000 
-15.738191 -41.806845 0.000000 
-20.992442 -62.674370 0.000000 
-17.740198 -62.596683 0.000000 
10.913113 0.415494 0.000000 
4.400515 -6.594775 0.000000 
6.552105 -26.437065 0.000000 
-4.055415 -49.514774 0.000000 
-1.312246 -22.591098 0.000000 
-7.962537 -25.609075 0.000000 
-7.383197 -3.124811 0.000000 
37.702487 13.880712 0.000000 
24.920323 0.008348 0.000000 
20.935412 -4.632616 0.000000 
11.850401 -8.399483 0.000000 
11.568666 -4.088579 0.000000 
-0.414358 -4.011107 0.000000 
6.286533 0.185626 0.000000 
-13.046662 0.800060 0.000000 
-5.558123 -0.532719 0.000000 
-12.300212 -19.535506 0.000000 
-28.565038 17.131198 0.000000 
-25.692656 -6.210389 0.000000 
-8.846109 -6.318537 0.000000 
-11.104076 52.417438 0.000000 
-4.460481 54.092503 0.000000 
25.011506 57.216167 0.000000 
17.225788 22.570596 0.000000 
23.800353 5.149897 0.000000 
-2.095436 174.762431 0.000000 
15.226863 81.384627 0.000000 
16.602884 150.685954 0.000000 
-14735.068303 -11850.762547 0.000000 
33.896119 34.819790 0.000000 
25.637544 5.285438 0.000000 
14.475703 -12.589681 0.000000 
-357400.625591 67004.592339 0.000000 
-183064.170984 -13734.209689 0.000000 
618100.521253 -4196.184738 0.000000 
19.801809 85.551625 0.000000 
37.181478 65.380723 0.000000 
41.109428 34.505925 0.000000 
27.024775 26.708406 0.000000 
15.504401 0.052756 0.000000 
20.222327 9.371328 0.000000 
-0.837605 -21.605364 0.000000 
42.367750 1.818960 0.000000 
-0.408136 -13.575506 0.000000 
-42.146565 1.354362 0.000000 
29.568866 35.250369 0.000000 
33.976700 19.184181 0.000000 
0.043412 23.261587 0.000000 
-33.628845 17.694645 0.000000 
-29.320907 33.928656 0.000000 
15874.837450 -65162.639400 0.000000 
15.142752 38.768937 0.000000 
-1.799236 -36.417943 0.000000 
0.019135 10.539159 0.000000 
1.799489 -36.418452 0.000000 
-14.961464 37.515372 0.000000 
-14890.705371 -61532.683775 0.000000 
59364.520380 10161.989973 0.000000 
-0.174352 -72.897822 0.000000 
3.883083 -157.962268 0.000000 
-1.117736 -87.244743 0.000000 
-0.000734 -188.035871 0.000000 
1.117833 -87.245016 0.000000 
-3.878823 -157.965744 0.000000 
0.179033 -72.899842 0.000000 
-58323.038395 9796.688009 0.000000 
11.089182 -20.611734 0.000000 
8.920202 -7.662108 0.000000 
25.701884 -7.333989 0.000000 
28.703909 16.454887 0.000000 
-23.483592 3.379272 0.000000 
-17.076960 21.256080 0.000000 
-24.880379 56.104080 0.000000 
4.598779 53.386263 0.000000 
11.304212 53.117855 0.000000 
-13.957386 -14.523226 0.000000 
-25.012940 3.707134 0.000000 
-33.283014 33.530720 0.000000 
14733.837293 15534.835658 0.000000 
-15.780957 144.810741 0.000000 
-15.040536 82.392869 0.000000 
2.497473 182.706742 0.000000 
-20.064042 9.539828 0.000000 
-15.406442 -0.545950 0.000000 
-26.982926 26.409329 0.000000 
-40.805299 33.792697 0.000000 
-36.730353 64.101168 0.000000 
-19.165214 83.741446 0.000000 
-632307.663956 -3756.367453 0.000000 
188706.172116 -13193.822985 0.000000 
363802.579964 69240.652292 0.000000 
2.924922 -18.668211 0.000000 
11.856228 -30.467262 0.000000 
12.817763 -31.137235 0.000000 
9.765266 -35.103028 0.000000 
17.962858 -56.049926 0.000000 
21.708266 -60.053983 0.000000 
16.798975 -42.306872 0.000000 
6.318579 -44.821171 0.000000 
-3.380957 -41.269373 0.000000 
7.443892 -2.471286 0.000000 
8.115561 -22.999585 0.000000 
1.507201 -20.843223 0.000000 
4.367376 -45.804845 0.000000 
-6.228564 -25.352734 0.000000 
-3.361533 -10.326364 0.000000 
-10.291741 -1.564870 0.000000 
5.572999 -0.548941 0.000000 
13.078140 0.785144 0.000000 
-6.273866 0.176760 0.000000 
0.472284 -4.106907 0.000000 
-11.618619 -4.189566 0.000000 
-11.819625 -8.615445 0.000000 
-21.072707 -4.840217 0.000000 
-25.264775 0.024799 0.000000 
-38.823126 14.097571 0.000000 
-1.643885 -14.266700 0.000000 
-3.890364 -13.791944 0.000000 
-2.387749 -15.098119 0.000000 
1.417327 -24.551262 0.000000 
-3.543316 -0.197215 0.000000 
-5.640365 -6.447651 0.000000 
-4.812455 -6.307872 0.000000 
0.866499 -25.386775 0.000000 
5.391144 -30.211957 0.000000 
-2.012485 8.636043 0.000000 
-5.181669 8.764876 0.000000 
-4.150937 11.828979 0.000000 
-4.809349 12.857354 0.000000 
-3.631675 15.021404 0.000000 
-2.345733 9.982741 0.000000 
3.197468 13.304970 0.000000 
-0.176061 8.060045 0.000000 
-0.949146 4.154340 0.000000 
-0.006225 1.582519 0.000000 