# vtk DataFile Version 3.0 
vtk output 
ASCII 
DATASET UNSTRUCTURED_GRID 
POINTS 184 float 
-0.028811 -1.036927 0.000000 
-0.337228 -1.848533 0.000000 
0.473826 -1.539307 0.000000 
-0.447224 -1.344550 0.000000 
0.165656 -1.955000 0.000000 
0.222713 -1.091669 0.000000 
-0.284076 -1.131377 0.000000 
-0.100762 -1.974055 0.000000 
0.418839 -1.287505 0.000000 
-0.462804 -1.617811 0.000000 
0.379480 -1.794933 0.000000 
-0.166786 -1.064415 0.000000 
-0.227178 -1.926904 0.000000 
0.463197 -1.410095 0.000000 
-0.473871 -1.482409 0.000000 
0.286252 -1.892713 0.000000 
0.100762 -1.047661 0.000000 
-0.377333 -1.222688 0.000000 
0.039274 -1.983910 0.000000 
0.337021 -1.173261 0.000000 
-0.416046 -1.738036 0.000000 
0.444142 -1.676514 0.000000 
-0.121270 -1.051050 0.000000 
-0.301377 -1.879599 0.000000 
0.473826 -1.491868 0.000000 
-0.460589 -1.390067 0.000000 
0.246344 -1.918360 0.000000 
0.179561 -1.071962 0.000000 
-0.346268 -1.186836 0.000000 
-0.053807 -1.980806 0.000000 
0.368087 -1.209113 0.000000 
-0.449439 -1.663328 0.000000 
0.424436 -1.719666 0.000000 
-0.209938 -1.084121 0.000000 
-0.146279 -1.960690 0.000000 
0.438546 -1.330656 0.000000 
-0.473871 -1.529848 0.000000 
0.322103 -1.861647 0.000000 
0.018627 -1.036927 0.000000 
-0.427517 -1.301399 0.000000 
0.086229 -1.977159 0.000000 
0.301170 -1.142196 0.000000 
-0.368294 -1.812682 0.000000 
0.457507 -1.630997 0.000000 
-0.079407 -1.068672 0.000000 
0.369154 -1.254246 0.000000 
0.048715 -1.065283 0.000000 
0.205703 -1.910772 0.000000 
-0.167159 -1.925006 0.000000 
-0.366567 -1.771374 0.000000 
0.386144 -1.735255 0.000000 
-0.305135 -1.182666 0.000000 
-0.387078 -1.281715 0.000000 
0.425252 -1.369804 0.000000 
0.140413 -1.085256 0.000000 
0.111975 -1.944810 0.000000 
-0.260069 -1.877872 0.000000 
-0.413756 -1.684208 0.000000 
0.439780 -1.588772 0.000000 
0.326273 -1.820514 0.000000 
-0.014533 -1.957251 0.000000 
-0.225527 -1.122413 0.000000 
-0.442908 -1.432293 0.000000 
-0.445123 -1.566126 0.000000 
0.255396 -1.140780 0.000000 
0.445470 -1.461781 0.000000 
-0.079333 -1.124946 0.000000 
-0.130417 -1.167756 0.000000 
-0.191597 -1.163138 0.000000 
-0.111867 -1.226364 0.000000 
-0.224051 -1.217659 0.000000 
-0.171272 -1.254658 0.000000 
-0.055594 -1.240592 0.000000 
-0.279041 -1.228223 0.000000 
-0.040187 -1.296314 0.000000 
-0.015041 -1.199388 0.000000 
-0.296573 -1.287487 0.000000 
-0.349226 -1.317772 0.000000 
-0.351226 -1.383476 0.000000 
-0.254824 -1.326242 0.000000 
-0.391103 -1.432797 0.000000 
-0.370336 -1.492401 0.000000 
-0.284940 -1.383428 0.000000 
-0.395089 -1.551895 0.000000 
-0.360392 -1.598069 0.000000 
-0.313327 -1.491826 0.000000 
-0.369688 -1.656417 0.000000 
-0.323258 -1.690212 0.000000 
-0.307698 -1.556487 0.000000 
-0.317847 -1.751341 0.000000 
-0.261652 -1.776536 0.000000 
-0.273358 -1.664020 0.000000 
-0.237999 -1.830695 0.000000 
-0.174943 -1.836566 0.000000 
-0.233858 -1.715606 0.000000 
-0.136993 -1.881846 0.000000 
-0.076092 -1.872678 0.000000 
-0.147100 -1.787588 0.000000 
-0.021468 -1.905648 0.000000 
0.034383 -1.879695 0.000000 
-0.085997 -1.809621 0.000000 
0.090783 -1.897252 0.000000 
0.131601 -1.856384 0.000000 
0.025861 -1.823221 0.000000 
0.192839 -1.859715 0.000000 
0.225790 -1.807686 0.000000 
0.089168 -1.808705 0.000000 
0.282731 -1.791963 0.000000 
0.297512 -1.730384 0.000000 
0.190626 -1.759654 0.000000 
0.347718 -1.699257 0.000000 
0.347308 -1.637673 0.000000 
0.236036 -1.713214 0.000000 
0.387714 -1.588294 0.000000 
0.369971 -1.529320 0.000000 
0.294872 -1.617097 0.000000 
0.395378 -1.475991 0.000000 
0.360736 -1.429772 0.000000 
0.307967 -1.553480 0.000000 
0.372882 -1.375271 0.000000 
0.326072 -1.335251 0.000000 
0.305499 -1.440812 0.000000 
0.320446 -1.274245 0.000000 
0.261463 -1.245209 0.000000 
0.282122 -1.380213 0.000000 
0.233332 -1.187942 0.000000 
0.170485 -1.181989 0.000000 
0.219133 -1.286766 0.000000 
0.132530 -1.136724 0.000000 
0.077667 -1.146581 0.000000 
0.033502 -1.112735 0.000000 
-0.020231 -1.142350 0.000000 
0.166704 -1.248426 0.000000 
0.047676 -1.199636 0.000000 
-0.184513 -1.303977 0.000000 
-0.267808 -1.432174 0.000000 
-0.039895 -1.786118 0.000000 
0.233804 -1.661512 0.000000 
0.278138 -1.511191 0.000000 
0.115242 -1.764003 0.000000 
0.234165 -1.360765 0.000000 
-0.267095 -1.588642 0.000000 
-0.182363 -1.720786 0.000000 
-0.080635 -1.337540 0.000000 
0.015739 -1.310730 0.000000 
-0.141814 -1.340349 0.000000 
-0.170613 -1.397811 0.000000 
-0.215488 -1.436537 0.000000 
-0.205084 -1.499857 0.000000 
-0.129406 -1.434757 0.000000 
-0.218571 -1.560352 0.000000 
-0.148068 -1.491943 0.000000 
-0.174593 -1.606727 0.000000 
-0.076799 -1.400636 0.000000 
-0.155573 -1.668826 0.000000 
-0.126037 -1.576699 0.000000 
-0.074980 -1.603309 0.000000 
-0.112999 -1.522410 0.000000 
-0.052249 -1.505637 0.000000 
-0.031995 -1.558621 0.000000 
-0.034711 -1.441049 0.000000 
0.031192 -1.366364 0.000000 
0.063050 -1.255256 0.000000 
-0.089197 -1.666949 0.000000 
0.009049 -1.424645 0.000000 
0.051424 -1.474541 0.000000 
0.053332 -1.529679 0.000000 
0.098177 -1.445249 0.000000 
0.011239 -1.572523 0.000000 
0.028372 -1.633960 0.000000 
0.017947 -1.693386 0.000000 
0.077740 -1.721276 0.000000 
0.083331 -1.634601 0.000000 
0.117710 -1.676741 0.000000 
0.179025 -1.647810 0.000000 
0.098599 -1.573703 0.000000 
0.165702 -1.455823 0.000000 
0.087920 -1.386429 0.000000 
0.161326 -1.577076 0.000000 
0.191154 -1.397964 0.000000 
0.131959 -1.355113 0.000000 
0.122542 -1.279575 0.000000 
-0.040916 -1.710820 0.000000 
0.197397 -1.517622 0.000000 
CELLS 184 368 
1 0 
1 1 
1 2 
1 3 
1 4 
1 5 
1 6 
1 7 
1 8 
1 9 
1 10 
1 11 
1 12 
1 13 
1 14 
1 15 
1 16 
1 17 
1 18 
1 19 
1 20 
1 21 
1 22 
1 23 
1 24 
1 25 
1 26 
1 27 
1 28 
1 29 
1 30 
1 31 
1 32 
1 33 
1 34 
1 35 
1 36 
1 37 
1 38 
1 39 
1 40 
1 41 
1 42 
1 43 
1 44 
1 45 
1 46 
1 47 
1 48 
1 49 
1 50 
1 51 
1 52 
1 53 
1 54 
1 55 
1 56 
1 57 
1 58 
1 59 
1 60 
1 61 
1 62 
1 63 
1 64 
1 65 
1 66 
1 67 
1 68 
1 69 
1 70 
1 71 
1 72 
1 73 
1 74 
1 75 
1 76 
1 77 
1 78 
1 79 
1 80 
1 81 
1 82 
1 83 
1 84 
1 85 
1 86 
1 87 
1 88 
1 89 
1 90 
1 91 
1 92 
1 93 
1 94 
1 95 
1 96 
1 97 
1 98 
1 99 
1 100 
1 101 
1 102 
1 103 
1 104 
1 105 
1 106 
1 107 
1 108 
1 109 
1 110 
1 111 
1 112 
1 113 
1 114 
1 115 
1 116 
1 117 
1 118 
1 119 
1 120 
1 121 
1 122 
1 123 
1 124 
1 125 
1 126 
1 127 
1 128 
1 129 
1 130 
1 131 
1 132 
1 133 
1 134 
1 135 
1 136 
1 137 
1 138 
1 139 
1 140 
1 141 
1 142 
1 143 
1 144 
1 145 
1 146 
1 147 
1 148 
1 149 
1 150 
1 151 
1 152 
1 153 
1 154 
1 155 
1 156 
1 157 
1 158 
1 159 
1 160 
1 161 
1 162 
1 163 
1 164 
1 165 
1 166 
1 167 
1 168 
1 169 
1 170 
1 171 
1 172 
1 173 
1 174 
1 175 
1 176 
1 177 
1 178 
1 179 
1 180 
1 181 
1 182 
1 183 
CELL_TYPES 184 
1 
1 
1 
1 
1 
1 
1 
1 
1 
1 
1 
1 
1 
1 
1 
1 
1 
1 
1 
1 
1 
1 
1 
1 
1 
1 
1 
1 
1 
1 
1 
1 
1 
1 
1 
1 
1 
1 
1 
1 
1 
1 
1 
1 
1 
1 
1 
1 
1 
1 
1 
1 
1 
1 
1 
1 
1 
1 
1 
1 
1 
1 
1 
1 
1 
1 
1 
1 
1 
1 
1 
1 
1 
1 
1 
1 
1 
1 
1 
1 
1 
1 
1 
1 
1 
1 
1 
1 
1 
1 
1 
1 
1 
1 
1 
1 
1 
1 
1 
1 
1 
1 
1 
1 
1 
1 
1 
1 
1 
1 
1 
1 
1 
1 
1 
1 
1 
1 
1 
1 
1 
1 
1 
1 
1 
1 
1 
1 
1 
1 
1 
1 
1 
1 
1 
1 
1 
1 
1 
1 
1 
1 
1 
1 
1 
1 
1 
1 
1 
1 
1 
1 
1 
1 
1 
1 
1 
1 
1 
1 
1 
1 
1 
1 
1 
1 
1 
1 
1 
1 
1 
1 
1 
1 
1 
1 
1 
1 
1 
1 
1 
1 
1 
1 
POINT_DATA 184 
VECTORS X_GC float 
-0.028811 -1.036927 0.000000 
-0.337228 -1.848533 0.000000 
0.473826 -1.539307 0.000000 
-0.447224 -1.344550 0.000000 
0.165656 -1.955000 0.000000 
0.222713 -1.091669 0.000000 
-0.284076 -1.131377 0.000000 
-0.100762 -1.974055 0.000000 
0.418839 -1.287505 0.000000 
-0.462804 -1.617811 0.000000 
0.379480 -1.794933 0.000000 
-0.166786 -1.064415 0.000000 
-0.227178 -1.926904 0.000000 
0.463197 -1.410095 0.000000 
-0.473871 -1.482409 0.000000 
0.286252 -1.892713 0.000000 
0.100762 -1.047661 0.000000 
-0.377333 -1.222688 0.000000 
0.039274 -1.983910 0.000000 
0.337021 -1.173261 0.000000 
-0.416046 -1.738036 0.000000 
0.444142 -1.676514 0.000000 
-0.121270 -1.051050 0.000000 
-0.301377 -1.879599 0.000000 
0.473826 -1.491868 0.000000 
-0.460589 -1.390067 0.000000 
0.246344 -1.918360 0.000000 
0.179561 -1.071962 0.000000 
-0.346268 -1.186836 0.000000 
-0.053807 -1.980806 0.000000 
0.368087 -1.209113 0.000000 
-0.449439 -1.663328 0.000000 
0.424436 -1.719666 0.000000 
-0.209938 -1.084121 0.000000 
-0.146279 -1.960690 0.000000 
0.438546 -1.330656 0.000000 
-0.473871 -1.529848 0.000000 
0.322103 -1.861647 0.000000 
0.018627 -1.036927 0.000000 
-0.427517 -1.301399 0.000000 
0.086229 -1.977159 0.000000 
0.301170 -1.142196 0.000000 
-0.368294 -1.812682 0.000000 
0.457507 -1.630997 0.000000 
-0.079407 -1.068672 0.000000 
0.369154 -1.254246 0.000000 
0.048715 -1.065283 0.000000 
0.205703 -1.910772 0.000000 
-0.167159 -1.925006 0.000000 
-0.366567 -1.771374 0.000000 
0.386144 -1.735255 0.000000 
-0.305135 -1.182666 0.000000 
-0.387078 -1.281715 0.000000 
0.425252 -1.369804 0.000000 
0.140413 -1.085256 0.000000 
0.111975 -1.944810 0.000000 
-0.260069 -1.877872 0.000000 
-0.413756 -1.684208 0.000000 
0.439780 -1.588772 0.000000 
0.326273 -1.820514 0.000000 
-0.014533 -1.957251 0.000000 
-0.225527 -1.122413 0.000000 
-0.442908 -1.432293 0.000000 
-0.445123 -1.566126 0.000000 
0.255396 -1.140780 0.000000 
0.445470 -1.461781 0.000000 
-0.079333 -1.124946 0.000000 
-0.130417 -1.167756 0.000000 
-0.191597 -1.163138 0.000000 
-0.111867 -1.226364 0.000000 
-0.224051 -1.217659 0.000000 
-0.171272 -1.254658 0.000000 
-0.055594 -1.240592 0.000000 
-0.279041 -1.228223 0.000000 
-0.040187 -1.296314 0.000000 
-0.015041 -1.199388 0.000000 
-0.296573 -1.287487 0.000000 
-0.349226 -1.317772 0.000000 
-0.351226 -1.383476 0.000000 
-0.254824 -1.326242 0.000000 
-0.391103 -1.432797 0.000000 
-0.370336 -1.492401 0.000000 
-0.284940 -1.383428 0.000000 
-0.395089 -1.551895 0.000000 
-0.360392 -1.598069 0.000000 
-0.313327 -1.491826 0.000000 
-0.369688 -1.656417 0.000000 
-0.323258 -1.690212 0.000000 
-0.307698 -1.556487 0.000000 
-0.317847 -1.751341 0.000000 
-0.261652 -1.776536 0.000000 
-0.273358 -1.664020 0.000000 
-0.237999 -1.830695 0.000000 
-0.174943 -1.836566 0.000000 
-0.233858 -1.715606 0.000000 
-0.136993 -1.881846 0.000000 
-0.076092 -1.872678 0.000000 
-0.147100 -1.787588 0.000000 
-0.021468 -1.905648 0.000000 
0.034383 -1.879695 0.000000 
-0.085997 -1.809621 0.000000 
0.090783 -1.897252 0.000000 
0.131601 -1.856384 0.000000 
0.025861 -1.823221 0.000000 
0.192839 -1.859715 0.000000 
0.225790 -1.807686 0.000000 
0.089168 -1.808705 0.000000 
0.282731 -1.791963 0.000000 
0.297512 -1.730384 0.000000 
0.190626 -1.759654 0.000000 
0.347718 -1.699257 0.000000 
0.347308 -1.637673 0.000000 
0.236036 -1.713214 0.000000 
0.387714 -1.588294 0.000000 
0.369971 -1.529320 0.000000 
0.294872 -1.617097 0.000000 
0.395378 -1.475991 0.000000 
0.360736 -1.429772 0.000000 
0.307967 -1.553480 0.000000 
0.372882 -1.375271 0.000000 
0.326072 -1.335251 0.000000 
0.305499 -1.440812 0.000000 
0.320446 -1.274245 0.000000 
0.261463 -1.245209 0.000000 
0.282122 -1.380213 0.000000 
0.233332 -1.187942 0.000000 
0.170485 -1.181989 0.000000 
0.219133 -1.286766 0.000000 
0.132530 -1.136724 0.000000 
0.077667 -1.146581 0.000000 
0.033502 -1.112735 0.000000 
-0.020231 -1.142350 0.000000 
0.166704 -1.248426 0.000000 
0.047676 -1.199636 0.000000 
-0.184513 -1.303977 0.000000 
-0.267808 -1.432174 0.000000 
-0.039895 -1.786118 0.000000 
0.233804 -1.661512 0.000000 
0.278138 -1.511191 0.000000 
0.115242 -1.764003 0.000000 
0.234165 -1.360765 0.000000 
-0.267095 -1.588642 0.000000 
-0.182363 -1.720786 0.000000 
-0.080635 -1.337540 0.000000 
0.015739 -1.310730 0.000000 
-0.141814 -1.340349 0.000000 
-0.170613 -1.397811 0.000000 
-0.215488 -1.436537 0.000000 
-0.205084 -1.499857 0.000000 
-0.129406 -1.434757 0.000000 
-0.218571 -1.560352 0.000000 
-0.148068 -1.491943 0.000000 
-0.174593 -1.606727 0.000000 
-0.076799 -1.400636 0.000000 
-0.155573 -1.668826 0.000000 
-0.126037 -1.576699 0.000000 
-0.074980 -1.603309 0.000000 
-0.112999 -1.522410 0.000000 
-0.052249 -1.505637 0.000000 
-0.031995 -1.558621 0.000000 
-0.034711 -1.441049 0.000000 
0.031192 -1.366364 0.000000 
0.063050 -1.255256 0.000000 
-0.089197 -1.666949 0.000000 
0.009049 -1.424645 0.000000 
0.051424 -1.474541 0.000000 
0.053332 -1.529679 0.000000 
0.098177 -1.445249 0.000000 
0.011239 -1.572523 0.000000 
0.028372 -1.633960 0.000000 
0.017947 -1.693386 0.000000 
0.077740 -1.721276 0.000000 
0.083331 -1.634601 0.000000 
0.117710 -1.676741 0.000000 
0.179025 -1.647810 0.000000 
0.098599 -1.573703 0.000000 
0.165702 -1.455823 0.000000 
0.087920 -1.386429 0.000000 
0.161326 -1.577076 0.000000 
0.191154 -1.397964 0.000000 
0.131959 -1.355113 0.000000 
0.122542 -1.279575 0.000000 
-0.040916 -1.710820 0.000000 
0.197397 -1.517622 0.000000 
VECTORS X_EC float 
-0.807924 -0.087151 0.000000 
-0.751813 -0.676445 0.000000 
-0.158839 -0.737955 0.000000 
-0.018508 -0.036333 0.000000 
-0.104376 0.033333 0.000000 
-0.484750 0.277792 0.000000 
0.893837 0.542515 0.000000 
-0.328251 0.160364 0.000000 
0.207737 -0.416633 0.000000 
0.085362 -0.214595 0.000000 
0.470130 0.966222 0.000000 
0.111910 0.096097 0.000000 
0.514522 -0.153975 0.000000 
-0.087979 0.400636 0.000000 
0.159142 0.882728 0.000000 
-0.908345 -0.381915 0.000000 
0.328251 -0.015594 0.000000 
-0.484444 -0.848748 0.000000 
0.738177 0.226066 0.000000 
0.753192 0.821743 0.000000 
-0.226359 0.586907 0.000000 
0.039052 0.176761 0.000000 
-0.191535 0.006998 0.000000 
-0.990822 -0.469342 0.000000 
-0.158839 0.945790 0.000000 
0.070591 0.267112 0.000000 
-0.642294 -0.210935 0.000000 
-0.197074 0.146415 0.000000 
-0.691547 0.912242 0.000000 
-0.641287 0.205372 0.000000 
0.546089 -0.939247 0.000000 
-0.003737 0.088850 0.000000 
0.170429 0.464437 0.000000 
0.399586 0.227475 0.000000 
-0.024807 0.071264 0.000000 
0.076360 -0.128957 0.000000 
0.159142 -0.801016 0.000000 
0.852645 -0.589018 0.000000 
0.875821 -0.087151 0.000000 
-0.149885 -0.324009 0.000000 
0.425140 0.181058 0.000000 
0.992201 0.614640 0.000000 
-0.544710 -0.915455 0.000000 
-0.050047 -0.126683 0.000000 
-0.470623 0.124478 0.000000 
0.538976 -0.638358 0.000000 
0.675236 0.101886 0.000000 
-0.371350 -0.261518 0.000000 
0.114395 -0.166627 0.000000 
-0.556219 0.809160 0.000000 
0.425709 0.568367 0.000000 
-0.965766 0.884443 0.000000 
-0.419479 -0.455235 0.000000 
0.164988 0.132030 0.000000 
0.063913 0.235043 0.000000 
0.253500 -0.034601 0.000000 
0.733793 -0.480852 0.000000 
-0.241628 0.228052 0.000000 
0.068130 -0.408187 0.000000 
0.824846 -0.863238 0.000000 
-0.903111 0.048338 0.000000 
0.503515 0.482755 0.000000 
-0.047282 0.548619 0.000000 
-0.032511 -0.559159 0.000000 
-0.702641 0.605197 0.000000 
0.030198 0.745205 0.000000 
-0.471115 0.499643 0.000000 
-0.130555 0.785039 0.000000 
0.277311 0.754253 0.000000 
-0.254217 -0.824242 0.000000 
0.493676 -0.882275 0.000000 
0.141813 -0.635615 0.000000 
-0.629371 -0.729386 0.000000 
0.860276 -0.811846 0.000000 
-0.732087 -0.357906 0.000000 
-0.899724 0.995920 0.000000 
0.977153 -0.416753 0.000000 
-0.671826 -0.214852 0.000000 
-0.658496 0.223177 0.000000 
0.698824 -0.158385 0.000000 
-0.392645 0.551978 0.000000 
-0.531093 0.949338 0.000000 
0.899598 0.222856 0.000000 
-0.366074 -0.654036 0.000000 
-0.597389 -0.346205 0.000000 
-0.911153 0.945508 0.000000 
-0.535415 0.042781 0.000000 
-0.844949 0.268080 0.000000 
-0.948677 -0.623421 0.000000 
-0.881021 0.675603 0.000000 
0.744349 0.843576 0.000000 
0.822387 0.093464 0.000000 
0.586663 -0.795368 0.000000 
0.166285 -0.756225 0.000000 
0.559054 0.437372 0.000000 
-0.086713 -0.454361 0.000000 
-0.492723 -0.515478 0.000000 
-0.019331 0.917256 0.000000 
-0.856883 -0.295677 0.000000 
0.770780 -0.468701 0.000000 
-0.426685 -0.935859 0.000000 
0.394783 -0.351654 0.000000 
0.122661 -0.624105 0.000000 
0.827591 -0.845190 0.000000 
-0.285596 -0.601903 0.000000 
-0.505268 -0.948762 0.000000 
0.405544 -0.941968 0.000000 
-0.884872 0.946422 0.000000 
-0.983414 0.535893 0.000000 
-0.270837 0.731024 0.000000 
0.681883 0.328378 0.000000 
0.684612 -0.082183 0.000000 
-0.573571 0.421430 0.000000 
0.415238 -0.411374 0.000000 
0.533524 -0.804536 0.000000 
-0.965812 -0.219352 0.000000 
0.364144 0.839938 0.000000 
0.595096 0.531812 0.000000 
0.946884 -0.643470 0.000000 
0.514118 0.168473 0.000000 
0.826186 -0.098327 0.000000 
0.963337 0.605413 0.000000 
0.863696 -0.505030 0.000000 
-0.743089 -0.698607 0.000000 
-0.880813 0.201423 0.000000 
-0.555549 0.919613 0.000000 
-0.136568 0.879927 0.000000 
-0.460886 -0.421561 0.000000 
0.116466 0.578163 0.000000 
0.482219 0.643871 0.000000 
0.776650 0.418231 0.000000 
-0.865130 0.615668 0.000000 
-0.111363 -0.677159 0.000000 
0.682158 0.997574 0.000000 
0.230085 -0.306818 0.000000 
0.785388 0.547827 0.000000 
-0.734034 0.907452 0.000000 
-0.558696 0.076746 0.000000 
-0.854255 -0.925395 0.000000 
0.231718 0.760020 0.000000 
-0.561100 0.071765 0.000000 
0.780632 -0.409050 0.000000 
0.215752 0.471910 0.000000 
-0.462433 -0.083070 0.000000 
0.895071 -0.261798 0.000000 
-0.054573 -0.064343 0.000000 
0.137421 0.318739 0.000000 
0.436584 0.576916 0.000000 
0.367225 0.999047 0.000000 
-0.137294 0.565050 0.000000 
0.457138 -0.597651 0.000000 
-0.012881 0.946287 0.000000 
0.163955 -0.288485 0.000000 
-0.488009 0.337573 0.000000 
0.037156 0.125506 0.000000 
-0.159751 -0.488677 0.000000 
-0.500136 -0.311271 0.000000 
-0.246673 -0.850603 0.000000 
-0.651673 -0.962417 0.000000 
-0.786702 -0.609190 0.000000 
-0.768596 0.606996 0.000000 
0.792053 0.109093 0.000000 
0.579669 -0.631624 0.000000 
-0.405356 0.112992 0.000000 
0.939676 0.497635 0.000000 
0.657172 0.830271 0.000000 
0.644454 -0.802142 0.000000 
0.345486 0.634991 0.000000 
0.925074 -0.516514 0.000000 
0.810853 -0.106933 0.000000 
0.880351 0.289239 0.000000 
0.481737 0.475170 0.000000 
0.444460 -0.102662 0.000000 
0.215264 0.178270 0.000000 
-0.193502 -0.014599 0.000000 
0.342676 -0.508650 0.000000 
-0.104683 0.705487 0.000000 
0.413868 0.242858 0.000000 
-0.075508 -0.486158 0.000000 
-0.274359 0.319757 0.000000 
0.120271 0.034088 0.000000 
0.183054 -0.469503 0.000000 
-0.727227 0.405464 0.000000 
-0.315983 -0.882522 0.000000 
CELL_DATA 184 
SCALARS MASS float 
LOOKUP_TABLE default 
0.051252 
0.046008 
0.051531 
0.046188 
0.052854 
0.051531 
0.052854 
0.052854 
0.051531 
0.050859 
0.052854 
0.047395 
0.052854 
0.052854 
0.051434 
0.045995 
0.052854 
0.051281 
0.051530 
0.046441 
0.052854 
0.052854 
0.050612 
0.049065 
0.052975 
0.049197 
0.049245 
0.052975 
0.052990 
0.055938 
0.049713 
0.052094 
0.055938 
0.050456 
0.055938 
0.053198 
0.052878 
0.049051 
0.052807 
0.049481 
0.052974 
0.049465 
0.049257 
0.055938 
0.105225 
0.104629 
0.082126 
0.094264 
0.094771 
0.094259 
0.094771 
0.083366 
0.104047 
0.083092 
0.081316 
0.081315 
0.092719 
0.079469 
0.108073 
0.092710 
0.108073 
0.093129 
0.104035 
0.094961 
0.104398 
0.081316 
0.125285 
0.099128 
0.098320 
0.087841 
0.082650 
0.097481 
0.086914 
0.081921 
0.086680 
0.086680 
0.081485 
0.107769 
0.088711 
0.084874 
0.107874 
0.082612 
0.095190 
0.095229 
0.083942 
0.085089 
0.079923 
0.081132 
0.095301 
0.097917 
0.090576 
0.085268 
0.095896 
0.081062 
0.095454 
0.090083 
0.081027 
0.085251 
0.101961 
0.083022 
0.095445 
0.080604 
0.081018 
0.085240 
0.097826 
0.090495 
0.095435 
0.095845 
0.081023 
0.085241 
0.090072 
0.081024 
0.095436 
0.101966 
0.083028 
0.085242 
0.080610 
0.081024 
0.095437 
0.082345 
0.082694 
0.085242 
0.109264 
0.089885 
0.095437 
0.108636 
0.083028 
0.085242 
0.080610 
0.074817 
0.073569 
0.082490 
0.095437 
0.095617 
0.133784 
0.138292 
0.139667 
0.139695 
0.139694 
0.139689 
0.139693 
0.140105 
0.139774 
0.086622 
0.086622 
0.089038 
0.077179 
0.079159 
0.072465 
0.084345 
0.092656 
0.093083 
0.084037 
0.098826 
0.101847 
0.085968 
0.086444 
0.074619 
0.064825 
0.094138 
0.124406 
0.086607 
0.131576 
0.102571 
0.084703 
0.076503 
0.084191 
0.084191 
0.086793 
0.075696 
0.084714 
0.090949 
0.084009 
0.076569 
0.086383 
0.098391 
0.110757 
0.093222 
0.143196 
0.101090 
0.091038 
0.150913 
0.178131 
0.206980 
SCALARS MASS float 
LOOKUP_TABLE default 
0.051252 
0.046008 
0.051531 
0.046188 
0.052854 
0.051531 
0.052854 
0.052854 
0.051531 
0.050859 
0.052854 
0.047395 
0.052854 
0.052854 
0.051434 
0.045995 
0.052854 
0.051281 
0.051530 
0.046441 
0.052854 
0.052854 
0.050612 
0.049065 
0.052975 
0.049197 
0.049245 
0.052975 
0.052990 
0.055938 
0.049713 
0.052094 
0.055938 
0.050456 
0.055938 
0.053198 
0.052878 
0.049051 
0.052807 
0.049481 
0.052974 
0.049465 
0.049257 
0.055938 
0.105225 
0.104629 
0.082126 
0.094264 
0.094771 
0.094259 
0.094771 
0.083366 
0.104047 
0.083092 
0.081316 
0.081315 
0.092719 
0.079469 
0.108073 
0.092710 
0.108073 
0.093129 
0.104035 
0.094961 
0.104398 
0.081316 
0.125285 
0.099128 
0.098320 
0.087841 
0.082650 
0.097481 
0.086914 
0.081921 
0.086680 
0.086680 
0.081485 
0.107769 
0.088711 
0.084874 
0.107874 
0.082612 
0.095190 
0.095229 
0.083942 
0.085089 
0.079923 
0.081132 
0.095301 
0.097917 
0.090576 
0.085268 
0.095896 
0.081062 
0.095454 
0.090083 
0.081027 
0.085251 
0.101961 
0.083022 
0.095445 
0.080604 
0.081018 
0.085240 
0.097826 
0.090495 
0.095435 
0.095845 
0.081023 
0.085241 
0.090072 
0.081024 
0.095436 
0.101966 
0.083028 
0.085242 
0.080610 
0.081024 
0.095437 
0.082345 
0.082694 
0.085242 
0.109264 
0.089885 
0.095437 
0.108636 
0.083028 
0.085242 
0.080610 
0.074817 
0.073569 
0.082490 
0.095437 
0.095617 
0.133784 
0.138292 
0.139667 
0.139695 
0.139694 
0.139689 
0.139693 
0.140105 
0.139774 
0.086622 
0.086622 
0.089038 
0.077179 
0.079159 
0.072465 
0.084345 
0.092656 
0.093083 
0.084037 
0.098826 
0.101847 
0.085968 
0.086444 
0.074619 
0.064825 
0.094138 
0.124406 
0.086607 
0.131576 
0.102571 
0.084703 
0.076503 
0.084191 
0.084191 
0.086793 
0.075696 
0.084714 
0.090949 
0.084009 
0.076569 
0.086383 
0.098391 
0.110757 
0.093222 
0.143196 
0.101090 
0.091038 
0.150913 
0.178131 
0.206980 
SCALARS DENSITY float 
LOOKUP_TABLE default 
20.000000 
20.000000 
20.000000 
20.000000 
20.000000 
20.000000 
20.000000 
20.000000 
20.000000 
20.000000 
20.000000 
20.000000 
20.000000 
20.000000 
20.000000 
20.000000 
20.000000 
20.000000 
20.000000 
20.000000 
20.000000 
20.000000 
20.000000 
20.000000 
20.000000 
20.000000 
20.000000 
20.000000 
20.000000 
20.000000 
20.000000 
20.000000 
20.000000 
20.000000 
20.000000 
20.000000 
20.000000 
20.000000 
20.000000 
20.000000 
20.000000 
20.000000 
20.000000 
20.000000 
20.000000 
20.000000 
20.000000 
20.000000 
20.000000 
20.000000 
20.000000 
20.000000 
20.000000 
20.000000 
20.000000 
20.000000 
20.000000 
20.000000 
20.000000 
20.000000 
20.000000 
20.000000 
20.000000 
20.000000 
20.000000 
20.000000 
20.000000 
20.000000 
20.000000 
20.000000 
20.000000 
20.000000 
20.000000 
20.000000 
20.000000 
20.000000 
20.000000 
20.000000 
20.000000 
20.000000 
20.000000 
20.000000 
20.000000 
20.000000 
20.000000 
20.000000 
20.000000 
20.000000 
20.000000 
20.000000 
20.000000 
20.000000 
20.000000 
20.000000 
20.000000 
20.000000 
20.000000 
20.000000 
20.000000 
20.000000 
20.000000 
20.000000 
20.000000 
20.000000 
20.000000 
20.000000 
20.000000 
20.000000 
20.000000 
20.000000 
20.000000 
20.000000 
20.000000 
20.000000 
20.000000 
20.000000 
20.000000 
20.000000 
20.000000 
20.000000 
20.000000 
20.000000 
20.000000 
20.000000 
20.000000 
20.000000 
20.000000 
20.000000 
20.000000 
20.000000 
20.000000 
20.000000 
20.000000 
20.000000 
20.000000 
20.000000 
20.000000 
20.000000 
20.000000 
20.000000 
20.000000 
20.000000 
20.000000 
20.000000 
20.000000 
20.000000 
20.000000 
20.000000 
20.000000 
20.000000 
20.000000 
20.000000 
20.000000 
20.000000 
20.000000 
20.000000 
20.000000 
20.000000 
20.000000 
20.000000 
20.000000 
20.000000 
20.000000 
20.000000 
20.000000 
20.000000 
20.000000 
20.000000 
20.000000 
20.000000 
20.000000 
20.000000 
20.000000 
20.000000 
20.000000 
20.000000 
20.000000 
20.000000 
20.000000 
20.000000 
20.000000 
20.000000 
20.000000 
20.000000 
SCALARS ELEM_i float 
LOOKUP_TABLE default 
206 
223 
164 
225 
183 
186 
206 
203 
165 
224 
164 
206 
203 
165 
225 
183 
186 
225 
183 
166 
224 
164 
206 
223 
165 
225 
183 
186 
226 
203 
165 
224 
164 
206 
203 
165 
224 
163 
186 
225 
183 
166 
223 
164 
206 
165 
186 
183 
203 
224 
164 
226 
225 
165 
186 
183 
203 
224 
164 
163 
203 
206 
225 
224 
186 
165 
206 
206 
206 
205 
205 
205 
205 
205 
205 
206 
205 
225 
225 
205 
225 
225 
205 
224 
224 
225 
224 
224 
224 
224 
204 
204 
203 
203 
204 
203 
203 
204 
203 
183 
203 
183 
183 
183 
183 
183 
183 
184 
184 
184 
164 
164 
184 
164 
164 
184 
165 
165 
164 
165 
165 
165 
165 
185 
185 
186 
186 
185 
186 
186 
186 
206 
185 
186 
205 
205 
204 
184 
184 
184 
185 
204 
204 
205 
185 
205 
205 
205 
205 
205 
204 
205 
204 
205 
204 
204 
204 
204 
204 
204 
205 
185 
185 
204 
185 
185 
184 
185 
184 
184 
184 
184 
184 
184 
184 
184 
185 
185 
184 
185 
185 
185 
204 
184 
VECTORS VELOCITY float 
-0.000000 -5.434740 0.000000 
-0.000000 -5.434740 0.000000 
-0.000000 -5.434740 0.000000 
-0.000000 -5.434740 0.000000 
0.000000 -5.434740 0.000000 
0.000000 -5.434740 0.000000 
0.000000 -5.434740 0.000000 
-0.000000 -5.434740 0.000000 
-0.000000 -5.434740 0.000000 
0.000000 -5.434740 0.000000 
0.000000 -5.434740 0.000000 
-0.000000 -5.434740 0.000000 
-0.000000 -5.434740 0.000000 
0.000000 -5.434740 0.000000 
0.000000 -5.434740 0.000000 
0.000000 -5.434740 0.000000 
0.000000 -5.434740 0.000000 
-0.000000 -5.434740 0.000000 
-0.000000 -5.434740 0.000000 
0.000000 -5.434740 0.000000 
0.000000 -5.434740 0.000000 
-0.000000 -5.434740 0.000000 
-0.000000 -5.434740 0.000000 
-0.000000 -5.434740 0.000000 
-0.000000 -5.434740 0.000000 
-0.000000 -5.434740 0.000000 
0.000000 -5.434740 0.000000 
0.000000 -5.434740 0.000000 
-0.000000 -5.434740 0.000000 
-0.000000 -5.434740 0.000000 
0.000000 -5.434740 0.000000 
0.000000 -5.434740 0.000000 
-0.000000 -5.434740 0.000000 
-0.000000 -5.434740 0.000000 
-0.000000 -5.434740 0.000000 
0.000000 -5.434740 0.000000 
0.000000 -5.434740 0.000000 
0.000000 -5.434740 0.000000 
0.000000 -5.434740 0.000000 
-0.000000 -5.434740 0.000000 
-0.000000 -5.434740 0.000000 
-0.000000 -5.434740 0.000000 
0.000000 -5.434740 0.000000 
-0.000000 -5.434740 0.000000 
-0.000000 -5.434740 0.000000 
-0.000000 -5.434740 0.000000 
0.000000 -5.434740 0.000000 
0.000000 -5.434740 0.000000 
-0.000000 -5.434740 0.000000 
0.000000 -5.434740 0.000000 
0.000000 -5.434740 0.000000 
0.000000 -5.434740 0.000000 
0.000000 -5.434740 0.000000 
-0.000000 -5.434740 0.000000 
-0.000000 -5.434740 0.000000 
0.000000 -5.434740 0.000000 
-0.000000 -5.434740 0.000000 
0.000000 -5.434740 0.000000 
-0.000000 -5.434740 0.000000 
0.000000 -5.434740 0.000000 
-0.000000 -5.434740 0.000000 
0.000000 -5.434740 0.000000 
0.000000 -5.434740 0.000000 
0.000000 -5.434740 0.000000 
-0.000000 -5.434740 0.000000 
-0.000000 -5.434740 0.000000 
-0.000000 -5.434740 0.000000 
0.000000 -5.434740 0.000000 
0.000000 -5.434740 0.000000 
0.000000 -5.434740 0.000000 
0.000000 -5.434740 0.000000 
0.000000 -5.434740 0.000000 
0.000000 -5.434740 0.000000 
0.000000 -5.434740 0.000000 
0.000000 -5.434740 0.000000 
-0.000000 -5.434740 0.000000 
0.000000 -5.434740 0.000000 
-0.000000 -5.434740 0.000000 
-0.000000 -5.434740 0.000000 
-0.000000 -5.434740 0.000000 
0.000000 -5.434740 0.000000 
0.000000 -5.434740 0.000000 
0.000000 -5.434740 0.000000 
0.000000 -5.434740 0.000000 
0.000000 -5.434740 0.000000 
0.000000 -5.434740 0.000000 
0.000000 -5.434740 0.000000 
0.000000 -5.434740 0.000000 
0.000000 -5.434740 0.000000 
-0.000000 -5.434740 0.000000 
-0.000000 -5.434740 0.000000 
0.000000 -5.434740 0.000000 
-0.000000 -5.434740 0.000000 
-0.000000 -5.434740 0.000000 
0.000000 -5.434740 0.000000 
-0.000000 -5.434740 0.000000 
-0.000000 -5.434740 0.000000 
-0.000000 -5.434740 0.000000 
-0.000000 -5.434740 0.000000 
-0.000000 -5.434740 0.000000 
-0.000000 -5.434740 0.000000 
-0.000000 -5.434740 0.000000 
0.000000 -5.434740 0.000000 
0.000000 -5.434740 0.000000 
0.000000 -5.434740 0.000000 
0.000000 -5.434740 0.000000 
0.000000 -5.434740 0.000000 
0.000000 -5.434740 0.000000 
0.000000 -5.434740 0.000000 
0.000000 -5.434740 0.000000 
-0.000000 -5.434740 0.000000 
-0.000000 -5.434740 0.000000 
0.000000 -5.434740 0.000000 
-0.000000 -5.434740 0.000000 
-0.000000 -5.434740 0.000000 
-0.000000 -5.434740 0.000000 
-0.000000 -5.434740 0.000000 
-0.000000 -5.434740 0.000000 
-0.000000 -5.434740 0.000000 
-0.000000 -5.434740 0.000000 
-0.000000 -5.434740 0.000000 
-0.000000 -5.434740 0.000000 
-0.000000 -5.434740 0.000000 
-0.000000 -5.434740 0.000000 
-0.000000 -5.434740 0.000000 
-0.000000 -5.434740 0.000000 
-0.000000 -5.434740 0.000000 
-0.000000 -5.434740 0.000000 
-0.000000 -5.434740 0.000000 
-0.000000 -5.434740 0.000000 
-0.000000 -5.434740 0.000000 
-0.000000 -5.434740 0.000000 
-0.000000 -5.434740 0.000000 
-0.000000 -5.434740 0.000000 
0.000000 -5.434740 0.000000 
0.000000 -5.434740 0.000000 
-0.000000 -5.434740 0.000000 
-0.000000 -5.434740 0.000000 
-0.000000 -5.434740 0.000000 
0.000000 -5.434740 0.000000 
-0.000000 -5.434740 0.000000 
0.000000 -5.434740 0.000000 
-0.000000 -5.434740 0.000000 
0.000000 -5.434740 0.000000 
0.000000 -5.434740 0.000000 
0.000000 -5.434740 0.000000 
0.000000 -5.434740 0.000000 
0.000000 -5.434740 0.000000 
0.000000 -5.434740 0.000000 
0.000000 -5.434740 0.000000 
0.000000 -5.434740 0.000000 
0.000000 -5.434740 0.000000 
0.000000 -5.434740 0.000000 
0.000000 -5.434740 0.000000 
-0.000000 -5.434740 0.000000 
0.000000 -5.434740 0.000000 
0.000000 -5.434740 0.000000 
0.000000 -5.434740 0.000000 
0.000000 -5.434740 0.000000 
-0.000000 -5.434740 0.000000 
0.000000 -5.434740 0.000000 
0.000000 -5.434740 0.000000 
-0.000000 -5.434740 0.000000 
-0.000000 -5.434740 0.000000 
0.000000 -5.434740 0.000000 
0.000000 -5.434740 0.000000 
-0.000000 -5.434740 0.000000 
0.000000 -5.434740 0.000000 
-0.000000 -5.434740 0.000000 
-0.000000 -5.434740 0.000000 
-0.000000 -5.434740 0.000000 