# vtk DataFile Version 3.0 
vtk output 
ASCII 
DATASET UNSTRUCTURED_GRID 
POINTS 175 float 
-0.026061 -0.925942 0.000000 
-0.106992 -0.857886 0.000000 
-0.054870 -0.866119 0.000000 
-0.028809 -0.820235 0.000000 
-0.186430 -0.793811 0.000000 
-0.137056 -0.796337 0.000000 
-0.114311 -0.742690 0.000000 
-0.058186 -0.758355 0.000000 
-0.029377 -0.718178 0.000000 
-0.265318 -0.730655 0.000000 
-0.217198 -0.731455 0.000000 
-0.196633 -0.674158 0.000000 
-0.143120 -0.682867 0.000000 
-0.116563 -0.635599 0.000000 
-0.058945 -0.655244 0.000000 
-0.029568 -0.617124 0.000000 
-0.344206 -0.667499 0.000000 
-0.296791 -0.667492 0.000000 
-0.278030 -0.607549 0.000000 
-0.225992 -0.613416 0.000000 
-0.201664 -0.561299 0.000000 
-0.145749 -0.574773 0.000000 
-0.117890 -0.530430 0.000000 
-0.059328 -0.553136 0.000000 
-0.029759 -0.516070 0.000000 
-0.058559 -0.966693 0.000000 
-0.162226 -0.987535 0.000000 
-0.123292 -0.951918 0.000000 
-0.142917 -0.902934 0.000000 
-0.261851 -1.009692 0.000000 
-0.229092 -0.972665 0.000000 
-0.256854 -0.921433 0.000000 
-0.209613 -0.887320 0.000000 
-0.223062 -0.839747 0.000000 
-0.360414 -1.031992 0.000000 
-0.329787 -0.994869 0.000000 
-0.361761 -0.943067 0.000000 
-0.321587 -0.906658 0.000000 
-0.341985 -0.856424 0.000000 
-0.290702 -0.823625 0.000000 
-0.302189 -0.776890 0.000000 
-0.458977 -1.054292 0.000000 
-0.429420 -1.017217 0.000000 
-0.464588 -0.965176 0.000000 
-0.427556 -0.928148 0.000000 
-0.453135 -0.876633 0.000000 
-0.407738 -0.841318 0.000000 
-0.425037 -0.791890 0.000000 
-0.370772 -0.760261 0.000000 
-0.381315 -0.714033 0.000000 
-0.046960 -1.017508 0.000000 
-0.095301 -1.111554 0.000000 
-0.098873 -1.058907 0.000000 
-0.149405 -1.043709 0.000000 
-0.140093 -1.203258 0.000000 
-0.148617 -1.154560 0.000000 
-0.205981 -1.144322 0.000000 
-0.203197 -1.086119 0.000000 
-0.248777 -1.066972 0.000000 
-0.184111 -1.294221 0.000000 
-0.194039 -1.247130 0.000000 
-0.254475 -1.239831 0.000000 
-0.257893 -1.185721 0.000000 
-0.309886 -1.170349 0.000000 
-0.303554 -1.109803 0.000000 
-0.347255 -1.089646 0.000000 
-0.228129 -1.385185 0.000000 
-0.238687 -1.338961 0.000000 
-0.301302 -1.334009 0.000000 
-0.307162 -1.281970 0.000000 
-0.363386 -1.269849 0.000000 
-0.362692 -1.212337 0.000000 
-0.412122 -1.195044 0.000000 
-0.403017 -1.132898 0.000000 
-0.445733 -1.112319 0.000000 
-0.000000 -1.040123 0.000000 
0.043388 -1.136553 0.000000 
-0.000000 -1.106521 0.000000 
-0.043388 -1.136553 0.000000 
0.087158 -1.228750 0.000000 
0.043769 -1.205051 0.000000 
-0.000000 -1.243517 0.000000 
-0.043769 -1.205051 0.000000 
-0.087158 -1.228750 0.000000 
0.130831 -1.319880 0.000000 
0.087824 -1.298281 0.000000 
0.044436 -1.340981 0.000000 
-0.000000 -1.309916 0.000000 
-0.044436 -1.340981 0.000000 
-0.087824 -1.298281 0.000000 
-0.130831 -1.319880 0.000000 
0.174505 -1.411009 0.000000 
0.131782 -1.390443 0.000000 
0.088871 -1.436310 0.000000 
0.044532 -1.408446 0.000000 
-0.000000 -1.444846 0.000000 
-0.044532 -1.408446 0.000000 
-0.088871 -1.436310 0.000000 
-0.131782 -1.390443 0.000000 
-0.174505 -1.411009 0.000000 
0.046960 -1.017508 0.000000 
0.149405 -1.043709 0.000000 
0.098873 -1.058907 0.000000 
0.095301 -1.111554 0.000000 
0.248777 -1.066972 0.000000 
0.203197 -1.086119 0.000000 
0.205981 -1.144322 0.000000 
0.148617 -1.154560 0.000000 
0.140093 -1.203258 0.000000 
0.347255 -1.089646 0.000000 
0.303554 -1.109803 0.000000 
0.309886 -1.170349 0.000000 
0.257893 -1.185721 0.000000 
0.254475 -1.239831 0.000000 
0.194039 -1.247130 0.000000 
0.184111 -1.294221 0.000000 
0.445733 -1.112319 0.000000 
0.403017 -1.132898 0.000000 
0.412122 -1.195044 0.000000 
0.362692 -1.212337 0.000000 
0.363386 -1.269849 0.000000 
0.307162 -1.281970 0.000000 
0.301302 -1.334009 0.000000 
0.238687 -1.338961 0.000000 
0.228129 -1.385185 0.000000 
0.058559 -0.966693 0.000000 
0.142917 -0.902934 0.000000 
0.123292 -0.951918 0.000000 
0.162226 -0.987535 0.000000 
0.223062 -0.839747 0.000000 
0.209613 -0.887320 0.000000 
0.256854 -0.921433 0.000000 
0.229092 -0.972665 0.000000 
0.261851 -1.009692 0.000000 
0.302189 -0.776890 0.000000 
0.290702 -0.823625 0.000000 
0.341985 -0.856424 0.000000 
0.321587 -0.906658 0.000000 
0.361761 -0.943067 0.000000 
0.329787 -0.994869 0.000000 
0.360414 -1.031992 0.000000 
0.381315 -0.714033 0.000000 
0.370772 -0.760261 0.000000 
0.425037 -0.791890 0.000000 
0.407738 -0.841318 0.000000 
0.453135 -0.876633 0.000000 
0.427556 -0.928148 0.000000 
0.464588 -0.965176 0.000000 
0.429420 -1.017217 0.000000 
0.458977 -1.054292 0.000000 
0.026061 -0.925942 0.000000 
0.028809 -0.820235 0.000000 
0.054870 -0.866119 0.000000 
0.106992 -0.857886 0.000000 
0.029377 -0.718178 0.000000 
0.058186 -0.758355 0.000000 
0.114311 -0.742690 0.000000 
0.137056 -0.796337 0.000000 
0.186430 -0.793811 0.000000 
0.029568 -0.617124 0.000000 
0.058945 -0.655244 0.000000 
0.116563 -0.635599 0.000000 
0.143120 -0.682867 0.000000 
0.196633 -0.674158 0.000000 
0.217198 -0.731455 0.000000 
0.265318 -0.730655 0.000000 
0.029759 -0.516070 0.000000 
0.059328 -0.553136 0.000000 
0.117890 -0.530430 0.000000 
0.145749 -0.574773 0.000000 
0.201664 -0.561299 0.000000 
0.225992 -0.613416 0.000000 
0.278030 -0.607549 0.000000 
0.296791 -0.667492 0.000000 
0.344206 -0.667499 0.000000 
CELLS 175 350 
1 0 
1 1 
1 2 
1 3 
1 4 
1 5 
1 6 
1 7 
1 8 
1 9 
1 10 
1 11 
1 12 
1 13 
1 14 
1 15 
1 16 
1 17 
1 18 
1 19 
1 20 
1 21 
1 22 
1 23 
1 24 
1 25 
1 26 
1 27 
1 28 
1 29 
1 30 
1 31 
1 32 
1 33 
1 34 
1 35 
1 36 
1 37 
1 38 
1 39 
1 40 
1 41 
1 42 
1 43 
1 44 
1 45 
1 46 
1 47 
1 48 
1 49 
1 50 
1 51 
1 52 
1 53 
1 54 
1 55 
1 56 
1 57 
1 58 
1 59 
1 60 
1 61 
1 62 
1 63 
1 64 
1 65 
1 66 
1 67 
1 68 
1 69 
1 70 
1 71 
1 72 
1 73 
1 74 
1 75 
1 76 
1 77 
1 78 
1 79 
1 80 
1 81 
1 82 
1 83 
1 84 
1 85 
1 86 
1 87 
1 88 
1 89 
1 90 
1 91 
1 92 
1 93 
1 94 
1 95 
1 96 
1 97 
1 98 
1 99 
1 100 
1 101 
1 102 
1 103 
1 104 
1 105 
1 106 
1 107 
1 108 
1 109 
1 110 
1 111 
1 112 
1 113 
1 114 
1 115 
1 116 
1 117 
1 118 
1 119 
1 120 
1 121 
1 122 
1 123 
1 124 
1 125 
1 126 
1 127 
1 128 
1 129 
1 130 
1 131 
1 132 
1 133 
1 134 
1 135 
1 136 
1 137 
1 138 
1 139 
1 140 
1 141 
1 142 
1 143 
1 144 
1 145 
1 146 
1 147 
1 148 
1 149 
1 150 
1 151 
1 152 
1 153 
1 154 
1 155 
1 156 
1 157 
1 158 
1 159 
1 160 
1 161 
1 162 
1 163 
1 164 
1 165 
1 166 
1 167 
1 168 
1 169 
1 170 
1 171 
1 172 
1 173 
1 174 
CELL_TYPES 175 
1 
1 
1 
1 
1 
1 
1 
1 
1 
1 
1 
1 
1 
1 
1 
1 
1 
1 
1 
1 
1 
1 
1 
1 
1 
1 
1 
1 
1 
1 
1 
1 
1 
1 
1 
1 
1 
1 
1 
1 
1 
1 
1 
1 
1 
1 
1 
1 
1 
1 
1 
1 
1 
1 
1 
1 
1 
1 
1 
1 
1 
1 
1 
1 
1 
1 
1 
1 
1 
1 
1 
1 
1 
1 
1 
1 
1 
1 
1 
1 
1 
1 
1 
1 
1 
1 
1 
1 
1 
1 
1 
1 
1 
1 
1 
1 
1 
1 
1 
1 
1 
1 
1 
1 
1 
1 
1 
1 
1 
1 
1 
1 
1 
1 
1 
1 
1 
1 
1 
1 
1 
1 
1 
1 
1 
1 
1 
1 
1 
1 
1 
1 
1 
1 
1 
1 
1 
1 
1 
1 
1 
1 
1 
1 
1 
1 
1 
1 
1 
1 
1 
1 
1 
1 
1 
1 
1 
1 
1 
1 
1 
1 
1 
1 
1 
1 
1 
1 
1 
1 
1 
1 
1 
1 
1 
POINT_DATA 175 
VECTORS X_GC float 
-0.026061 -0.925942 0.000000 
-0.106992 -0.857886 0.000000 
-0.054870 -0.866119 0.000000 
-0.028809 -0.820235 0.000000 
-0.186430 -0.793811 0.000000 
-0.137056 -0.796337 0.000000 
-0.114311 -0.742690 0.000000 
-0.058186 -0.758355 0.000000 
-0.029377 -0.718178 0.000000 
-0.265318 -0.730655 0.000000 
-0.217198 -0.731455 0.000000 
-0.196633 -0.674158 0.000000 
-0.143120 -0.682867 0.000000 
-0.116563 -0.635599 0.000000 
-0.058945 -0.655244 0.000000 
-0.029568 -0.617124 0.000000 
-0.344206 -0.667499 0.000000 
-0.296791 -0.667492 0.000000 
-0.278030 -0.607549 0.000000 
-0.225992 -0.613416 0.000000 
-0.201664 -0.561299 0.000000 
-0.145749 -0.574773 0.000000 
-0.117890 -0.530430 0.000000 
-0.059328 -0.553136 0.000000 
-0.029759 -0.516070 0.000000 
-0.058559 -0.966693 0.000000 
-0.162226 -0.987535 0.000000 
-0.123292 -0.951918 0.000000 
-0.142917 -0.902934 0.000000 
-0.261851 -1.009692 0.000000 
-0.229092 -0.972665 0.000000 
-0.256854 -0.921433 0.000000 
-0.209613 -0.887320 0.000000 
-0.223062 -0.839747 0.000000 
-0.360414 -1.031992 0.000000 
-0.329787 -0.994869 0.000000 
-0.361761 -0.943067 0.000000 
-0.321587 -0.906658 0.000000 
-0.341985 -0.856424 0.000000 
-0.290702 -0.823625 0.000000 
-0.302189 -0.776890 0.000000 
-0.458977 -1.054292 0.000000 
-0.429420 -1.017217 0.000000 
-0.464588 -0.965176 0.000000 
-0.427556 -0.928148 0.000000 
-0.453135 -0.876633 0.000000 
-0.407738 -0.841318 0.000000 
-0.425037 -0.791890 0.000000 
-0.370772 -0.760261 0.000000 
-0.381315 -0.714033 0.000000 
-0.046960 -1.017508 0.000000 
-0.095301 -1.111554 0.000000 
-0.098873 -1.058907 0.000000 
-0.149405 -1.043709 0.000000 
-0.140093 -1.203258 0.000000 
-0.148617 -1.154560 0.000000 
-0.205981 -1.144322 0.000000 
-0.203197 -1.086119 0.000000 
-0.248777 -1.066972 0.000000 
-0.184111 -1.294221 0.000000 
-0.194039 -1.247130 0.000000 
-0.254475 -1.239831 0.000000 
-0.257893 -1.185721 0.000000 
-0.309886 -1.170349 0.000000 
-0.303554 -1.109803 0.000000 
-0.347255 -1.089646 0.000000 
-0.228129 -1.385185 0.000000 
-0.238687 -1.338961 0.000000 
-0.301302 -1.334009 0.000000 
-0.307162 -1.281970 0.000000 
-0.363386 -1.269849 0.000000 
-0.362692 -1.212337 0.000000 
-0.412122 -1.195044 0.000000 
-0.403017 -1.132898 0.000000 
-0.445733 -1.112319 0.000000 
-0.000000 -1.040123 0.000000 
0.043388 -1.136553 0.000000 
-0.000000 -1.106521 0.000000 
-0.043388 -1.136553 0.000000 
0.087158 -1.228750 0.000000 
0.043769 -1.205051 0.000000 
-0.000000 -1.243517 0.000000 
-0.043769 -1.205051 0.000000 
-0.087158 -1.228750 0.000000 
0.130831 -1.319880 0.000000 
0.087824 -1.298281 0.000000 
0.044436 -1.340981 0.000000 
-0.000000 -1.309916 0.000000 
-0.044436 -1.340981 0.000000 
-0.087824 -1.298281 0.000000 
-0.130831 -1.319880 0.000000 
0.174505 -1.411009 0.000000 
0.131782 -1.390443 0.000000 
0.088871 -1.436310 0.000000 
0.044532 -1.408446 0.000000 
-0.000000 -1.444846 0.000000 
-0.044532 -1.408446 0.000000 
-0.088871 -1.436310 0.000000 
-0.131782 -1.390443 0.000000 
-0.174505 -1.411009 0.000000 
0.046960 -1.017508 0.000000 
0.149405 -1.043709 0.000000 
0.098873 -1.058907 0.000000 
0.095301 -1.111554 0.000000 
0.248777 -1.066972 0.000000 
0.203197 -1.086119 0.000000 
0.205981 -1.144322 0.000000 
0.148617 -1.154560 0.000000 
0.140093 -1.203258 0.000000 
0.347255 -1.089646 0.000000 
0.303554 -1.109803 0.000000 
0.309886 -1.170349 0.000000 
0.257893 -1.185721 0.000000 
0.254475 -1.239831 0.000000 
0.194039 -1.247130 0.000000 
0.184111 -1.294221 0.000000 
0.445733 -1.112319 0.000000 
0.403017 -1.132898 0.000000 
0.412122 -1.195044 0.000000 
0.362692 -1.212337 0.000000 
0.363386 -1.269849 0.000000 
0.307162 -1.281970 0.000000 
0.301302 -1.334009 0.000000 
0.238687 -1.338961 0.000000 
0.228129 -1.385185 0.000000 
0.058559 -0.966693 0.000000 
0.142917 -0.902934 0.000000 
0.123292 -0.951918 0.000000 
0.162226 -0.987535 0.000000 
0.223062 -0.839747 0.000000 
0.209613 -0.887320 0.000000 
0.256854 -0.921433 0.000000 
0.229092 -0.972665 0.000000 
0.261851 -1.009692 0.000000 
0.302189 -0.776890 0.000000 
0.290702 -0.823625 0.000000 
0.341985 -0.856424 0.000000 
0.321587 -0.906658 0.000000 
0.361761 -0.943067 0.000000 
0.329787 -0.994869 0.000000 
0.360414 -1.031992 0.000000 
0.381315 -0.714033 0.000000 
0.370772 -0.760261 0.000000 
0.425037 -0.791890 0.000000 
0.407738 -0.841318 0.000000 
0.453135 -0.876633 0.000000 
0.427556 -0.928148 0.000000 
0.464588 -0.965176 0.000000 
0.429420 -1.017217 0.000000 
0.458977 -1.054292 0.000000 
0.026061 -0.925942 0.000000 
0.028809 -0.820235 0.000000 
0.054870 -0.866119 0.000000 
0.106992 -0.857886 0.000000 
0.029377 -0.718178 0.000000 
0.058186 -0.758355 0.000000 
0.114311 -0.742690 0.000000 
0.137056 -0.796337 0.000000 
0.186430 -0.793811 0.000000 
0.029568 -0.617124 0.000000 
0.058945 -0.655244 0.000000 
0.116563 -0.635599 0.000000 
0.143120 -0.682867 0.000000 
0.196633 -0.674158 0.000000 
0.217198 -0.731455 0.000000 
0.265318 -0.730655 0.000000 
0.029759 -0.516070 0.000000 
0.059328 -0.553136 0.000000 
0.117890 -0.530430 0.000000 
0.145749 -0.574773 0.000000 
0.201664 -0.561299 0.000000 
0.225992 -0.613416 0.000000 
0.278030 -0.607549 0.000000 
0.296791 -0.667492 0.000000 
0.344206 -0.667499 0.000000 
VECTORS X_EC float 
0.338794 -0.999784 0.000000 
-0.609100 0.081467 0.000000 
0.713312 0.192608 0.000000 
0.374519 -0.426821 0.000000 
0.423588 -0.783552 0.000000 
-0.218274 -0.749448 0.000000 
-0.513962 0.526313 0.000000 
0.756418 0.737799 0.000000 
0.381900 0.195407 0.000000 
-0.550868 0.363845 0.000000 
0.823577 0.374640 0.000000 
0.556234 -0.398864 0.000000 
-0.139443 -0.281295 0.000000 
-0.484677 -0.919419 0.000000 
0.766286 -0.654204 0.000000 
0.384386 0.831176 0.000000 
0.474677 -0.488758 0.000000 
-0.141715 -0.488855 0.000000 
-0.385608 0.701917 0.000000 
0.937896 0.781113 0.000000 
0.621631 0.077533 0.000000 
-0.105264 0.259432 0.000000 
-0.467428 -0.339194 0.000000 
0.771260 -0.032666 0.000000 
0.386873 -0.533055 0.000000 
0.761262 -0.449650 0.000000 
0.108942 -0.168273 0.000000 
-0.397202 -0.649112 0.000000 
-0.142083 0.689612 0.000000 
-0.595936 0.130838 0.000000 
0.978194 -0.369028 0.000000 
-0.660903 0.939347 0.000000 
0.724964 0.478827 0.000000 
0.899809 -0.163422 0.000000 
0.685384 0.431890 0.000000 
0.287229 -0.069269 0.000000 
0.702895 -0.768597 0.000000 
0.180633 0.739884 0.000000 
0.445811 0.061724 0.000000 
-0.220880 -0.381062 0.000000 
-0.071546 0.988013 0.000000 
-0.033296 0.732942 0.000000 
-0.417537 0.232432 0.000000 
0.039645 -0.470130 0.000000 
-0.441768 -0.970001 0.000000 
-0.109248 0.334548 0.000000 
-0.699407 -0.142208 0.000000 
-0.474522 -0.809487 0.000000 
0.820030 0.763520 0.000000 
0.957100 0.139448 0.000000 
0.610485 0.236357 0.000000 
-0.761092 -0.494024 0.000000 
-0.714655 0.795239 0.000000 
-0.057734 0.590071 0.000000 
-0.178789 0.743980 0.000000 
-0.067979 0.086554 0.000000 
0.677748 -0.051649 0.000000 
0.641556 -0.837394 0.000000 
-0.765897 0.904127 0.000000 
0.393446 -0.028011 0.000000 
0.522510 -0.663741 0.000000 
-0.691820 -0.762285 0.000000 
-0.647393 0.507233 0.000000 
0.028512 0.299706 0.000000 
-0.053800 -0.517654 0.000000 
0.514316 -0.789785 0.000000 
0.965681 -0.800002 0.000000 
-0.897068 0.575970 0.000000 
-0.083078 0.509117 0.000000 
-0.006893 -0.193408 0.000000 
0.724017 -0.357041 0.000000 
0.714996 0.866556 0.000000 
-0.642413 0.633098 0.000000 
-0.760780 -0.205882 0.000000 
-0.205471 -0.483698 0.000000 
0.000000 0.541658 0.000000 
-0.564049 -0.156529 0.000000 
0.000000 -0.561965 0.000000 
0.564049 -0.156529 0.000000 
0.866949 -0.911874 0.000000 
-0.569003 0.768195 0.000000 
0.000000 -0.712517 0.000000 
0.569003 0.768195 0.000000 
-0.866949 -0.911874 0.000000 
0.299194 0.318376 0.000000 
0.858290 0.026793 0.000000 
-0.577662 0.603238 0.000000 
0.000000 0.183860 0.000000 
0.577662 0.603238 0.000000 
-0.858290 0.026793 0.000000 
-0.299194 0.318376 0.000000 
-0.268560 -0.451373 0.000000 
0.286830 -0.729015 0.000000 
0.844677 -0.109817 0.000000 
-0.578910 -0.485980 0.000000 
0.000000 0.005424 0.000000 
0.578910 -0.485980 0.000000 
-0.844677 -0.109817 0.000000 
-0.286830 -0.729015 0.000000 
0.268560 -0.451373 0.000000 
-0.610485 0.236357 0.000000 
0.057734 0.590071 0.000000 
0.714655 0.795239 0.000000 
0.761092 -0.494024 0.000000 
0.765897 0.904127 0.000000 
-0.641556 -0.837394 0.000000 
-0.677748 -0.051649 0.000000 
0.067979 0.086554 0.000000 
0.178789 0.743980 0.000000 
-0.514316 -0.789785 0.000000 
0.053800 -0.517654 0.000000 
-0.028512 0.299706 0.000000 
0.647393 0.507233 0.000000 
0.691820 -0.762285 0.000000 
-0.522510 -0.663741 0.000000 
-0.393446 -0.028011 0.000000 
0.205471 -0.483698 0.000000 
0.760780 -0.205882 0.000000 
0.642413 0.633098 0.000000 
-0.714996 0.866556 0.000000 
-0.724017 -0.357041 0.000000 
0.006894 -0.193408 0.000000 
0.083078 0.509117 0.000000 
0.897068 0.575970 0.000000 
-0.965681 -0.800002 0.000000 
-0.761262 -0.449650 0.000000 
0.142083 0.689612 0.000000 
0.397202 -0.649112 0.000000 
-0.108942 -0.168273 0.000000 
-0.899809 -0.163422 0.000000 
-0.724964 0.478827 0.000000 
0.660903 0.939347 0.000000 
-0.978194 -0.369028 0.000000 
0.595936 0.130838 0.000000 
0.071546 0.988013 0.000000 
0.220880 -0.381062 0.000000 
-0.445811 0.061724 0.000000 
-0.180633 0.739884 0.000000 
-0.702895 -0.768597 0.000000 
-0.287229 -0.069269 0.000000 
-0.685384 0.431890 0.000000 
-0.957100 0.139448 0.000000 
-0.820030 0.763520 0.000000 
0.474522 -0.809487 0.000000 
0.699407 -0.142208 0.000000 
0.109248 0.334548 0.000000 
0.441768 -0.970001 0.000000 
-0.039645 -0.470130 0.000000 
0.417537 0.232432 0.000000 
0.033296 0.732942 0.000000 
-0.338794 -0.999784 0.000000 
-0.374519 -0.426821 0.000000 
-0.713312 0.192608 0.000000 
0.609100 0.081467 0.000000 
-0.381900 0.195407 0.000000 
-0.756418 0.737799 0.000000 
0.513962 0.526313 0.000000 
0.218274 -0.749448 0.000000 
-0.423588 -0.783552 0.000000 
-0.384386 0.831176 0.000000 
-0.766286 -0.654204 0.000000 
0.484677 -0.919419 0.000000 
0.139443 -0.281295 0.000000 
-0.556234 -0.398864 0.000000 
-0.823577 0.374640 0.000000 
0.550868 0.363845 0.000000 
-0.386873 -0.533055 0.000000 
-0.771260 -0.032666 0.000000 
0.467428 -0.339194 0.000000 
0.105264 0.259432 0.000000 
-0.621631 0.077533 0.000000 
-0.937896 0.781113 0.000000 
0.385608 0.701917 0.000000 
0.141715 -0.488855 0.000000 
-0.474677 -0.488758 0.000000 
CELL_DATA 175 
SCALARS MASS float 
LOOKUP_TABLE default 
0.781831 
0.864274 
0.946717 
0.864274 
0.881307 
0.921110 
0.858535 
0.921110 
0.881307 
0.887046 
0.910001 
0.869829 
0.915556 
0.869829 
0.910001 
0.887046 
0.892784 
0.915740 
0.892784 
0.927218 
0.892784 
0.927218 
0.892784 
0.915740 
0.892784 
0.781831 
0.864274 
0.946717 
0.864274 
0.881307 
0.921110 
0.858535 
0.921110 
0.881307 
0.887046 
0.910001 
0.869829 
0.915556 
0.869829 
0.910001 
0.887046 
0.892784 
0.915740 
0.892784 
0.927218 
0.892784 
0.927218 
0.892784 
0.915740 
0.892784 
0.781831 
0.864274 
0.946717 
0.864274 
0.881307 
0.921110 
0.858535 
0.921110 
0.881307 
0.887046 
0.910001 
0.869829 
0.915556 
0.869829 
0.910001 
0.887046 
0.892784 
0.915740 
0.892784 
0.927218 
0.892784 
0.927218 
0.892784 
0.915740 
0.892784 
0.781831 
0.864274 
0.946717 
0.864274 
0.881307 
0.921110 
0.858535 
0.921110 
0.881307 
0.887046 
0.910001 
0.869829 
0.915556 
0.869829 
0.910001 
0.887046 
0.892784 
0.915740 
0.892784 
0.927218 
0.892784 
0.927218 
0.892784 
0.915740 
0.892784 
0.781831 
0.864274 
0.946717 
0.864274 
0.881307 
0.921110 
0.858535 
0.921110 
0.881307 
0.887046 
0.910001 
0.869829 
0.915556 
0.869829 
0.910001 
0.887046 
0.892784 
0.915740 
0.892784 
0.927218 
0.892784 
0.927218 
0.892784 
0.915740 
0.892784 
0.781831 
0.864274 
0.946717 
0.864274 
0.881307 
0.921110 
0.858535 
0.921110 
0.881307 
0.887046 
0.910001 
0.869829 
0.915556 
0.869829 
0.910001 
0.887046 
0.892784 
0.915740 
0.892784 
0.927218 
0.892784 
0.927218 
0.892784 
0.915740 
0.892784 
0.781831 
0.864274 
0.946717 
0.864274 
0.881307 
0.921110 
0.858535 
0.921110 
0.881307 
0.887046 
0.910001 
0.869829 
0.915556 
0.869829 
0.910001 
0.887046 
0.892784 
0.915740 
0.892784 
0.927218 
0.892784 
0.927218 
0.892784 
0.915740 
0.892784 
SCALARS MASS float 
LOOKUP_TABLE default 
0.781831 
0.864274 
0.946717 
0.864274 
0.881307 
0.921110 
0.858535 
0.921110 
0.881307 
0.887046 
0.910001 
0.869829 
0.915556 
0.869829 
0.910001 
0.887046 
0.892784 
0.915740 
0.892784 
0.927218 
0.892784 
0.927218 
0.892784 
0.915740 
0.892784 
0.781831 
0.864274 
0.946717 
0.864274 
0.881307 
0.921110 
0.858535 
0.921110 
0.881307 
0.887046 
0.910001 
0.869829 
0.915556 
0.869829 
0.910001 
0.887046 
0.892784 
0.915740 
0.892784 
0.927218 
0.892784 
0.927218 
0.892784 
0.915740 
0.892784 
0.781831 
0.864274 
0.946717 
0.864274 
0.881307 
0.921110 
0.858535 
0.921110 
0.881307 
0.887046 
0.910001 
0.869829 
0.915556 
0.869829 
0.910001 
0.887046 
0.892784 
0.915740 
0.892784 
0.927218 
0.892784 
0.927218 
0.892784 
0.915740 
0.892784 
0.781831 
0.864274 
0.946717 
0.864274 
0.881307 
0.921110 
0.858535 
0.921110 
0.881307 
0.887046 
0.910001 
0.869829 
0.915556 
0.869829 
0.910001 
0.887046 
0.892784 
0.915740 
0.892784 
0.927218 
0.892784 
0.927218 
0.892784 
0.915740 
0.892784 
0.781831 
0.864274 
0.946717 
0.864274 
0.881307 
0.921110 
0.858535 
0.921110 
0.881307 
0.887046 
0.910001 
0.869829 
0.915556 
0.869829 
0.910001 
0.887046 
0.892784 
0.915740 
0.892784 
0.927218 
0.892784 
0.927218 
0.892784 
0.915740 
0.892784 
0.781831 
0.864274 
0.946717 
0.864274 
0.881307 
0.921110 
0.858535 
0.921110 
0.881307 
0.887046 
0.910001 
0.869829 
0.915556 
0.869829 
0.910001 
0.887046 
0.892784 
0.915740 
0.892784 
0.927218 
0.892784 
0.927218 
0.892784 
0.915740 
0.892784 
0.781831 
0.864274 
0.946717 
0.864274 
0.881307 
0.921110 
0.858535 
0.921110 
0.881307 
0.887046 
0.910001 
0.869829 
0.915556 
0.869829 
0.910001 
0.887046 
0.892784 
0.915740 
0.892784 
0.927218 
0.892784 
0.927218 
0.892784 
0.915740 
0.892784 
SCALARS DENSITY float 
LOOKUP_TABLE default 
200.000000 
200.000000 
200.000000 
200.000000 
200.000000 
200.000000 
200.000000 
200.000000 
200.000000 
200.000000 
200.000000 
200.000000 
200.000000 
200.000000 
200.000000 
200.000000 
200.000000 
200.000000 
200.000000 
200.000000 
200.000000 
200.000000 
200.000000 
200.000000 
200.000000 
200.000000 
200.000000 
200.000000 
200.000000 
200.000000 
200.000000 
200.000000 
200.000000 
200.000000 
200.000000 
200.000000 
200.000000 
200.000000 
200.000000 
200.000000 
200.000000 
200.000000 
200.000000 
200.000000 
200.000000 
200.000000 
200.000000 
200.000000 
200.000000 
200.000000 
200.000000 
200.000000 
200.000000 
200.000000 
200.000000 
200.000000 
200.000000 
200.000000 
200.000000 
200.000000 
200.000000 
200.000000 
200.000000 
200.000000 
200.000000 
200.000000 
200.000000 
200.000000 
200.000000 
200.000000 
200.000000 
200.000000 
200.000000 
200.000000 
200.000000 
200.000000 
200.000000 
200.000000 
200.000000 
200.000000 
200.000000 
200.000000 
200.000000 
200.000000 
200.000000 
200.000000 
200.000000 
200.000000 
200.000000 
200.000000 
200.000000 
200.000000 
200.000000 
200.000000 
200.000000 
200.000000 
200.000000 
200.000000 
200.000000 
200.000000 
200.000000 
200.000000 
200.000000 
200.000000 
200.000000 
200.000000 
200.000000 
200.000000 
200.000000 
200.000000 
200.000000 
200.000000 
200.000000 
200.000000 
200.000000 
200.000000 
200.000000 
200.000000 
200.000000 
200.000000 
200.000000 
200.000000 
200.000000 
200.000000 
200.000000 
200.000000 
200.000000 
200.000000 
200.000000 
200.000000 
200.000000 
200.000000 
200.000000 
200.000000 
200.000000 
200.000000 
200.000000 
200.000000 
200.000000 
200.000000 
200.000000 
200.000000 
200.000000 
200.000000 
200.000000 
200.000000 
200.000000 
200.000000 
200.000000 
200.000000 
200.000000 
200.000000 
200.000000 
200.000000 
200.000000 
200.000000 
200.000000 
200.000000 
200.000000 
200.000000 
200.000000 
200.000000 
200.000000 
200.000000 
200.000000 
200.000000 
200.000000 
200.000000 
200.000000 
200.000000 
200.000000 
200.000000 
200.000000 
200.000000 
200.000000 
SCALARS ELEM_i float 
LOOKUP_TABLE default 
175 
203 
176 
176 
203 
203 
204 
177 
177 
231 
204 
204 
204 
204 
177 
178 
231 
231 
232 
205 
205 
205 
205 
178 
178 
175 
202 
202 
203 
229 
202 
230 
203 
203 
229 
229 
229 
230 
230 
230 
231 
256 
256 
256 
256 
257 
257 
257 
231 
231 
175 
201 
202 
202 
201 
201 
201 
201 
229 
200 
200 
227 
228 
228 
228 
228 
199 
227 
227 
227 
227 
228 
255 
255 
255 
175 
174 
174 
174 
146 
174 
173 
174 
200 
146 
146 
173 
173 
173 
200 
200 
145 
145 
145 
172 
172 
172 
199 
199 
199 
175 
148 
148 
147 
121 
147 
147 
147 
147 
120 
120 
120 
120 
119 
146 
146 
93 
93 
93 
120 
119 
119 
119 
119 
145 
175 
149 
148 
148 
149 
149 
122 
148 
121 
123 
122 
122 
122 
121 
121 
121 
123 
123 
95 
95 
95 
94 
94 
94 
94 
175 
176 
176 
149 
177 
177 
150 
149 
149 
178 
177 
150 
150 
150 
150 
123 
178 
178 
151 
151 
151 
151 
124 
123 
123 
VECTORS VELOCITY float 
0.000000 -4.375260 0.000000 
0.000000 -4.375260 0.000000 
0.000000 -4.375260 0.000000 
0.000000 -4.375260 0.000000 
-0.000000 -4.375260 0.000000 
-0.000000 -4.375260 0.000000 
-0.000000 -4.375260 0.000000 
-0.000000 -4.375260 0.000000 
-0.000000 -4.375260 0.000000 
-0.000000 -4.375260 0.000000 
-0.000000 -4.375260 0.000000 
-0.000000 -4.375260 0.000000 
-0.000000 -4.375260 0.000000 
0.000000 -4.375260 0.000000 
0.000000 -4.375260 0.000000 
0.000000 -4.375260 0.000000 
0.000000 -4.375260 0.000000 
0.000000 -4.375260 0.000000 
0.000000 -4.375260 0.000000 
-0.000000 -4.375260 0.000000 
-0.000000 -4.375260 0.000000 
-0.000000 -4.375260 0.000000 
-0.000000 -4.375260 0.000000 
0.000000 -4.375260 0.000000 
-0.000000 -4.375260 0.000000 
0.000000 -4.375260 0.000000 
-0.000000 -4.375260 0.000000 
0.000000 -4.375260 0.000000 
0.000000 -4.375260 0.000000 
-0.000000 -4.375260 0.000000 
0.000000 -4.375260 0.000000 
-0.000000 -4.375260 0.000000 
-0.000000 -4.375260 0.000000 
-0.000000 -4.375260 0.000000 
-0.000000 -4.375260 0.000000 
-0.000000 -4.375260 0.000000 
0.000000 -4.375260 0.000000 
0.000000 -4.375260 0.000000 
0.000000 -4.375260 0.000000 
-0.000000 -4.375260 0.000000 
-0.000000 -4.375260 0.000000 
-0.000000 -4.375260 0.000000 
-0.000000 -4.375260 0.000000 
-0.000000 -4.375260 0.000000 
0.000000 -4.375260 0.000000 
-0.000000 -4.375260 0.000000 
-0.000000 -4.375260 0.000000 
-0.000000 -4.375260 0.000000 
0.000000 -4.375260 0.000000 
0.000000 -4.375260 0.000000 
0.000000 -4.375260 0.000000 
0.000000 -4.375260 0.000000 
-0.000000 -4.375260 0.000000 
-0.000000 -4.375260 0.000000 
0.000000 -4.375260 0.000000 
0.000000 -4.375260 0.000000 
0.000000 -4.375260 0.000000 
-0.000000 -4.375260 0.000000 
-0.000000 -4.375260 0.000000 
-0.000000 -4.375260 0.000000 
0.000000 -4.375260 0.000000 
0.000000 -4.375260 0.000000 
0.000000 -4.375260 0.000000 
0.000000 -4.375260 0.000000 
-0.000000 -4.375260 0.000000 
-0.000000 -4.375260 0.000000 
-0.000000 -4.375260 0.000000 
0.000000 -4.375260 0.000000 
0.000000 -4.375260 0.000000 
-0.000000 -4.375260 0.000000 
-0.000000 -4.375260 0.000000 
-0.000000 -4.375260 0.000000 
-0.000000 -4.375260 0.000000 
0.000000 -4.375260 0.000000 
-0.000000 -4.375260 0.000000 
0.000000 -4.375260 0.000000 
-0.000000 -4.375260 0.000000 
0.000000 -4.375260 0.000000 
0.000000 -4.375260 0.000000 
-0.000000 -4.375260 0.000000 
-0.000000 -4.375260 0.000000 
-0.000000 -4.375260 0.000000 
0.000000 -4.375260 0.000000 
-0.000000 -4.375260 0.000000 
0.000000 -4.375260 0.000000 
0.000000 -4.375260 0.000000 
0.000000 -4.375260 0.000000 
0.000000 -4.375260 0.000000 
0.000000 -4.375260 0.000000 
-0.000000 -4.375260 0.000000 
-0.000000 -4.375260 0.000000 
-0.000000 -4.375260 0.000000 
-0.000000 -4.375260 0.000000 
0.000000 -4.375260 0.000000 
0.000000 -4.375260 0.000000 
0.000000 -4.375260 0.000000 
0.000000 -4.375260 0.000000 
0.000000 -4.375260 0.000000 
0.000000 -4.375260 0.000000 
-0.000000 -4.375260 0.000000 
0.000000 -4.375260 0.000000 
-0.000000 -4.375260 0.000000 
0.000000 -4.375260 0.000000 
-0.000000 -4.375260 0.000000 
-0.000000 -4.375260 0.000000 
-0.000000 -4.375260 0.000000 
-0.000000 -4.375260 0.000000 
-0.000000 -4.375260 0.000000 
-0.000000 -4.375260 0.000000 
0.000000 -4.375260 0.000000 
-0.000000 -4.375260 0.000000 
-0.000000 -4.375260 0.000000 
-0.000000 -4.375260 0.000000 
0.000000 -4.375260 0.000000 
-0.000000 -4.375260 0.000000 
-0.000000 -4.375260 0.000000 
-0.000000 -4.375260 0.000000 
0.000000 -4.375260 0.000000 
0.000000 -4.375260 0.000000 
-0.000000 -4.375260 0.000000 
0.000000 -4.375260 0.000000 
0.000000 -4.375260 0.000000 
-0.000000 -4.375260 0.000000 
-0.000000 -4.375260 0.000000 
-0.000000 -4.375260 0.000000 
-0.000000 -4.375260 0.000000 
-0.000000 -4.375260 0.000000 
-0.000000 -4.375260 0.000000 
-0.000000 -4.375260 0.000000 
-0.000000 -4.375260 0.000000 
-0.000000 -4.375260 0.000000 
-0.000000 -4.375260 0.000000 
-0.000000 -4.375260 0.000000 
-0.000000 -4.375260 0.000000 
-0.000000 -4.375260 0.000000 
0.000000 -4.375260 0.000000 
0.000000 -4.375260 0.000000 
0.000000 -4.375260 0.000000 
0.000000 -4.375260 0.000000 
0.000000 -4.375260 0.000000 
0.000000 -4.375260 0.000000 
-0.000000 -4.375260 0.000000 
-0.000000 -4.375260 0.000000 
0.000000 -4.375260 0.000000 
0.000000 -4.375260 0.000000 
0.000000 -4.375260 0.000000 
0.000000 -4.375260 0.000000 
0.000000 -4.375260 0.000000 
0.000000 -4.375260 0.000000 
-0.000000 -4.375260 0.000000 
-0.000000 -4.375260 0.000000 
0.000000 -4.375260 0.000000 
0.000000 -4.375260 0.000000 
-0.000000 -4.375260 0.000000 
-0.000000 -4.375260 0.000000 
0.000000 -4.375260 0.000000 
0.000000 -4.375260 0.000000 
0.000000 -4.375260 0.000000 
0.000000 -4.375260 0.000000 
-0.000000 -4.375260 0.000000 
0.000000 -4.375260 0.000000 
-0.000000 -4.375260 0.000000 
0.000000 -4.375260 0.000000 
-0.000000 -4.375260 0.000000 
0.000000 -4.375260 0.000000 
0.000000 -4.375260 0.000000 
-0.000000 -4.375260 0.000000 
-0.000000 -4.375260 0.000000 
0.000000 -4.375260 0.000000 
0.000000 -4.375260 0.000000 
0.000000 -4.375260 0.000000 
0.000000 -4.375260 0.000000 
-0.000000 -4.375260 0.000000 
-0.000000 -4.375260 0.000000 
-0.000000 -4.375260 0.000000 
TENSORS STRESS float 
-0.000000 0.000000 0.000000 
0.000000 -0.000000 0.000000 
0.000000 0.000000 0.000000 

-0.000000 -0.000000 0.000000 
0.000000 -0.000000 0.000000 
0.000000 0.000000 0.000000 

-0.000000 -0.000000 0.000000 
0.000000 -0.000000 0.000000 
0.000000 0.000000 0.000000 

0.000000 -0.000000 0.000000 
0.000000 0.000000 0.000000 
0.000000 0.000000 0.000000 

-0.000000 0.000000 0.000000 
0.000000 -0.000000 0.000000 
0.000000 0.000000 0.000000 

0.000000 0.000000 0.000000 
0.000000 0.000000 0.000000 
0.000000 0.000000 0.000000 

-0.000000 0.000000 0.000000 
0.000000 -0.000000 0.000000 
0.000000 0.000000 0.000000 

-0.000000 0.000000 0.000000 
0.000000 -0.000000 0.000000 
0.000000 0.000000 0.000000 

0.000000 0.000000 0.000000 
0.000000 0.000000 0.000000 
0.000000 0.000000 0.000000 

0.000000 -0.000000 0.000000 
0.000000 0.000000 0.000000 
0.000000 0.000000 0.000000 

0.000000 0.000000 0.000000 