# vtk DataFile Version 3.0 
vtk output 
ASCII 
DATASET UNSTRUCTURED_GRID 
POINTS 184 float 
-0.028811 -0.816909 0.000000 
-0.337228 -1.628514 0.000000 
0.473826 -1.319288 0.000000 
-0.447224 -1.124531 0.000000 
0.165656 -1.734981 0.000000 
0.222713 -0.871650 0.000000 
-0.284076 -0.911359 0.000000 
-0.100762 -1.754036 0.000000 
0.418839 -1.067486 0.000000 
-0.462804 -1.397792 0.000000 
0.379480 -1.574915 0.000000 
-0.166786 -0.844396 0.000000 
-0.227178 -1.706885 0.000000 
0.463197 -1.190077 0.000000 
-0.473871 -1.262391 0.000000 
0.286252 -1.672694 0.000000 
0.100762 -0.827642 0.000000 
-0.377333 -1.002669 0.000000 
0.039274 -1.763891 0.000000 
0.337021 -0.953243 0.000000 
-0.416046 -1.518017 0.000000 
0.444142 -1.456496 0.000000 
-0.121270 -0.831031 0.000000 
-0.301377 -1.659580 0.000000 
0.473826 -1.271850 0.000000 
-0.460589 -1.170048 0.000000 
0.246344 -1.698341 0.000000 
0.179561 -0.851944 0.000000 
-0.346268 -0.966818 0.000000 
-0.053807 -1.760787 0.000000 
0.368087 -0.989094 0.000000 
-0.449439 -1.443309 0.000000 
0.424436 -1.499647 0.000000 
-0.209938 -0.864103 0.000000 
-0.146279 -1.740671 0.000000 
0.438546 -1.110638 0.000000 
-0.473871 -1.309829 0.000000 
0.322103 -1.641629 0.000000 
0.018627 -0.816909 0.000000 
-0.427517 -1.081380 0.000000 
0.086229 -1.757140 0.000000 
0.301170 -0.922177 0.000000 
-0.368294 -1.592663 0.000000 
0.457507 -1.410979 0.000000 
-0.079407 -0.848653 0.000000 
0.369154 -1.034228 0.000000 
0.048715 -0.845264 0.000000 
0.205703 -1.690754 0.000000 
-0.167159 -1.704987 0.000000 
-0.366567 -1.551355 0.000000 
0.386144 -1.515236 0.000000 
-0.305135 -0.962648 0.000000 
-0.387078 -1.061696 0.000000 
0.425252 -1.149786 0.000000 
0.140413 -0.865238 0.000000 
0.111975 -1.724791 0.000000 
-0.260069 -1.657854 0.000000 
-0.413756 -1.464189 0.000000 
0.439780 -1.368753 0.000000 
0.326273 -1.600496 0.000000 
-0.014533 -1.737232 0.000000 
-0.225527 -0.902395 0.000000 
-0.442908 -1.212274 0.000000 
-0.445123 -1.346107 0.000000 
0.255396 -0.920761 0.000000 
0.445470 -1.241762 0.000000 
-0.079333 -0.904928 0.000000 
-0.130417 -0.947737 0.000000 
-0.191597 -0.943119 0.000000 
-0.111867 -1.006345 0.000000 
-0.224051 -0.997640 0.000000 
-0.171272 -1.034639 0.000000 
-0.055594 -1.020573 0.000000 
-0.279041 -1.008204 0.000000 
-0.040187 -1.076295 0.000000 
-0.015041 -0.979369 0.000000 
-0.296573 -1.067468 0.000000 
-0.349226 -1.097753 0.000000 
-0.351226 -1.163458 0.000000 
-0.254824 -1.106224 0.000000 
-0.391103 -1.212778 0.000000 
-0.370336 -1.272382 0.000000 
-0.284940 -1.163410 0.000000 
-0.395089 -1.331876 0.000000 
-0.360392 -1.378051 0.000000 
-0.313327 -1.271808 0.000000 
-0.369688 -1.436399 0.000000 
-0.323258 -1.470193 0.000000 
-0.307698 -1.336468 0.000000 
-0.317847 -1.531322 0.000000 
-0.261652 -1.556518 0.000000 
-0.273358 -1.444001 0.000000 
-0.237999 -1.610676 0.000000 
-0.174943 -1.616548 0.000000 
-0.233858 -1.495587 0.000000 
-0.136993 -1.661827 0.000000 
-0.076092 -1.652660 0.000000 
-0.147100 -1.567570 0.000000 
-0.021468 -1.685630 0.000000 
0.034383 -1.659676 0.000000 
-0.085997 -1.589602 0.000000 
0.090783 -1.677233 0.000000 
0.131601 -1.636366 0.000000 
0.025861 -1.603203 0.000000 
0.192839 -1.639696 0.000000 
0.225790 -1.587667 0.000000 
0.089168 -1.588686 0.000000 
0.282731 -1.571945 0.000000 
0.297512 -1.510365 0.000000 
0.190626 -1.539635 0.000000 
0.347718 -1.479238 0.000000 
0.347308 -1.417654 0.000000 
0.236036 -1.493196 0.000000 
0.387714 -1.368275 0.000000 
0.369971 -1.309301 0.000000 
0.294872 -1.397078 0.000000 
0.395378 -1.255972 0.000000 
0.360736 -1.209753 0.000000 
0.307967 -1.333461 0.000000 
0.372882 -1.155252 0.000000 
0.326072 -1.115232 0.000000 
0.305499 -1.220793 0.000000 
0.320446 -1.054227 0.000000 
0.261463 -1.025190 0.000000 
0.282122 -1.160195 0.000000 
0.233332 -0.967923 0.000000 
0.170485 -0.961970 0.000000 
0.219133 -1.066747 0.000000 
0.132530 -0.916706 0.000000 
0.077667 -0.926562 0.000000 
0.033502 -0.892716 0.000000 
-0.020231 -0.922332 0.000000 
0.166704 -1.028407 0.000000 
0.047676 -0.979617 0.000000 
-0.184513 -1.083959 0.000000 
-0.267808 -1.212155 0.000000 
-0.039895 -1.566099 0.000000 
0.233804 -1.441493 0.000000 
0.278138 -1.291172 0.000000 
0.115242 -1.543984 0.000000 
0.234165 -1.140746 0.000000 
-0.267095 -1.368624 0.000000 
-0.182363 -1.500768 0.000000 
-0.080635 -1.117521 0.000000 
0.015739 -1.090712 0.000000 
-0.141814 -1.120330 0.000000 
-0.170613 -1.177792 0.000000 
-0.215488 -1.216519 0.000000 
-0.205084 -1.279838 0.000000 
-0.129406 -1.214739 0.000000 
-0.218571 -1.340334 0.000000 
-0.148068 -1.271924 0.000000 
-0.174593 -1.386709 0.000000 
-0.076799 -1.180617 0.000000 
-0.155573 -1.448807 0.000000 
-0.126037 -1.356680 0.000000 
-0.074980 -1.383291 0.000000 
-0.112999 -1.302391 0.000000 
-0.052249 -1.285619 0.000000 
-0.031995 -1.338603 0.000000 
-0.034711 -1.221031 0.000000 
0.031192 -1.146345 0.000000 
0.063050 -1.035238 0.000000 
-0.089197 -1.446930 0.000000 
0.009049 -1.204627 0.000000 
0.051424 -1.254522 0.000000 
0.053332 -1.309660 0.000000 
0.098177 -1.225230 0.000000 
0.011239 -1.352504 0.000000 
0.028372 -1.413941 0.000000 
0.017947 -1.473367 0.000000 
0.077740 -1.501257 0.000000 
0.083331 -1.414582 0.000000 
0.117710 -1.456722 0.000000 
0.179025 -1.427792 0.000000 
0.098599 -1.353684 0.000000 
0.165702 -1.235804 0.000000 
0.087920 -1.166410 0.000000 
0.161326 -1.357058 0.000000 
0.191154 -1.177945 0.000000 
0.131959 -1.135094 0.000000 
0.122542 -1.059556 0.000000 
-0.040916 -1.490801 0.000000 
0.197397 -1.297603 0.000000 
CELLS 184 368 
1 0 
1 1 
1 2 
1 3 
1 4 
1 5 
1 6 
1 7 
1 8 
1 9 
1 10 
1 11 
1 12 
1 13 
1 14 
1 15 
1 16 
1 17 
1 18 
1 19 
1 20 
1 21 
1 22 
1 23 
1 24 
1 25 
1 26 
1 27 
1 28 
1 29 
1 30 
1 31 
1 32 
1 33 
1 34 
1 35 
1 36 
1 37 
1 38 
1 39 
1 40 
1 41 
1 42 
1 43 
1 44 
1 45 
1 46 
1 47 
1 48 
1 49 
1 50 
1 51 
1 52 
1 53 
1 54 
1 55 
1 56 
1 57 
1 58 
1 59 
1 60 
1 61 
1 62 
1 63 
1 64 
1 65 
1 66 
1 67 
1 68 
1 69 
1 70 
1 71 
1 72 
1 73 
1 74 
1 75 
1 76 
1 77 
1 78 
1 79 
1 80 
1 81 
1 82 
1 83 
1 84 
1 85 
1 86 
1 87 
1 88 
1 89 
1 90 
1 91 
1 92 
1 93 
1 94 
1 95 
1 96 
1 97 
1 98 
1 99 
1 100 
1 101 
1 102 
1 103 
1 104 
1 105 
1 106 
1 107 
1 108 
1 109 
1 110 
1 111 
1 112 
1 113 
1 114 
1 115 
1 116 
1 117 
1 118 
1 119 
1 120 
1 121 
1 122 
1 123 
1 124 
1 125 
1 126 
1 127 
1 128 
1 129 
1 130 
1 131 
1 132 
1 133 
1 134 
1 135 
1 136 
1 137 
1 138 
1 139 
1 140 
1 141 
1 142 
1 143 
1 144 
1 145 
1 146 
1 147 
1 148 
1 149 
1 150 
1 151 
1 152 
1 153 
1 154 
1 155 
1 156 
1 157 
1 158 
1 159 
1 160 
1 161 
1 162 
1 163 
1 164 
1 165 
1 166 
1 167 
1 168 
1 169 
1 170 
1 171 
1 172 
1 173 
1 174 
1 175 
1 176 
1 177 
1 178 
1 179 
1 180 
1 181 
1 182 
1 183 
CELL_TYPES 184 
1 
1 
1 
1 
1 
1 
1 
1 
1 
1 
1 
1 
1 
1 
1 
1 
1 
1 
1 
1 
1 
1 
1 
1 
1 
1 
1 
1 
1 
1 
1 
1 
1 
1 
1 
1 
1 
1 
1 
1 
1 
1 
1 
1 
1 
1 
1 
1 
1 
1 
1 
1 
1 
1 
1 
1 
1 
1 
1 
1 
1 
1 
1 
1 
1 
1 
1 
1 
1 
1 
1 
1 
1 
1 
1 
1 
1 
1 
1 
1 
1 
1 
1 
1 
1 
1 
1 
1 
1 
1 
1 
1 
1 
1 
1 
1 
1 
1 
1 
1 
1 
1 
1 
1 
1 
1 
1 
1 
1 
1 
1 
1 
1 
1 
1 
1 
1 
1 
1 
1 
1 
1 
1 
1 
1 
1 
1 
1 
1 
1 
1 
1 
1 
1 
1 
1 
1 
1 
1 
1 
1 
1 
1 
1 
1 
1 
1 
1 
1 
1 
1 
1 
1 
1 
1 
1 
1 
1 
1 
1 
1 
1 
1 
1 
1 
1 
1 
1 
1 
1 
1 
1 
1 
1 
1 
1 
1 
1 
1 
1 
1 
1 
1 
1 
POINT_DATA 184 
VECTORS X_GC float 
-0.028811 -0.816909 0.000000 
-0.337228 -1.628514 0.000000 
0.473826 -1.319288 0.000000 
-0.447224 -1.124531 0.000000 
0.165656 -1.734981 0.000000 
0.222713 -0.871650 0.000000 
-0.284076 -0.911359 0.000000 
-0.100762 -1.754036 0.000000 
0.418839 -1.067486 0.000000 
-0.462804 -1.397792 0.000000 
0.379480 -1.574915 0.000000 
-0.166786 -0.844396 0.000000 
-0.227178 -1.706885 0.000000 
0.463197 -1.190077 0.000000 
-0.473871 -1.262391 0.000000 
0.286252 -1.672694 0.000000 
0.100762 -0.827642 0.000000 
-0.377333 -1.002669 0.000000 
0.039274 -1.763891 0.000000 
0.337021 -0.953243 0.000000 
-0.416046 -1.518017 0.000000 
0.444142 -1.456496 0.000000 
-0.121270 -0.831031 0.000000 
-0.301377 -1.659580 0.000000 
0.473826 -1.271850 0.000000 
-0.460589 -1.170048 0.000000 
0.246344 -1.698341 0.000000 
0.179561 -0.851944 0.000000 
-0.346268 -0.966818 0.000000 
-0.053807 -1.760787 0.000000 
0.368087 -0.989094 0.000000 
-0.449439 -1.443309 0.000000 
0.424436 -1.499647 0.000000 
-0.209938 -0.864103 0.000000 
-0.146279 -1.740671 0.000000 
0.438546 -1.110638 0.000000 
-0.473871 -1.309829 0.000000 
0.322103 -1.641629 0.000000 
0.018627 -0.816909 0.000000 
-0.427517 -1.081380 0.000000 
0.086229 -1.757140 0.000000 
0.301170 -0.922177 0.000000 
-0.368294 -1.592663 0.000000 
0.457507 -1.410979 0.000000 
-0.079407 -0.848653 0.000000 
0.369154 -1.034228 0.000000 
0.048715 -0.845264 0.000000 
0.205703 -1.690754 0.000000 
-0.167159 -1.704987 0.000000 
-0.366567 -1.551355 0.000000 
0.386144 -1.515236 0.000000 
-0.305135 -0.962648 0.000000 
-0.387078 -1.061696 0.000000 
0.425252 -1.149786 0.000000 
0.140413 -0.865238 0.000000 
0.111975 -1.724791 0.000000 
-0.260069 -1.657854 0.000000 
-0.413756 -1.464189 0.000000 
0.439780 -1.368753 0.000000 
0.326273 -1.600496 0.000000 
-0.014533 -1.737232 0.000000 
-0.225527 -0.902395 0.000000 
-0.442908 -1.212274 0.000000 
-0.445123 -1.346107 0.000000 
0.255396 -0.920761 0.000000 
0.445470 -1.241762 0.000000 
-0.079333 -0.904928 0.000000 
-0.130417 -0.947737 0.000000 
-0.191597 -0.943119 0.000000 
-0.111867 -1.006345 0.000000 
-0.224051 -0.997640 0.000000 
-0.171272 -1.034639 0.000000 
-0.055594 -1.020573 0.000000 
-0.279041 -1.008204 0.000000 
-0.040187 -1.076295 0.000000 
-0.015041 -0.979369 0.000000 
-0.296573 -1.067468 0.000000 
-0.349226 -1.097753 0.000000 
-0.351226 -1.163458 0.000000 
-0.254824 -1.106224 0.000000 
-0.391103 -1.212778 0.000000 
-0.370336 -1.272382 0.000000 
-0.284940 -1.163410 0.000000 
-0.395089 -1.331876 0.000000 
-0.360392 -1.378051 0.000000 
-0.313327 -1.271808 0.000000 
-0.369688 -1.436399 0.000000 
-0.323258 -1.470193 0.000000 
-0.307698 -1.336468 0.000000 
-0.317847 -1.531322 0.000000 
-0.261652 -1.556518 0.000000 
-0.273358 -1.444001 0.000000 
-0.237999 -1.610676 0.000000 
-0.174943 -1.616548 0.000000 
-0.233858 -1.495587 0.000000 
-0.136993 -1.661827 0.000000 
-0.076092 -1.652660 0.000000 
-0.147100 -1.567570 0.000000 
-0.021468 -1.685630 0.000000 
0.034383 -1.659676 0.000000 
-0.085997 -1.589602 0.000000 
0.090783 -1.677233 0.000000 
0.131601 -1.636366 0.000000 
0.025861 -1.603203 0.000000 
0.192839 -1.639696 0.000000 
0.225790 -1.587667 0.000000 
0.089168 -1.588686 0.000000 
0.282731 -1.571945 0.000000 
0.297512 -1.510365 0.000000 
0.190626 -1.539635 0.000000 
0.347718 -1.479238 0.000000 
0.347308 -1.417654 0.000000 
0.236036 -1.493196 0.000000 
0.387714 -1.368275 0.000000 
0.369971 -1.309301 0.000000 
0.294872 -1.397078 0.000000 
0.395378 -1.255972 0.000000 
0.360736 -1.209753 0.000000 
0.307967 -1.333461 0.000000 
0.372882 -1.155252 0.000000 
0.326072 -1.115232 0.000000 
0.305499 -1.220793 0.000000 
0.320446 -1.054227 0.000000 
0.261463 -1.025190 0.000000 
0.282122 -1.160195 0.000000 
0.233332 -0.967923 0.000000 
0.170485 -0.961970 0.000000 
0.219133 -1.066747 0.000000 
0.132530 -0.916706 0.000000 
0.077667 -0.926562 0.000000 
0.033502 -0.892716 0.000000 
-0.020231 -0.922332 0.000000 
0.166704 -1.028407 0.000000 
0.047676 -0.979617 0.000000 
-0.184513 -1.083959 0.000000 
-0.267808 -1.212155 0.000000 
-0.039895 -1.566099 0.000000 
0.233804 -1.441493 0.000000 
0.278138 -1.291172 0.000000 
0.115242 -1.543984 0.000000 
0.234165 -1.140746 0.000000 
-0.267095 -1.368624 0.000000 
-0.182363 -1.500768 0.000000 
-0.080635 -1.117521 0.000000 
0.015739 -1.090712 0.000000 
-0.141814 -1.120330 0.000000 
-0.170613 -1.177792 0.000000 
-0.215488 -1.216519 0.000000 
-0.205084 -1.279838 0.000000 
-0.129406 -1.214739 0.000000 
-0.218571 -1.340334 0.000000 
-0.148068 -1.271924 0.000000 
-0.174593 -1.386709 0.000000 
-0.076799 -1.180617 0.000000 
-0.155573 -1.448807 0.000000 
-0.126037 -1.356680 0.000000 
-0.074980 -1.383291 0.000000 
-0.112999 -1.302391 0.000000 
-0.052249 -1.285619 0.000000 
-0.031995 -1.338603 0.000000 
-0.034711 -1.221031 0.000000 
0.031192 -1.146345 0.000000 
0.063050 -1.035238 0.000000 
-0.089197 -1.446930 0.000000 
0.009049 -1.204627 0.000000 
0.051424 -1.254522 0.000000 
0.053332 -1.309660 0.000000 
0.098177 -1.225230 0.000000 
0.011239 -1.352504 0.000000 
0.028372 -1.413941 0.000000 
0.017947 -1.473367 0.000000 
0.077740 -1.501257 0.000000 
0.083331 -1.414582 0.000000 
0.117710 -1.456722 0.000000 
0.179025 -1.427792 0.000000 
0.098599 -1.353684 0.000000 
0.165702 -1.235804 0.000000 
0.087920 -1.166410 0.000000 
0.161326 -1.357058 0.000000 
0.191154 -1.177945 0.000000 
0.131959 -1.135094 0.000000 
0.122542 -1.059556 0.000000 
-0.040916 -1.490801 0.000000 
0.197397 -1.297603 0.000000 
VECTORS X_EC float 
-0.807924 0.446058 0.000000 
-0.751813 -0.143237 0.000000 
-0.158839 -0.204746 0.000000 
-0.018508 0.496876 0.000000 
-0.104376 0.566542 0.000000 
-0.484750 0.811001 0.000000 
0.893837 -0.924276 0.000000 
-0.328251 0.693573 0.000000 
0.207737 0.116576 0.000000 
0.085362 0.318614 0.000000 
0.470130 -0.500569 0.000000 
0.111910 0.629306 0.000000 
0.514522 0.379234 0.000000 
-0.087979 0.933845 0.000000 
0.159142 -0.584063 0.000000 
-0.908345 0.151294 0.000000 
0.328251 0.517615 0.000000 
-0.484444 -0.315540 0.000000 
0.738177 0.759275 0.000000 
0.753192 -0.645048 0.000000 
-0.226359 -0.879884 0.000000 
0.039052 0.709970 0.000000 
-0.191535 0.540207 0.000000 
-0.990822 0.063866 0.000000 
-0.158839 -0.521001 0.000000 
0.070591 0.800321 0.000000 
-0.642294 0.322274 0.000000 
-0.197074 0.679623 0.000000 
-0.691547 -0.554549 0.000000 
-0.641287 0.738580 0.000000 
0.546089 -0.406038 0.000000 
-0.003737 0.622059 0.000000 
0.170429 0.997646 0.000000 
0.399586 0.760683 0.000000 
-0.024807 0.604473 0.000000 
0.076360 0.404251 0.000000 
0.159142 -0.267808 0.000000 
0.852645 -0.055809 0.000000 
0.875821 0.446058 0.000000 
-0.149885 0.209200 0.000000 
0.425140 0.714267 0.000000 
0.992201 -0.852151 0.000000 
-0.544710 -0.382246 0.000000 
-0.050047 0.406525 0.000000 
-0.470623 0.657687 0.000000 
0.538976 -0.105149 0.000000 
0.675236 0.635095 0.000000 
-0.371350 0.271691 0.000000 
0.114395 0.366582 0.000000 
-0.556219 -0.657631 0.000000 
0.425709 -0.898424 0.000000 
-0.965766 -0.582348 0.000000 
-0.419479 0.077974 0.000000 
0.164988 0.665239 0.000000 
0.063913 0.768252 0.000000 
0.253500 0.498608 0.000000 
0.733793 0.052357 0.000000 
-0.241628 0.761261 0.000000 
0.068130 0.125022 0.000000 
0.824846 -0.330029 0.000000 
-0.903111 0.581547 0.000000 
0.503515 -0.984036 0.000000 
-0.047282 -0.918172 0.000000 
-0.032511 -0.025951 0.000000 
-0.702641 -0.861594 0.000000 
0.030198 -0.721586 0.000000 
-0.471115 -0.967148 0.000000 
-0.130555 -0.681753 0.000000 
0.277311 -0.712538 0.000000 
-0.254217 -0.291033 0.000000 
0.493676 -0.349066 0.000000 
0.141813 -0.102407 0.000000 
-0.629371 -0.196177 0.000000 
0.860276 -0.278637 0.000000 
-0.732087 0.175303 0.000000 
-0.899724 -0.470871 0.000000 
0.977153 0.116456 0.000000 
-0.671826 0.318357 0.000000 
-0.658496 0.756385 0.000000 
0.698824 0.374823 0.000000 
-0.392645 -0.914814 0.000000 
-0.531093 -0.517453 0.000000 
0.899598 0.756064 0.000000 
-0.366074 -0.120827 0.000000 
-0.597389 0.187003 0.000000 
-0.911153 -0.521283 0.000000 
-0.535415 0.575990 0.000000 
-0.844949 0.801289 0.000000 
-0.948677 -0.090212 0.000000 
-0.881021 -0.791188 0.000000 
0.744349 -0.623215 0.000000 
0.822387 0.626673 0.000000 
0.586663 -0.262159 0.000000 
0.166285 -0.223016 0.000000 
0.559054 0.970581 0.000000 
-0.086713 0.078848 0.000000 
-0.492723 0.017731 0.000000 
-0.019331 -0.549536 0.000000 
-0.856883 0.237532 0.000000 
0.770780 0.064508 0.000000 
-0.426685 -0.402650 0.000000 
0.394783 0.181555 0.000000 
0.122661 -0.090896 0.000000 
0.827591 -0.311981 0.000000 
-0.285596 -0.068694 0.000000 
-0.505268 -0.415554 0.000000 
0.405544 -0.408759 0.000000 
-0.884872 -0.520369 0.000000 
-0.983414 -0.930898 0.000000 
-0.270837 -0.735767 0.000000 
0.681883 0.861587 0.000000 
0.684612 0.451026 0.000000 
-0.573571 0.954638 0.000000 
0.415238 0.121835 0.000000 
0.533524 -0.271327 0.000000 
-0.965812 0.313856 0.000000 
0.364144 -0.626853 0.000000 
0.595096 -0.934979 0.000000 
0.946884 -0.110261 0.000000 
0.514118 0.701682 0.000000 
0.826186 0.434882 0.000000 
0.963337 -0.861379 0.000000 
0.863696 0.028178 0.000000 
-0.743089 -0.165398 0.000000 
-0.880813 0.734631 0.000000 
-0.555549 -0.547179 0.000000 
-0.136568 -0.586865 0.000000 
-0.460886 0.111648 0.000000 
0.116466 -0.888628 0.000000 
0.482219 -0.822920 0.000000 
0.776650 0.951440 0.000000 
-0.865130 -0.851123 0.000000 
-0.111363 -0.143951 0.000000 
0.682158 -0.469218 0.000000 
0.230085 0.226391 0.000000 
0.785388 -0.918964 0.000000 
-0.734034 -0.559339 0.000000 
-0.558696 0.609954 0.000000 
-0.854255 -0.392186 0.000000 
0.231718 -0.706771 0.000000 
-0.561100 0.604974 0.000000 
0.780632 0.124159 0.000000 
0.215752 -0.994882 0.000000 
-0.462433 0.450139 0.000000 
0.895071 0.271411 0.000000 
-0.054573 0.468866 0.000000 
0.137421 0.851948 0.000000 
0.436584 -0.889876 0.000000 
0.367225 -0.467744 0.000000 
-0.137294 -0.901741 0.000000 
0.457138 -0.064442 0.000000 
-0.012881 -0.520505 0.000000 
0.163955 0.244724 0.000000 
-0.488009 0.870782 0.000000 
0.037156 0.658715 0.000000 
-0.159751 0.044532 0.000000 
-0.500136 0.221938 0.000000 
-0.246673 -0.317394 0.000000 
-0.651673 -0.429208 0.000000 
-0.786702 -0.075981 0.000000 
-0.768596 -0.859795 0.000000 
0.792053 0.642302 0.000000 
0.579669 -0.098415 0.000000 
-0.405356 0.646201 0.000000 
0.939676 -0.969157 0.000000 
0.657172 -0.636520 0.000000 
0.644454 -0.268933 0.000000 
0.345486 -0.831800 0.000000 
0.925074 0.016695 0.000000 
0.810853 0.426275 0.000000 
0.880351 0.822448 0.000000 
0.481737 -0.991621 0.000000 
0.444460 0.430547 0.000000 
0.215264 0.711479 0.000000 
-0.193502 0.518610 0.000000 
0.342676 0.024559 0.000000 
-0.104683 -0.761304 0.000000 
0.413868 0.776067 0.000000 
-0.075508 0.047051 0.000000 
-0.274359 0.852966 0.000000 
0.120271 0.567297 0.000000 
0.183054 0.063706 0.000000 
-0.727227 0.938673 0.000000 
-0.315983 -0.349313 0.000000 
CELL_DATA 184 
SCALARS MASS float 
LOOKUP_TABLE default 
0.051252 
0.046008 
0.051531 
0.046188 
0.052854 
0.051531 
0.052854 
0.052854 
0.051531 
0.050859 
0.052854 
0.047395 
0.052854 
0.052854 
0.051434 
0.045995 
0.052854 
0.051281 
0.051530 
0.046441 
0.052854 
0.052854 
0.050612 
0.049065 
0.052975 
0.049197 
0.049245 
0.052975 
0.052990 
0.055938 
0.049713 
0.052094 
0.055938 
0.050456 
0.055938 
0.053198 
0.052878 
0.049051 
0.052807 
0.049481 
0.052974 
0.049465 
0.049257 
0.055938 
0.105225 
0.104629 
0.082126 
0.094264 
0.094771 
0.094259 
0.094771 
0.083366 
0.104047 
0.083092 
0.081316 
0.081315 
0.092719 
0.079469 
0.108073 
0.092710 
0.108073 
0.093129 
0.104035 
0.094961 
0.104398 
0.081316 
0.125285 
0.099128 
0.098320 
0.087841 
0.082650 
0.097481 
0.086914 
0.081921 
0.086680 
0.086680 
0.081485 
0.107769 
0.088711 
0.084874 
0.107874 
0.082612 
0.095190 
0.095229 
0.083942 
0.085089 
0.079923 
0.081132 
0.095301 
0.097917 
0.090576 
0.085268 
0.095896 
0.081062 
0.095454 
0.090083 
0.081027 
0.085251 
0.101961 
0.083022 
0.095445 
0.080604 
0.081018 
0.085240 
0.097826 
0.090495 
0.095435 
0.095845 
0.081023 
0.085241 
0.090072 
0.081024 
0.095436 
0.101966 
0.083028 
0.085242 
0.080610 
0.081024 
0.095437 
0.082345 
0.082694 
0.085242 
0.109264 
0.089885 
0.095437 
0.108636 
0.083028 
0.085242 
0.080610 
0.074817 
0.073569 
0.082490 
0.095437 
0.095617 
0.133784 
0.138292 
0.139667 
0.139695 
0.139694 
0.139689 
0.139693 
0.140105 
0.139774 
0.086622 
0.086622 
0.089038 
0.077179 
0.079159 
0.072465 
0.084345 
0.092656 
0.093083 
0.084037 
0.098826 
0.101847 
0.085968 
0.086444 
0.074619 
0.064825 
0.094138 
0.124406 
0.086607 
0.131576 
0.102571 
0.084703 
0.076503 
0.084191 
0.084191 
0.086793 
0.075696 
0.084714 
0.090949 
0.084009 
0.076569 
0.086383 
0.098391 
0.110757 
0.093222 
0.143196 
0.101090 
0.091038 
0.150913 
0.178131 
0.206980 
SCALARS MASS float 
LOOKUP_TABLE default 
0.051252 
0.046008 
0.051531 
0.046188 
0.052854 
0.051531 
0.052854 
0.052854 
0.051531 
0.050859 
0.052854 
0.047395 
0.052854 
0.052854 
0.051434 
0.045995 
0.052854 
0.051281 
0.051530 
0.046441 
0.052854 
0.052854 
0.050612 
0.049065 
0.052975 
0.049197 
0.049245 
0.052975 
0.052990 
0.055938 
0.049713 
0.052094 
0.055938 
0.050456 
0.055938 
0.053198 
0.052878 
0.049051 
0.052807 
0.049481 
0.052974 
0.049465 
0.049257 
0.055938 
0.105225 
0.104629 
0.082126 
0.094264 
0.094771 
0.094259 
0.094771 
0.083366 
0.104047 
0.083092 
0.081316 
0.081315 
0.092719 
0.079469 
0.108073 
0.092710 
0.108073 
0.093129 
0.104035 
0.094961 
0.104398 
0.081316 
0.125285 
0.099128 
0.098320 
0.087841 
0.082650 
0.097481 
0.086914 
0.081921 
0.086680 
0.086680 
0.081485 
0.107769 
0.088711 
0.084874 
0.107874 
0.082612 
0.095190 
0.095229 
0.083942 
0.085089 
0.079923 
0.081132 
0.095301 
0.097917 
0.090576 
0.085268 
0.095896 
0.081062 
0.095454 
0.090083 
0.081027 
0.085251 
0.101961 
0.083022 
0.095445 
0.080604 
0.081018 
0.085240 
0.097826 
0.090495 
0.095435 
0.095845 
0.081023 
0.085241 
0.090072 
0.081024 
0.095436 
0.101966 
0.083028 
0.085242 
0.080610 
0.081024 
0.095437 
0.082345 
0.082694 
0.085242 
0.109264 
0.089885 
0.095437 
0.108636 
0.083028 
0.085242 
0.080610 
0.074817 
0.073569 
0.082490 
0.095437 
0.095617 
0.133784 
0.138292 
0.139667 
0.139695 
0.139694 
0.139689 
0.139693 
0.140105 
0.139774 
0.086622 
0.086622 
0.089038 
0.077179 
0.079159 
0.072465 
0.084345 
0.092656 
0.093083 
0.084037 
0.098826 
0.101847 
0.085968 
0.086444 
0.074619 
0.064825 
0.094138 
0.124406 
0.086607 
0.131576 
0.102571 
0.084703 
0.076503 
0.084191 
0.084191 
0.086793 
0.075696 
0.084714 
0.090949 
0.084009 
0.076569 
0.086383 
0.098391 
0.110757 
0.093222 
0.143196 
0.101090 
0.091038 
0.150913 
0.178131 
0.206980 
SCALARS DENSITY float 
LOOKUP_TABLE default 
20.000000 
20.000000 
20.000000 
20.000000 
20.000000 
20.000000 
20.000000 
20.000000 
20.000000 
20.000000 
20.000000 
20.000000 
20.000000 
20.000000 
20.000000 
20.000000 
20.000000 
20.000000 
20.000000 
20.000000 
20.000000 
20.000000 
20.000000 
20.000000 
20.000000 
20.000000 
20.000000 
20.000000 
20.000000 
20.000000 
20.000000 
20.000000 
20.000000 
20.000000 
20.000000 
20.000000 
20.000000 
20.000000 
20.000000 
20.000000 
20.000000 
20.000000 
20.000000 
20.000000 
20.000000 
20.000000 
20.000000 
20.000000 
20.000000 
20.000000 
20.000000 
20.000000 
20.000000 
20.000000 
20.000000 
20.000000 
20.000000 
20.000000 
20.000000 
20.000000 
20.000000 
20.000000 
20.000000 
20.000000 
20.000000 
20.000000 
20.000000 
20.000000 
20.000000 
20.000000 
20.000000 
20.000000 
20.000000 
20.000000 
20.000000 
20.000000 
20.000000 
20.000000 
20.000000 
20.000000 
20.000000 
20.000000 
20.000000 
20.000000 
20.000000 
20.000000 
20.000000 
20.000000 
20.000000 
20.000000 
20.000000 
20.000000 
20.000000 
20.000000 
20.000000 
20.000000 
20.000000 
20.000000 
20.000000 
20.000000 
20.000000 
20.000000 
20.000000 
20.000000 
20.000000 
20.000000 
20.000000 
20.000000 
20.000000 
20.000000 
20.000000 
20.000000 
20.000000 
20.000000 
20.000000 
20.000000 
20.000000 
20.000000 
20.000000 
20.000000 
20.000000 
20.000000 
20.000000 
20.000000 
20.000000 
20.000000 
20.000000 
20.000000 
20.000000 
20.000000 
20.000000 
20.000000 
20.000000 
20.000000 
20.000000 
20.000000 
20.000000 
20.000000 
20.000000 
20.000000 
20.000000 
20.000000 
20.000000 
20.000000 
20.000000 
20.000000 
20.000000 
20.000000 
20.000000 
20.000000 
20.000000 
20.000000 
20.000000 
20.000000 
20.000000 
20.000000 
20.000000 
20.000000 
20.000000 
20.000000 
20.000000 
20.000000 
20.000000 
20.000000 
20.000000 
20.000000 
20.000000 
20.000000 
20.000000 
20.000000 
20.000000 
20.000000 
20.000000 
20.000000 
20.000000 
20.000000 
20.000000 
20.000000 
20.000000 
20.000000 
20.000000 
20.000000 
20.000000 
20.000000 
SCALARS ELEM_i float 
LOOKUP_TABLE default 
207 
224 
165 
226 
184 
187 
206 
204 
166 
225 
164 
207 
204 
166 
225 
184 
187 
226 
184 
166 
224 
165 
207 
224 
165 
226 
184 
187 
226 
204 
166 
225 
165 
207 
204 
166 
225 
164 
187 
226 
184 
166 
224 
165 
207 
166 
187 
184 
204 
224 
164 
226 
226 
166 
187 
184 
204 
225 
165 
164 
204 
206 
225 
225 
186 
165 
206 
206 
206 
206 
206 
206 
206 
206 
206 
206 
206 
226 
226 
206 
225 
225 
206 
225 
225 
225 
225 
225 
225 
224 
204 
205 
204 
204 
205 
204 
204 
204 
204 
184 
204 
184 
184 
184 
184 
184 
184 
184 
184 
184 
165 
165 
185 
165 
165 
185 
165 
165 
165 
166 
166 
165 
166 
186 
186 
186 
186 
186 
186 
186 
187 
206 
186 
186 
206 
205 
204 
185 
185 
184 
186 
205 
204 
206 
186 
206 
206 
205 
205 
205 
205 
205 
205 
206 
205 
205 
205 
205 
205 
205 
205 
186 
186 
205 
185 
185 
185 
185 
185 
185 
185 
184 
185 
185 
185 
185 
185 
186 
185 
186 
186 
186 
205 
185 
VECTORS VELOCITY float 
-0.000000 -5.022720 0.000000 
0.000000 -5.022720 0.000000 
-0.000000 -5.022720 0.000000 
-0.000000 -5.022720 0.000000 
0.000000 -5.022720 0.000000 
-0.000000 -5.022720 0.000000 
0.000000 -5.022720 0.000000 
0.000000 -5.022720 0.000000 
0.000000 -5.022720 0.000000 
0.000000 -5.022720 0.000000 
0.000000 -5.022720 0.000000 
0.000000 -5.022720 0.000000 
0.000000 -5.022720 0.000000 
0.000000 -5.022720 0.000000 
0.000000 -5.022720 0.000000 
-0.000000 -5.022720 0.000000 
0.000000 -5.022720 0.000000 
-0.000000 -5.022720 0.000000 
-0.000000 -5.022720 0.000000 
0.000000 -5.022720 0.000000 
0.000000 -5.022720 0.000000 
0.000000 -5.022720 0.000000 
-0.000000 -5.022720 0.000000 
-0.000000 -5.022720 0.000000 
-0.000000 -5.022720 0.000000 
-0.000000 -5.022720 0.000000 
0.000000 -5.022720 0.000000 
0.000000 -5.022720 0.000000 
-0.000000 -5.022720 0.000000 
0.000000 -5.022720 0.000000 
-0.000000 -5.022720 0.000000 
0.000000 -5.022720 0.000000 
0.000000 -5.022720 0.000000 
-0.000000 -5.022720 0.000000 
0.000000 -5.022720 0.000000 
0.000000 -5.022720 0.000000 
0.000000 -5.022720 0.000000 
-0.000000 -5.022720 0.000000 
-0.000000 -5.022720 0.000000 
-0.000000 -5.022720 0.000000 
0.000000 -5.022720 0.000000 
0.000000 -5.022720 0.000000 
0.000000 -5.022720 0.000000 
0.000000 -5.022720 0.000000 
0.000000 -5.022720 0.000000 
-0.000000 -5.022720 0.000000 
0.000000 -5.022720 0.000000 
-0.000000 -5.022720 0.000000 
0.000000 -5.022720 0.000000 
0.000000 -5.022720 0.000000 
0.000000 -5.022720 0.000000 
-0.000000 -5.022720 0.000000 
-0.000000 -5.022720 0.000000 
0.000000 -5.022720 0.000000 
-0.000000 -5.022720 0.000000 
0.000000 -5.022720 0.000000 
0.000000 -5.022720 0.000000 
0.000000 -5.022720 0.000000 
-0.000000 -5.022720 0.000000 
-0.000000 -5.022720 0.000000 
-0.000000 -5.022720 0.000000 
-0.000000 -5.022720 0.000000 
0.000000 -5.022720 0.000000 
0.000000 -5.022720 0.000000 
0.000000 -5.022720 0.000000 
0.000000 -5.022720 0.000000 
-0.000000 -5.022720 0.000000 
-0.000000 -5.022720 0.000000 
-0.000000 -5.022720 0.000000 
-0.000000 -5.022720 0.000000 
-0.000000 -5.022720 0.000000 
0.000000 -5.022720 0.000000 
-0.000000 -5.022720 0.000000 
0.000000 -5.022720 0.000000 
-0.000000 -5.022720 0.000000 
-0.000000 -5.022720 0.000000 
0.000000 -5.022720 0.000000 
-0.000000 -5.022720 0.000000 
0.000000 -5.022720 0.000000 
0.000000 -5.022720 0.000000 
0.000000 -5.022720 0.000000 
0.000000 -5.022720 0.000000 
0.000000 -5.022720 0.000000 
0.000000 -5.022720 0.000000 
0.000000 -5.022720 0.000000 
0.000000 -5.022720 0.000000 
0.000000 -5.022720 0.000000 
0.000000 -5.022720 0.000000 
0.000000 -5.022720 0.000000 
0.000000 -5.022720 0.000000 
-0.000000 -5.022720 0.000000 
0.000000 -5.022720 0.000000 
-0.000000 -5.022720 0.000000 
-0.000000 -5.022720 0.000000 
0.000000 -5.022720 0.000000 
0.000000 -5.022720 0.000000 
-0.000000 -5.022720 0.000000 
-0.000000 -5.022720 0.000000 
0.000000 -5.022720 0.000000 
-0.000000 -5.022720 0.000000 
0.000000 -5.022720 0.000000 
-0.000000 -5.022720 0.000000 
-0.000000 -5.022720 0.000000 
0.000000 -5.022720 0.000000 
-0.000000 -5.022720 0.000000 
-0.000000 -5.022720 0.000000 
-0.000000 -5.022720 0.000000 
-0.000000 -5.022720 0.000000 
-0.000000 -5.022720 0.000000 
-0.000000 -5.022720 0.000000 
-0.000000 -5.022720 0.000000 
0.000000 -5.022720 0.000000 
-0.000000 -5.022720 0.000000 
-0.000000 -5.022720 0.000000 
-0.000000 -5.022720 0.000000 
-0.000000 -5.022720 0.000000 
0.000000 -5.022720 0.000000 
0.000000 -5.022720 0.000000 
0.000000 -5.022720 0.000000 
0.000000 -5.022720 0.000000 
0.000000 -5.022720 0.000000 
0.000000 -5.022720 0.000000 
-0.000000 -5.022720 0.000000 
-0.000000 -5.022720 0.000000 
-0.000000 -5.022720 0.000000 
-0.000000 -5.022720 0.000000 
-0.000000 -5.022720 0.000000 
-0.000000 -5.022720 0.000000 
0.000000 -5.022720 0.000000 
0.000000 -5.022720 0.000000 
-0.000000 -5.022720 0.000000 
0.000000 -5.022720 0.000000 
-0.000000 -5.022720 0.000000 
-0.000000 -5.022720 0.000000 
-0.000000 -5.022720 0.000000 
0.000000 -5.022720 0.000000 
0.000000 -5.022720 0.000000 
0.000000 -5.022720 0.000000 
0.000000 -5.022720 0.000000 
-0.000000 -5.022720 0.000000 
-0.000000 -5.022720 0.000000 
0.000000 -5.022720 0.000000 
0.000000 -5.022720 0.000000 
-0.000000 -5.022720 0.000000 
-0.000000 -5.022720 0.000000 
-0.000000 -5.022720 0.000000 
0.000000 -5.022720 0.000000 
0.000000 -5.022720 0.000000 
0.000000 -5.022720 0.000000 
0.000000 -5.022720 0.000000 
0.000000 -5.022720 0.000000 
0.000000 -5.022720 0.000000 
0.000000 -5.022720 0.000000 
-0.000000 -5.022720 0.000000 
0.000000 -5.022720 0.000000 
0.000000 -5.022720 0.000000 
0.000000 -5.022720 0.000000 
0.000000 -5.022720 0.000000 
-0.000000 -5.022720 0.000000 
-0.000000 -5.022720 0.000000 
-0.000000 -5.022720 0.000000 
-0.000000 -5.022720 0.000000 
-0.000000 -5.022720 0.000000 
0.000000 -5.022720 0.000000 
-0.000000 -5.022720 0.000000 
-0.000000 -5.022720 0.000000 
-0.000000 -5.022720 0.000000 
-0.000000 -5.022720 0.000000 
-0.000000 -5.022720 0.000000 
-0.000000 -5.022720 0.000000 
-0.000000 -5.022720 0.000000 