# vtk DataFile Version 3.0 
vtk output 
ASCII 
DATASET UNSTRUCTURED_GRID 
POINTS 175 float 
1.441273 -3.015446 0.000000 
69339149809995890688.000000 -581849727748283170816.000000 0.000000 
209.072317 -598.595952 0.000000 
0.317485 -3.042946 0.000000 
0.317409 -2.784595 0.000000 
0.434697 -2.893807 0.000000 
0.198235 -2.784168 0.000000 
0.264512 -2.876064 0.000000 
0.076483 -2.748959 0.000000 
-0.145579 -2.230722 0.000000 
-0.102579 -2.263006 0.000000 
-0.122302 -2.212903 0.000000 
-0.062558 -2.361110 0.000000 
-0.075332 -2.249668 0.000000 
-0.023485 -2.494014 0.000000 
-0.022089 -2.281561 0.000000 
-0.290926 -2.192266 0.000000 
-0.231524 -2.179696 0.000000 
-0.242268 -2.126309 0.000000 
-0.193177 -2.131746 0.000000 
-0.203197 -2.062750 0.000000 
-0.140003 -2.087953 0.000000 
-0.104004 -2.054260 0.000000 
-0.054693 -2.074148 0.000000 
-0.018451 -2.046947 0.000000 
1.423945 -1.442332 0.000000 
1806.539395 -998.389926 0.000000 
2623.548369 -1448.638628 0.000000 
749364969162001743872.000000 -317945851641923371008.000000 0.000000 
2683500.421613 -2772267.713318 0.000000 
-10186958734052.246094 19406503128090.488281 0.000000 
1246.478259 -689.279569 0.000000 
990.525672 -1552.219781 0.000000 
1614.702016 -892.090155 0.000000 
-0.274464 -2.431965 0.000000 
60.799745 -36.083703 0.000000 
-0.254274 -2.427770 0.000000 
-0.221948 -2.434423 0.000000 
-0.199688 -2.400182 0.000000 
-0.091045 -2.401159 0.000000 
-0.180105 -2.332277 0.000000 
-0.371046 -2.406286 0.000000 
-0.338892 -2.412972 0.000000 
-0.444830 -2.347533 0.000000 
-0.394149 -2.356605 0.000000 
-0.386032 -2.341440 0.000000 
-0.373314 -2.337923 0.000000 
-0.341607 -2.331070 0.000000 
-0.324983 -2.326724 0.000000 
-0.314577 -2.300890 0.000000 
1.008411 -0.266271 0.000000 
2688.840847 -1176.724057 0.000000 
3182.143476 -1134.557355 0.000000 
2257.818313 -1247.118047 0.000000 
3597.766420 766.897910 0.000000 
2436.775486 -1345.758382 0.000000 
2030.518222 -1121.847543 0.000000 
1744.946736 -964.451425 0.000000 
890.455548 -493.474239 0.000000 
1694.652885 -936.130357 0.000000 
2265.496574 278.423624 0.000000 
1878408.615250 -1944122.897106 0.000000 
3165009621.198544 -3853088559.388535 0.000000 
1101097.800259 -1135151.219067 0.000000 
20912.179771 -18469.084545 0.000000 
-0.408705 -2.414829 0.000000 
-134895276.504024 24473817.290018 0.000000 
-69761964.451173 -5036113.460057 0.000000 
242626976.955258 -1369634.548780 0.000000 
42.452458 -26.028189 0.000000 
42.734035 -26.202200 0.000000 
107.582227 -61.936439 0.000000 
-0.614616 -2.391480 0.000000 
-0.559087 -2.398532 0.000000 
-0.505618 -2.408343 0.000000 
0.641369 1.018468 0.000000 
3314864.131557 -3432684.766157 0.000000 
0.537369 2.127564 0.000000 
5309.239658 1487.541865 0.000000 
829160739.637968 -4622982440.306102 0.000000 
3003038.363421 -3103010.336288 0.000000 
2036935.373496 -2102552.972743 0.000000 
764720.188008 -782793.066433 0.000000 
5495.153852 2825.579435 0.000000 
32069370680782905344.000000 -52258276803850321920.000000 0.000000 
-149969423078174.968750 285742505086875.500000 0.000000 
-147175746985781.343750 -32962551502321.890625 0.000000 
-0.662724 -2.134588 0.000000 
-391003.984359 -9310.407895 0.000000 
-234133.222188 -449508.216269 0.000000 
-7066035.229597 -23512546.421088 0.000000 
251302505945263833088.000000 85475523810498347008.000000 0.000000 
-1005689960055594.125000 -213428872069397.468750 0.000000 
-337581569013852.875000 -54710869211849.734375 0.000000 
-122038048689102.187500 -28091867531569.160156 0.000000 
-0.413367 -3.149908 0.000000 
-324662.715172 -6669.265657 0.000000 
-885840.072352 -50270.267319 0.000000 
-2663885.312557 -79921.973111 0.000000 
-24577833.887417 3530326.557068 0.000000 
0.545195 0.514530 0.000000 
44094440.260387 -246496816.851250 0.000000 
176030583.433953 -980810685.118826 0.000000 
316952585.409763 -1771271580.809239 0.000000 
2488.119620 1479.877191 0.000000 
-108.100258 1732.706462 0.000000 
-1165.896238 1742.744838 0.000000 
249009720.254299 -1392016897.628910 0.000000 
1276415066.310091 -7136411385.692626 0.000000 
1854.790684 1179.915979 0.000000 
-2489.097892 470.861895 0.000000 
-3456.589775 323.690173 0.000000 
-3165009664.488159 3866244463.935181 0.000000 
-0.139160 -2.686020 0.000000 
2145246603.658151 -12005263469.791014 0.000000 
0.025495 -2.491956 0.000000 
7068.654072 2296.654368 0.000000 
5540.993858 2472.443010 0.000000 
1691.112106 2056.909845 0.000000 
-4613.834366 574.282786 0.000000 
-1010.575329 988.675704 0.000000 
847.004840 1064.114675 0.000000 
-3405678482998706044928.000000 83433852098279112704.000000 0.000000 
767027268510052777984.000000 217767384930770518016.000000 0.000000 
1543205532426838212608.000000 530707548918061989888.000000 0.000000 
0.487640 -0.768419 0.000000 
-2002.955484 -441.652867 0.000000 
-6739.426574 10.169549 0.000000 
-1196.374397 1517.053479 0.000000 
-0.036810 -2.561985 0.000000 
-0.054015 -2.586296 0.000000 
0.053385 -2.460341 0.000000 
83838.568093 -90702.751173 0.000000 
-5099.522400 45.064490 0.000000 
0.117706 -2.279402 0.000000 
-0.010856 -2.234838 0.000000 
-0.364281 -1.638323 0.000000 
-0.457824 -1.609336 0.000000 
-0.604026 -1.403884 0.000000 
0.061367 -2.427239 0.000000 
259.904656 82.356030 0.000000 
0.354734 -2.284154 0.000000 
0.086055 -1.991666 0.000000 
-0.050985 -1.808559 0.000000 
0.276288 -0.928201 0.000000 
0.731182 -0.284553 0.000000 
1.817092 1.408549 0.000000 
3.255356 2.636534 0.000000 
385.567465 123.683007 0.000000 
218.973109 68.955142 0.000000 
8.804721 -17.809657 0.000000 
0.019285 -2.958378 0.000000 
-1205.703786 -252.526362 0.000000 
-0.388343 -2.970001 0.000000 
-0.002582 -2.704081 0.000000 
-0.084030 -2.726199 0.000000 
-0.121599 -2.626646 0.000000 
-0.161190 -2.689265 0.000000 
-0.103130 -2.624441 0.000000 
0.007360 -2.266549 0.000000 
0.004010 -2.435391 0.000000 
0.057250 -2.233268 0.000000 
0.044046 -2.334503 0.000000 
0.103203 -2.245823 0.000000 
0.085223 -2.313918 0.000000 
0.121374 -2.316011 0.000000 
0.013297 -2.046565 0.000000 
0.047987 -2.071604 0.000000 
0.100541 -2.052099 0.000000 
0.130745 -2.090556 0.000000 
0.194434 -2.066757 0.000000 
0.171374 -2.162400 0.000000 
0.224683 -2.151148 0.000000 
0.222638 -2.218415 0.000000 
0.304464 -2.205077 0.000000 
CELLS 175 350 
1 0 
1 1 
1 2 
1 3 
1 4 
1 5 
1 6 
1 7 
1 8 
1 9 
1 10 
1 11 
1 12 
1 13 
1 14 
1 15 
1 16 
1 17 
1 18 
1 19 
1 20 
1 21 
1 22 
1 23 
1 24 
1 25 
1 26 
1 27 
1 28 
1 29 
1 30 
1 31 
1 32 
1 33 
1 34 
1 35 
1 36 
1 37 
1 38 
1 39 
1 40 
1 41 
1 42 
1 43 
1 44 
1 45 
1 46 
1 47 
1 48 
1 49 
1 50 
1 51 
1 52 
1 53 
1 54 
1 55 
1 56 
1 57 
1 58 
1 59 
1 60 
1 61 
1 62 
1 63 
1 64 
1 65 
1 66 
1 67 
1 68 
1 69 
1 70 
1 71 
1 72 
1 73 
1 74 
1 75 
1 76 
1 77 
1 78 
1 79 
1 80 
1 81 
1 82 
1 83 
1 84 
1 85 
1 86 
1 87 
1 88 
1 89 
1 90 
1 91 
1 92 
1 93 
1 94 
1 95 
1 96 
1 97 
1 98 
1 99 
1 100 
1 101 
1 102 
1 103 
1 104 
1 105 
1 106 
1 107 
1 108 
1 109 
1 110 
1 111 
1 112 
1 113 
1 114 
1 115 
1 116 
1 117 
1 118 
1 119 
1 120 
1 121 
1 122 
1 123 
1 124 
1 125 
1 126 
1 127 
1 128 
1 129 
1 130 
1 131 
1 132 
1 133 
1 134 
1 135 
1 136 
1 137 
1 138 
1 139 
1 140 
1 141 
1 142 
1 143 
1 144 
1 145 
1 146 
1 147 
1 148 
1 149 
1 150 
1 151 
1 152 
1 153 
1 154 
1 155 
1 156 
1 157 
1 158 
1 159 
1 160 
1 161 
1 162 
1 163 
1 164 
1 165 
1 166 
1 167 
1 168 
1 169 
1 170 
1 171 
1 172 
1 173 
1 174 
CELL_TYPES 175 
1 
1 
1 
1 
1 
1 
1 
1 
1 
1 
1 
1 
1 
1 
1 
1 
1 
1 
1 
1 
1 
1 
1 
1 
1 
1 
1 
1 
1 
1 
1 
1 
1 
1 
1 
1 
1 
1 
1 
1 
1 
1 
1 
1 
1 
1 
1 
1 
1 
1 
1 
1 
1 
1 
1 
1 
1 
1 
1 
1 
1 
1 
1 
1 
1 
1 
1 
1 
1 
1 
1 
1 
1 
1 
1 
1 
1 
1 
1 
1 
1 
1 
1 
1 
1 
1 
1 
1 
1 
1 
1 
1 
1 
1 
1 
1 
1 
1 
1 
1 
1 
1 
1 
1 
1 
1 
1 
1 
1 
1 
1 
1 
1 
1 
1 
1 
1 
1 
1 
1 
1 
1 
1 
1 
1 
1 
1 
1 
1 
1 
1 
1 
1 
1 
1 
1 
1 
1 
1 
1 
1 
1 
1 
1 
1 
1 
1 
1 
1 
1 
1 
1 
1 
1 
1 
1 
1 
1 
1 
1 
1 
1 
1 
1 
1 
1 
1 
1 
1 
1 
1 
1 
1 
1 
1 
POINT_DATA 175 
VECTORS X_GC float 
1.441273 -3.015446 0.000000 
69339149809995890688.000000 -581849727748283170816.000000 0.000000 
209.072317 -598.595952 0.000000 
0.317485 -3.042946 0.000000 
0.317409 -2.784595 0.000000 
0.434697 -2.893807 0.000000 
0.198235 -2.784168 0.000000 
0.264512 -2.876064 0.000000 
0.076483 -2.748959 0.000000 
-0.145579 -2.230722 0.000000 
-0.102579 -2.263006 0.000000 
-0.122302 -2.212903 0.000000 
-0.062558 -2.361110 0.000000 
-0.075332 -2.249668 0.000000 
-0.023485 -2.494014 0.000000 
-0.022089 -2.281561 0.000000 
-0.290926 -2.192266 0.000000 
-0.231524 -2.179696 0.000000 
-0.242268 -2.126309 0.000000 
-0.193177 -2.131746 0.000000 
-0.203197 -2.062750 0.000000 
-0.140003 -2.087953 0.000000 
-0.104004 -2.054260 0.000000 
-0.054693 -2.074148 0.000000 
-0.018451 -2.046947 0.000000 
1.423945 -1.442332 0.000000 
1806.539395 -998.389926 0.000000 
2623.548369 -1448.638628 0.000000 
749364969162001743872.000000 -317945851641923371008.000000 0.000000 
2683500.421613 -2772267.713318 0.000000 
-10186958734052.246094 19406503128090.488281 0.000000 
1246.478259 -689.279569 0.000000 
990.525672 -1552.219781 0.000000 
1614.702016 -892.090155 0.000000 
-0.274464 -2.431965 0.000000 
60.799745 -36.083703 0.000000 
-0.254274 -2.427770 0.000000 
-0.221948 -2.434423 0.000000 
-0.199688 -2.400182 0.000000 
-0.091045 -2.401159 0.000000 
-0.180105 -2.332277 0.000000 
-0.371046 -2.406286 0.000000 
-0.338892 -2.412972 0.000000 
-0.444830 -2.347533 0.000000 
-0.394149 -2.356605 0.000000 
-0.386032 -2.341440 0.000000 
-0.373314 -2.337923 0.000000 
-0.341607 -2.331070 0.000000 
-0.324983 -2.326724 0.000000 
-0.314577 -2.300890 0.000000 
1.008411 -0.266271 0.000000 
2688.840847 -1176.724057 0.000000 
3182.143476 -1134.557355 0.000000 
2257.818313 -1247.118047 0.000000 
3597.766420 766.897910 0.000000 
2436.775486 -1345.758382 0.000000 
2030.518222 -1121.847543 0.000000 
1744.946736 -964.451425 0.000000 
890.455548 -493.474239 0.000000 
1694.652885 -936.130357 0.000000 
2265.496574 278.423624 0.000000 
1878408.615250 -1944122.897106 0.000000 
3165009621.198544 -3853088559.388535 0.000000 
1101097.800259 -1135151.219067 0.000000 
20912.179771 -18469.084545 0.000000 
-0.408705 -2.414829 0.000000 
-134895276.504024 24473817.290018 0.000000 
-69761964.451173 -5036113.460057 0.000000 
242626976.955258 -1369634.548780 0.000000 
42.452458 -26.028189 0.000000 
42.734035 -26.202200 0.000000 
107.582227 -61.936439 0.000000 
-0.614616 -2.391480 0.000000 
-0.559087 -2.398532 0.000000 
-0.505618 -2.408343 0.000000 
0.641369 1.018468 0.000000 
3314864.131557 -3432684.766157 0.000000 
0.537369 2.127564 0.000000 
5309.239658 1487.541865 0.000000 
829160739.637968 -4622982440.306102 0.000000 
3003038.363421 -3103010.336288 0.000000 
2036935.373496 -2102552.972743 0.000000 
764720.188008 -782793.066433 0.000000 
5495.153852 2825.579435 0.000000 
32069370680782905344.000000 -52258276803850321920.000000 0.000000 
-149969423078174.968750 285742505086875.500000 0.000000 
-147175746985781.343750 -32962551502321.890625 0.000000 
-0.662724 -2.134588 0.000000 
-391003.984359 -9310.407895 0.000000 
-234133.222188 -449508.216269 0.000000 
-7066035.229597 -23512546.421088 0.000000 
251302505945263833088.000000 85475523810498347008.000000 0.000000 
-1005689960055594.125000 -213428872069397.468750 0.000000 
-337581569013852.875000 -54710869211849.734375 0.000000 
-122038048689102.187500 -28091867531569.160156 0.000000 
-0.413367 -3.149908 0.000000 
-324662.715172 -6669.265657 0.000000 
-885840.072352 -50270.267319 0.000000 
-2663885.312557 -79921.973111 0.000000 
-24577833.887417 3530326.557068 0.000000 
0.545195 0.514530 0.000000 
44094440.260387 -246496816.851250 0.000000 
176030583.433953 -980810685.118826 0.000000 
316952585.409763 -1771271580.809239 0.000000 
2488.119620 1479.877191 0.000000 
-108.100258 1732.706462 0.000000 
-1165.896238 1742.744838 0.000000 
249009720.254299 -1392016897.628910 0.000000 
1276415066.310091 -7136411385.692626 0.000000 
1854.790684 1179.915979 0.000000 
-2489.097892 470.861895 0.000000 
-3456.589775 323.690173 0.000000 
-3165009664.488159 3866244463.935181 0.000000 
-0.139160 -2.686020 0.000000 
2145246603.658151 -12005263469.791014 0.000000 
0.025495 -2.491956 0.000000 
7068.654072 2296.654368 0.000000 
5540.993858 2472.443010 0.000000 
1691.112106 2056.909845 0.000000 
-4613.834366 574.282786 0.000000 
-1010.575329 988.675704 0.000000 
847.004840 1064.114675 0.000000 
-3405678482998706044928.000000 83433852098279112704.000000 0.000000 
767027268510052777984.000000 217767384930770518016.000000 0.000000 
1543205532426838212608.000000 530707548918061989888.000000 0.000000 
0.487640 -0.768419 0.000000 
-2002.955484 -441.652867 0.000000 
-6739.426574 10.169549 0.000000 
-1196.374397 1517.053479 0.000000 
-0.036810 -2.561985 0.000000 
-0.054015 -2.586296 0.000000 
0.053385 -2.460341 0.000000 
83838.568093 -90702.751173 0.000000 
-5099.522400 45.064490 0.000000 
0.117706 -2.279402 0.000000 
-0.010856 -2.234838 0.000000 
-0.364281 -1.638323 0.000000 
-0.457824 -1.609336 0.000000 
-0.604026 -1.403884 0.000000 
0.061367 -2.427239 0.000000 
259.904656 82.356030 0.000000 
0.354734 -2.284154 0.000000 
0.086055 -1.991666 0.000000 
-0.050985 -1.808559 0.000000 
0.276288 -0.928201 0.000000 
0.731182 -0.284553 0.000000 
1.817092 1.408549 0.000000 
3.255356 2.636534 0.000000 
385.567465 123.683007 0.000000 
218.973109 68.955142 0.000000 
8.804721 -17.809657 0.000000 
0.019285 -2.958378 0.000000 
-1205.703786 -252.526362 0.000000 
-0.388343 -2.970001 0.000000 
-0.002582 -2.704081 0.000000 
-0.084030 -2.726199 0.000000 
-0.121599 -2.626646 0.000000 
-0.161190 -2.689265 0.000000 
-0.103130 -2.624441 0.000000 
0.007360 -2.266549 0.000000 
0.004010 -2.435391 0.000000 
0.057250 -2.233268 0.000000 
0.044046 -2.334503 0.000000 
0.103203 -2.245823 0.000000 
0.085223 -2.313918 0.000000 
0.121374 -2.316011 0.000000 
0.013297 -2.046565 0.000000 
0.047987 -2.071604 0.000000 
0.100541 -2.052099 0.000000 
0.130745 -2.090556 0.000000 
0.194434 -2.066757 0.000000 
0.171374 -2.162400 0.000000 
0.224683 -2.151148 0.000000 
0.222638 -2.218415 0.000000 
0.304464 -2.205077 0.000000 
VECTORS X_EC float 
0.853828 0.400835 0.000000 
0.030244 0.691545 0.000000 
0.490372 -0.191061 0.000000 
0.428299 0.195979 0.000000 
-0.126316 0.092027 0.000000 
0.348938 -0.433606 0.000000 
-0.577053 0.086264 0.000000 
0.561343 -0.673133 0.000000 
-0.994279 -0.389059 0.000000 
-0.107473 0.614750 0.000000 
-0.666468 -0.949420 0.000000 
-0.410074 0.374190 0.000000 
0.813253 0.374991 0.000000 
0.979316 0.870518 0.000000 
0.305300 0.169192 0.000000 
0.287160 -0.698930 0.000000 
-0.217964 0.095587 0.000000 
-0.990186 -0.074100 0.000000 
-0.850514 -0.794833 0.000000 
0.511298 -0.721423 0.000000 
0.641556 0.347119 0.000000 
-0.179959 0.687366 0.000000 
-0.647951 0.232507 0.000000 
0.711003 0.501003 0.000000 
0.239866 0.133781 0.000000 
-0.672377 -0.548921 0.000000 
-0.243853 0.524228 0.000000 
-0.825300 0.508185 0.000000 
-0.580660 -0.013857 0.000000 
-0.201421 0.332891 0.000000 
0.722891 -0.796282 0.000000 
-0.276632 0.025215 0.000000 
0.565184 0.984218 0.000000 
-0.615806 0.049194 0.000000 
-0.431963 -0.668479 0.000000 
0.776249 -0.714059 0.000000 
-0.694440 -0.725100 0.000000 
0.885322 -0.635291 0.000000 
0.595941 0.902451 0.000000 
-0.816419 0.915649 0.000000 
0.341369 -0.014260 0.000000 
0.823598 0.984867 0.000000 
0.405597 -0.924875 0.000000 
-0.217212 0.191701 0.000000 
-0.876067 0.314172 0.000000 
-0.981587 0.109441 0.000000 
0.853076 0.061959 0.000000 
0.440887 -0.030550 0.000000 
0.224783 -0.089232 0.000000 
0.089504 -0.437978 0.000000 
0.011030 -0.777445 0.000000 
-0.339762 -0.929300 0.000000 
-0.526321 -0.875262 0.000000 
-0.302116 0.819806 0.000000 
-0.250196 -0.320871 0.000000 
-0.286666 0.987688 0.000000 
-0.222744 0.742871 0.000000 
-0.168465 0.567315 0.000000 
0.097361 0.035348 0.000000 
-0.534217 0.159784 0.000000 
0.170137 -0.418842 0.000000 
-0.403396 -0.200051 0.000000 
-0.979619 -0.861022 0.000000 
0.254797 -0.119524 0.000000 
0.950213 -0.798124 0.000000 
-0.686838 -0.899805 0.000000 
0.808930 0.945648 0.000000 
-0.057878 0.819844 0.000000 
0.315175 0.903630 0.000000 
0.921367 -0.428164 0.000000 
0.931334 -0.340033 0.000000 
0.843232 -0.276660 0.000000 
-0.009994 0.784985 0.000000 
-0.731874 0.880176 0.000000 
0.573028 -0.987370 0.000000 
-0.109053 0.301283 0.000000 
-0.967073 0.007397 0.000000 
0.576035 0.724565 0.000000 
-0.770171 -0.239922 0.000000 
0.741352 0.455148 0.000000 
-0.282950 0.396969 0.000000 
0.011432 0.228953 0.000000 
0.607018 0.154199 0.000000 
-0.532791 0.169478 0.000000 
0.885200 -0.506816 0.000000 
-0.247327 -0.333774 0.000000 
0.748521 0.978687 0.000000 
0.615417 -0.683066 0.000000 
-0.748521 0.978687 0.000000 
0.241775 -0.330793 0.000000 
-0.891866 -0.507652 0.000000 
0.704269 0.937207 0.000000 
-0.724313 0.961051 0.000000 
0.412755 0.887080 0.000000 
0.791852 0.988079 0.000000 
-0.649465 0.961921 0.000000 
-0.791852 0.988079 0.000000 
-0.412755 0.887080 0.000000 
0.724313 0.961051 0.000000 
-0.704269 0.937207 0.000000 
0.912460 -0.446148 0.000000 
0.439415 -0.964180 0.000000 
0.773831 -0.646997 0.000000 
0.500436 -0.711187 0.000000 
-0.206855 0.017580 0.000000 
0.225072 0.733806 0.000000 
0.318189 0.933755 0.000000 
0.427602 -0.801893 0.000000 
0.386718 -0.052045 0.000000 
-0.168350 -0.165345 0.000000 
0.683415 -0.085685 0.000000 
0.846116 -0.057340 0.000000 
-0.990892 0.843781 0.000000 
-0.190922 0.761273 0.000000 
-0.140490 -0.142289 0.000000 
-0.331438 0.141407 0.000000 
0.713518 0.170595 0.000000 
-0.444216 0.449101 0.000000 
0.046070 0.729728 0.000000 
0.783187 0.397569 0.000000 
0.364536 0.160082 0.000000 
0.052557 -0.098786 0.000000 
-0.315175 0.903630 0.000000 
0.044765 0.818738 0.000000 
-0.808930 0.945648 0.000000 
-0.339322 0.873652 0.000000 
-0.106942 0.197069 0.000000 
-0.714947 0.851764 0.000000 
0.334401 0.716301 0.000000 
0.478533 -0.913206 0.000000 
0.702196 -0.585002 0.000000 
-0.694009 -0.285399 0.000000 
-0.120845 -0.953608 0.000000 
-0.758960 0.348792 0.000000 
0.469820 -0.728078 0.000000 
0.141124 0.670314 0.000000 
0.735653 0.617355 0.000000 
-0.048292 0.226041 0.000000 
-0.147664 -0.547563 0.000000 
-0.797765 -0.732272 0.000000 
0.782545 -0.958616 0.000000 
-0.611545 -0.663927 0.000000 
0.881290 -0.612515 0.000000 
0.662809 0.915547 0.000000 
0.408258 -0.969286 0.000000 
0.494640 0.341464 0.000000 
0.455989 0.366511 0.000000 
0.144741 0.336189 0.000000 
-0.304589 -0.841909 0.000000 
-0.739963 -0.757366 0.000000 
-0.020912 0.056290 0.000000 
-0.250702 0.438100 0.000000 
-0.123841 -0.302257 0.000000 
-0.951538 0.595010 0.000000 
0.033571 -0.994902 0.000000 
-0.907612 -0.696316 0.000000 
-0.419214 -0.040279 0.000000 
0.095467 0.805077 0.000000 
-0.659306 -0.070042 0.000000 
-0.095682 -0.901590 0.000000 
-0.052133 -0.622225 0.000000 
-0.744247 0.649121 0.000000 
-0.572596 0.015797 0.000000 
0.658357 0.818611 0.000000 
0.892107 -0.262103 0.000000 
0.422143 -0.233848 0.000000 
-0.172860 0.128625 0.000000 
-0.623830 0.466652 0.000000 
0.692971 0.203331 0.000000 
0.300321 0.722506 0.000000 
-0.527645 0.401216 0.000000 
-0.227859 -0.307606 0.000000 
-0.920874 -0.459503 0.000000 
-0.894291 0.448607 0.000000 
0.041962 0.268546 0.000000 
CELL_DATA 175 
SCALARS MASS float 
LOOKUP_TABLE default 
0.781831 
0.864274 
0.946717 
0.864274 
0.881307 
0.921110 
0.858535 
0.921110 
0.881307 
0.887046 
0.910001 
0.869829 
0.915556 
0.869829 
0.910001 
0.887046 
0.892784 
0.915740 
0.892784 
0.927218 
0.892784 
0.927218 
0.892784 
0.915740 
0.892784 
0.781831 
0.864274 
0.946717 
0.864274 
0.881307 
0.921110 
0.858535 
0.921110 
0.881307 
0.887046 
0.910001 
0.869829 
0.915556 
0.869829 
0.910001 
0.887046 
0.892784 
0.915740 
0.892784 
0.927218 
0.892784 
0.927218 
0.892784 
0.915740 
0.892784 
0.781831 
0.864274 
0.946717 
0.864274 
0.881307 
0.921110 
0.858535 
0.921110 
0.881307 
0.887046 
0.910001 
0.869829 
0.915556 
0.869829 
0.910001 
0.887046 
0.892784 
0.915740 
0.892784 
0.927218 
0.892784 
0.927218 
0.892784 
0.915740 
0.892784 
0.781831 
0.864274 
0.946717 
0.864274 
0.881307 
0.921110 
0.858535 
0.921110 
0.881307 
0.887046 
0.910001 
0.869829 
0.915556 
0.869829 
0.910001 
0.887046 
0.892784 
0.915740 
0.892784 
0.927218 
0.892784 
0.927218 
0.892784 
0.915740 
0.892784 
0.781831 
0.864274 
0.946717 
0.864274 
0.881307 
0.921110 
0.858535 
0.921110 
0.881307 
0.887046 
0.910001 
0.869829 
0.915556 
0.869829 
0.910001 
0.887046 
0.892784 
0.915740 
0.892784 
0.927218 
0.892784 
0.927218 
0.892784 
0.915740 
0.892784 
0.781831 
0.864274 
0.946717 
0.864274 
0.881307 
0.921110 
0.858535 
0.921110 
0.881307 
0.887046 
0.910001 
0.869829 
0.915556 
0.869829 
0.910001 
0.887046 
0.892784 
0.915740 
0.892784 
0.927218 
0.892784 
0.927218 
0.892784 
0.915740 
0.892784 
0.781831 
0.864274 
0.946717 
0.864274 
0.881307 
0.921110 
0.858535 
0.921110 
0.881307 
0.887046 
0.910001 
0.869829 
0.915556 
0.869829 
0.910001 
0.887046 
0.892784 
0.915740 
0.892784 
0.927218 
0.892784 
0.927218 
0.892784 
0.915740 
0.892784 
SCALARS MASS float 
LOOKUP_TABLE default 
0.781831 
0.864274 
0.946717 
0.864274 
0.881307 
0.921110 
0.858535 
0.921110 
0.881307 
0.887046 
0.910001 
0.869829 
0.915556 
0.869829 
0.910001 
0.887046 
0.892784 
0.915740 
0.892784 
0.927218 
0.892784 
0.927218 
0.892784 
0.915740 
0.892784 
0.781831 
0.864274 
0.946717 
0.864274 
0.881307 
0.921110 
0.858535 
0.921110 
0.881307 
0.887046 
0.910001 
0.869829 
0.915556 
0.869829 
0.910001 
0.887046 
0.892784 
0.915740 
0.892784 
0.927218 
0.892784 
0.927218 
0.892784 
0.915740 
0.892784 
0.781831 
0.864274 
0.946717 
0.864274 
0.881307 
0.921110 
0.858535 
0.921110 
0.881307 
0.887046 
0.910001 
0.869829 
0.915556 
0.869829 
0.910001 
0.887046 
0.892784 
0.915740 
0.892784 
0.927218 
0.892784 
0.927218 
0.892784 
0.915740 
0.892784 
0.781831 
0.864274 
0.946717 
0.864274 
0.881307 
0.921110 
0.858535 
0.921110 
0.881307 
0.887046 
0.910001 
0.869829 
0.915556 
0.869829 
0.910001 
0.887046 
0.892784 
0.915740 
0.892784 
0.927218 
0.892784 
0.927218 
0.892784 
0.915740 
0.892784 
0.781831 
0.864274 
0.946717 
0.864274 
0.881307 
0.921110 
0.858535 
0.921110 
0.881307 
0.887046 
0.910001 
0.869829 
0.915556 
0.869829 
0.910001 
0.887046 
0.892784 
0.915740 
0.892784 
0.927218 
0.892784 
0.927218 
0.892784 
0.915740 
0.892784 
0.781831 
0.864274 
0.946717 
0.864274 
0.881307 
0.921110 
0.858535 
0.921110 
0.881307 
0.887046 
0.910001 
0.869829 
0.915556 
0.869829 
0.910001 
0.887046 
0.892784 
0.915740 
0.892784 
0.927218 
0.892784 
0.927218 
0.892784 
0.915740 
0.892784 
0.781831 
0.864274 
0.946717 
0.864274 
0.881307 
0.921110 
0.858535 
0.921110 
0.881307 
0.887046 
0.910001 
0.869829 
0.915556 
0.869829 
0.910001 
0.887046 
0.892784 
0.915740 
0.892784 
0.927218 
0.892784 
0.927218 
0.892784 
0.915740 
0.892784 
SCALARS DENSITY float 
LOOKUP_TABLE default 
3.406719 
0.000747 
-366.040118 
5031.508475 
699.927323 
149.926700 
79.441872 
43.688747 
123.009995 
44839.723126 
101108585.502663 
129.025547 
147.741541 
124.471807 
497.040076 
227.734970 
555.689156 
80.796620 
178.188911 
757.601558 
2190.346558 
243.059282 
385.145216 
566.569563 
175.367949 
31639725.684006 
11036432.864998 
-611398586.123460 
0.000420 
-565.667565 
1.231741 
218.165645 
-1617.157468 
221179.735631 
-277233.894645 
162777.499549 
-18947069.374032 
143157612.934257 
28415.018811 
5926.038555 
3537.150452 
6171.993526 
1368.717751 
127714.111457 
2542.108589 
1536.611543 
199.986283 
47.902077 
5405.060530 
170.582050 
-302704949.311508 
-370.573793 
-20191.971582 
-47277874.793758 
1646594664881934.500000 
2623.035738 
820.098288 
139584.301954 
2938061.809295 
6555792491858276352.000000 
49117942597829982683136.000000 
0.092690 
0.000034 
646.359295 
62.369914 
41449.365887 
-545722347743.430786 
0.003713 
0.000001 
7359921.291638 
262035.835738 
-161853.184135 
1280286.362088 
-6415644.575756 
914870.298756 
15.493521 
-12272.222547 
0.703240 
-45277.656304 
52111462535835137605544568532912846789410816.000000 
5028920.161108 
-374488211539851712.000000 
7504528.407739 
152060412747637062704979793249839561555574784.000000 
87158982633802.015625 
959446757.037208 
8033782586214.533203 
2914319.537688 
4167990865471894016.000000 
-95577931843843.953125 
9384234655672135680.000000 
0.037630 
-82117176395980447535818725004264716727975585775616.000000 
358351819921786147134689509376.000000 
-2561257131636715400423966222448739907206396975315512664818450432.000000 
7027.746055 
-1287892125181926875022060424797848300228014466840849171967134524243968.000000 
248953830769713096736134610234114048.000000 
38456992696258472115856378892564492111180727348963049472.000000 
-2230.103873 
-96362220.153478 
-883.357458 
8022.619060 
-55.921531 
13315.150656 
5246.809946 
40.720571 
-0.218971 
152924502598306.187500 
63734.281727 
19450.970591 
203506.542021 
0.000000 
32.585403 
2316653305998420738048.000000 
192722200104630648832.000000 
11286655.657399 
-17588184.114672 
1135266.637186 
-5471106.664486 
434127.365648 
10874897.346940 
-0.000000 
-0.000000 
1224132.261637 
28542337.974113 
-19.873332 
-209180.825461 
-363445624.680078 
176526.175680 
6633.507699 
262.241853 
317674.526353 
74336.746345 
7478.058059 
180657.658045 
214680.926767 
16328254.176513 
-26460179.904550 
15511033.446259 
-601653.314660 
187.459004 
6388.281415 
58.888562 
273.678473 
2132.479708 
33963.247550 
303779.515688 
2943.713394 
9903.182857 
4.767519 
8638.285491 
-341.551896 
701.386899 
158.298494 
84.272445 
156.715361 
50.437630 
2665.764897 
239.515714 
546.405120 
146.529868 
160.575951 
145.337025 
133722631.137091 
67045.438066 
166.519262 
767.354088 
383.661871 
292.013428 
2229.285616 
999.002163 
213.892067 
93.924832 
678.631870 
SCALARS ELEM_i float 
LOOKUP_TABLE default 
29 
109 
165 
166 
109 
81 
136 
108 
163 
194 
193 
194 
166 
167 
165 
166 
221 
221 
221 
194 
195 
195 
195 
168 
168 
61 
192 
192 
108 
164 
136 
192 
165 
192 
219 
192 
219 
192 
193 
193 
193 
220 
219 
247 
247 
247 
220 
220 
220 
220 
92 
191 
191 
192 
191 
192 
192 
192 
192 
192 
191 
164 
187 
164 
164 
246 
216 
216 
243 
192 
192 
192 
274 
274 
246 
124 
164 
128 
191 
137 
164 
164 
164 
191 
108 
136 
135 
275 
189 
190 
216 
108 
135 
135 
135 
245 
189 
189 
189 
216 
77 
137 
137 
137 
138 
138 
138 
137 
137 
138 
138 
138 
215 
191 
137 
165 
111 
138 
138 
138 
138 
138 
81 
108 
108 
96 
165 
165 
138 
164 
164 
165 
164 
165 
139 
167 
225 
252 
280 
165 
111 
112 
141 
170 
121 
45 
85 
85 
111 
111 
84 
162 
165 
243 
163 
190 
191 
191 
191 
166 
165 
167 
166 
140 
139 
139 
168 
168 
141 
141 
141 
140 
140 
140 
113 
VECTORS VELOCITY float 
368.860450 -178.062614 0.000000 
34669574904997698600960.000000 -290924863874141249339392.000000 0.000000 
104416.318653 -297878.115747 0.000000 
130.639076 -213.733595 0.000000 
187.806207 -182.202138 0.000000 
209.938893 -187.551937 0.000000 
115.642323 -210.192080 0.000000 
119.013184 -202.115150 0.000000 
40.244493 -205.321146 0.000000 
51.882646 -1.222843 0.000000 
51.040069 -22.157332 0.000000 
31.989268 -16.195418 0.000000 
33.345217 -79.692890 0.000000 
16.122435 -44.114040 0.000000 
13.253049 -150.345672 0.000000 
2.574195 -61.975745 0.000000 
17.841077 -10.923300 0.000000 
25.158924 -5.719307 0.000000 
10.367542 -13.712573 0.000000 
10.291458 -9.402914 0.000000 
-2.853631 4.264764 0.000000 
-1.189500 3.262183 0.000000 
6.003354 1.612369 0.000000 
1.440501 10.478801 0.000000 
5.679580 -1.621593 0.000000 
378.419795 202.947867 0.000000 
902921.603409 -497780.307050 0.000000 
1311384.863682 -722880.405462 0.000000 
374682484580999730561024.000000 -158972925820961596375040.000000 0.000000 
1341750062.547659 -1386116831.003625 0.000000 
-5093479372107183.000000 9703251574313642.000000 0.000000 
623024.287602 -343300.659181 0.000000 
495047.182004 -774756.443676 0.000000 
807115.257259 -444740.541304 0.000000 
-99.473620 54.097060 0.000000 
30411.038193 -16763.718252 0.000000 
-26.363174 -1.447506 0.000000 
-28.841600 -28.411918 0.000000 
32.236445 -18.006037 0.000000 
63.436388 -42.831404 0.000000 
49.616806 -25.809029 0.000000 
-0.357852 37.941851 0.000000 
-28.144138 32.046034 0.000000 
3.610444 9.415899 0.000000 
-7.390126 21.448589 0.000000 
14.614549 0.251452 0.000000 
-2.875023 -0.796630 0.000000 
31.450463 -21.833503 0.000000 
15.935652 -27.955067 0.000000 
27.710296 -36.071737 0.000000 
278.155821 489.255305 0.000000 
1344434.813949 -584470.618961 0.000000 
1591296.262589 -562315.816406 0.000000 
1128497.692949 -622101.318611 0.000000 
1803467.483812 409952.271114 0.000000 
1217949.128526 -671350.956475 0.000000 
1014902.744122 -559408.143746 0.000000 
872148.724843 -480755.443310 0.000000 
445037.087421 -245326.847387 0.000000 
847085.998770 -466508.803381 0.000000 
1138213.350610 169895.919106 0.000000 
939204049.623382 -972050690.104156 0.000000 
1650827391886.028564 -2009177415966.735840 0.000000 
550549639.639466 -567563330.436938 0.000000 
10456199.087488 -9230450.592631 0.000000 
-232.005166 91.865631 0.000000 
-64515986031.684464 12247324500.554005 0.000000 
-32676808829.777306 -2449654980.909389 0.000000 
111081332581.341461 -676582115.936540 0.000000 
21191.450848 -11609.781124 0.000000 
21329.393001 -11709.004428 0.000000 
53736.210175 -29596.524662 0.000000 
-345.613182 160.508224 0.000000 
-294.671091 113.438861 0.000000 
-200.316644 91.508616 0.000000 
162.644027 798.170331 0.000000 
1657430481.798424 -1716330231.428200 0.000000 
136.993665 1072.099454 0.000000 
2657228.042847 760652.533318 0.000000 
414580364829.939941 -2311491191898.420898 0.000000 
1501518660.628456 -1551487716.378311 0.000000 
1018468006.301475 -1051260473.810603 0.000000 
382361764.597453 -391380610.149043 0.000000 
2753656.621565 1446813.982792 0.000000 
16034685340390696943616.000000 -26129138401924521918464.000000 0.000000 
-74984711631072288.000000 142871252728984704.000000 0.000000 
-73587873698001504.000000 -16481275749961802.000000 0.000000 
1.027745 6.190049 0.000000 
5358434.952276 -3086626.742039 0.000000 