# vtk DataFile Version 3.0 
vtk output 
ASCII 
DATASET UNSTRUCTURED_GRID 
POINTS 184 float 
-0.029595 -2.043322 0.000000 
-0.356071 -2.881412 0.000000 
0.476718 -2.542614 0.000000 
-0.447856 -2.351868 0.000000 
0.183614 -3.060781 0.000000 
0.224579 -2.096172 0.000000 
-0.284696 -2.134967 0.000000 
-0.119126 -3.100737 0.000000 
0.417025 -2.296061 0.000000 
-0.465198 -2.619667 0.000000 
0.388697 -2.806884 0.000000 
-0.168080 -2.069760 0.000000 
-0.244743 -2.995106 0.000000 
0.469419 -2.412642 0.000000 
-0.475754 -2.486213 0.000000 
0.296188 -2.931591 0.000000 
0.101996 -2.053032 0.000000 
-0.375210 -2.231533 0.000000 
0.048563 -3.128676 0.000000 
0.336259 -2.179089 0.000000 
-0.421798 -2.736834 0.000000 
0.447359 -2.677643 0.000000 
-0.122540 -2.056718 0.000000 
-0.318053 -2.919300 0.000000 
0.477213 -2.495017 0.000000 
-0.463314 -2.395284 0.000000 
0.258949 -2.980175 0.000000 
0.181516 -2.076703 0.000000 
-0.345038 -2.193836 0.000000 
-0.064873 -3.113430 0.000000 
0.365481 -2.217096 0.000000 
-0.452700 -2.663385 0.000000 
0.427810 -2.720238 0.000000 
-0.210980 -2.089149 0.000000 
-0.167237 -3.069288 0.000000 
0.438933 -2.337737 0.000000 
-0.475174 -2.533523 0.000000 
0.336978 -2.901002 0.000000 
0.018418 -2.043371 0.000000 
-0.426552 -2.310186 0.000000 
0.102008 -3.112798 0.000000 
0.303129 -2.145015 0.000000 
-0.382575 -2.829173 0.000000 
0.460423 -2.633529 0.000000 
-0.080232 -2.075598 0.000000 
0.367566 -2.262218 0.000000 
0.048944 -2.072439 0.000000 
0.214607 -2.949358 0.000000 
-0.178905 -2.969462 0.000000 
-0.374034 -2.769109 0.000000 
0.390054 -2.732245 0.000000 
-0.305562 -2.187509 0.000000 
-0.386099 -2.290357 0.000000 
0.427999 -2.375408 0.000000 
0.141574 -2.091324 0.000000 
0.121267 -3.003215 0.000000 
-0.269587 -2.896576 0.000000 
-0.417341 -2.681318 0.000000 
0.442608 -2.591008 0.000000 
0.335141 -2.827424 0.000000 
-0.015712 -2.999930 0.000000 
-0.226011 -2.126922 0.000000 
-0.446483 -2.435999 0.000000 
-0.446841 -2.568792 0.000000 
0.257075 -2.144352 0.000000 
0.449599 -2.464806 0.000000 
-0.079694 -2.132108 0.000000 
-0.130796 -2.174566 0.000000 
-0.192106 -2.168930 0.000000 
-0.111927 -2.233683 0.000000 
-0.224222 -2.224102 0.000000 
-0.171374 -2.261659 0.000000 
-0.055565 -2.248061 0.000000 
-0.279233 -2.234485 0.000000 
-0.039991 -2.302910 0.000000 
-0.015128 -2.207763 0.000000 
-0.297084 -2.294746 0.000000 
-0.349584 -2.325648 0.000000 
-0.352652 -2.391293 0.000000 
-0.255359 -2.333932 0.000000 
-0.393652 -2.438574 0.000000 
-0.371883 -2.498165 0.000000 
-0.285692 -2.392401 0.000000 
-0.396809 -2.554664 0.000000 
-0.362356 -2.597873 0.000000 
-0.314870 -2.498575 0.000000 
-0.372445 -2.652636 0.000000 
-0.326410 -2.681022 0.000000 
-0.309622 -2.558365 0.000000 
-0.322296 -2.738056 0.000000 
-0.266022 -2.760517 0.000000 
-0.275684 -2.655912 0.000000 
-0.243703 -2.823249 0.000000 
-0.179406 -2.827103 0.000000 
-0.236737 -2.702496 0.000000 
-0.141978 -2.883441 0.000000 
-0.078726 -2.863484 0.000000 
-0.150044 -2.772621 0.000000 
-0.022479 -2.899403 0.000000 
0.035003 -2.867662 0.000000 
-0.088195 -2.794624 0.000000 
0.093641 -2.899305 0.000000 
0.134234 -2.848835 0.000000 
0.025799 -2.806906 0.000000 
0.197078 -2.859151 0.000000 
0.229751 -2.795099 0.000000 
0.090354 -2.793835 0.000000 
0.287792 -2.777312 0.000000 
0.301709 -2.714749 0.000000 
0.193596 -2.743613 0.000000 
0.351437 -2.691040 0.000000 
0.350108 -2.633992 0.000000 
0.239151 -2.699563 0.000000 
0.390396 -2.589075 0.000000 
0.372462 -2.532696 0.000000 
0.297308 -2.612585 0.000000 
0.398151 -2.480771 0.000000 
0.363750 -2.435736 0.000000 
0.310313 -2.554830 0.000000 
0.375263 -2.381698 0.000000 
0.327303 -2.342384 0.000000 
0.306660 -2.449090 0.000000 
0.321056 -2.280877 0.000000 
0.262497 -2.251149 0.000000 
0.283311 -2.388326 0.000000 
0.234603 -2.193051 0.000000 
0.171421 -2.187980 0.000000 
0.220147 -2.293269 0.000000 
0.133268 -2.142702 0.000000 
0.078045 -2.153790 0.000000 
0.033409 -2.120873 0.000000 
-0.020483 -2.150692 0.000000 
0.167408 -2.254973 0.000000 
0.047847 -2.207539 0.000000 
-0.184762 -2.311076 0.000000 
-0.268527 -2.441307 0.000000 
-0.041187 -2.771275 0.000000 
0.236106 -2.653706 0.000000 
0.280090 -2.516069 0.000000 
0.116798 -2.748987 0.000000 
0.235280 -2.368210 0.000000 
-0.268780 -2.588163 0.000000 
-0.184781 -2.707986 0.000000 
-0.080493 -2.344201 0.000000 
0.016163 -2.317059 0.000000 
-0.141916 -2.347456 0.000000 
-0.170818 -2.405685 0.000000 
-0.215969 -2.444974 0.000000 
-0.206124 -2.505963 0.000000 
-0.129473 -2.442169 0.000000 
-0.219990 -2.562801 0.000000 
-0.148649 -2.498086 0.000000 
-0.175769 -2.606468 0.000000 
-0.076507 -2.407399 0.000000 
-0.157148 -2.662437 0.000000 
-0.126869 -2.579584 0.000000 
-0.075617 -2.605329 0.000000 
-0.113526 -2.527678 0.000000 
-0.052236 -2.511258 0.000000 
-0.032148 -2.563812 0.000000 
-0.034338 -2.447150 0.000000 
0.031849 -2.372537 0.000000 
0.063416 -2.262291 0.000000 
-0.090298 -2.662074 0.000000 
0.009677 -2.430711 0.000000 
0.052080 -2.480124 0.000000 
0.053959 -2.535034 0.000000 
0.098893 -2.451808 0.000000 
0.011283 -2.577588 0.000000 
0.028262 -2.633984 0.000000 
0.017608 -2.686677 0.000000 
0.078313 -2.709974 0.000000 
0.083783 -2.633247 0.000000 
0.118709 -2.669809 0.000000 
0.180549 -2.642774 0.000000 
0.099346 -2.576962 0.000000 
0.166588 -2.462774 0.000000 
0.088753 -2.393040 0.000000 
0.162570 -2.578883 0.000000 
0.192200 -2.405564 0.000000 
0.132833 -2.361891 0.000000 
0.123208 -2.286170 0.000000 
-0.041939 -2.701633 0.000000 
0.198934 -2.522355 0.000000 
CELLS 184 368 
1 0 
1 1 
1 2 
1 3 
1 4 
1 5 
1 6 
1 7 
1 8 
1 9 
1 10 
1 11 
1 12 
1 13 
1 14 
1 15 
1 16 
1 17 
1 18 
1 19 
1 20 
1 21 
1 22 
1 23 
1 24 
1 25 
1 26 
1 27 
1 28 
1 29 
1 30 
1 31 
1 32 
1 33 
1 34 
1 35 
1 36 
1 37 
1 38 
1 39 
1 40 
1 41 
1 42 
1 43 
1 44 
1 45 
1 46 
1 47 
1 48 
1 49 
1 50 
1 51 
1 52 
1 53 
1 54 
1 55 
1 56 
1 57 
1 58 
1 59 
1 60 
1 61 
1 62 
1 63 
1 64 
1 65 
1 66 
1 67 
1 68 
1 69 
1 70 
1 71 
1 72 
1 73 
1 74 
1 75 
1 76 
1 77 
1 78 
1 79 
1 80 
1 81 
1 82 
1 83 
1 84 
1 85 
1 86 
1 87 
1 88 
1 89 
1 90 
1 91 
1 92 
1 93 
1 94 
1 95 
1 96 
1 97 
1 98 
1 99 
1 100 
1 101 
1 102 
1 103 
1 104 
1 105 
1 106 
1 107 
1 108 
1 109 
1 110 
1 111 
1 112 
1 113 
1 114 
1 115 
1 116 
1 117 
1 118 
1 119 
1 120 
1 121 
1 122 
1 123 
1 124 
1 125 
1 126 
1 127 
1 128 
1 129 
1 130 
1 131 
1 132 
1 133 
1 134 
1 135 
1 136 
1 137 
1 138 
1 139 
1 140 
1 141 
1 142 
1 143 
1 144 
1 145 
1 146 
1 147 
1 148 
1 149 
1 150 
1 151 
1 152 
1 153 
1 154 
1 155 
1 156 
1 157 
1 158 
1 159 
1 160 
1 161 
1 162 
1 163 
1 164 
1 165 
1 166 
1 167 
1 168 
1 169 
1 170 
1 171 
1 172 
1 173 
1 174 
1 175 
1 176 
1 177 
1 178 
1 179 
1 180 
1 181 
1 182 
1 183 
CELL_TYPES 184 
1 
1 
1 
1 
1 
1 
1 
1 
1 
1 
1 
1 
1 
1 
1 
1 
1 
1 
1 
1 
1 
1 
1 
1 
1 
1 
1 
1 
1 
1 
1 
1 
1 
1 
1 
1 
1 
1 
1 
1 
1 
1 
1 
1 
1 
1 
1 
1 
1 
1 
1 
1 
1 
1 
1 
1 
1 
1 
1 
1 
1 
1 
1 
1 
1 
1 
1 
1 
1 
1 
1 
1 
1 
1 
1 
1 
1 
1 
1 
1 
1 
1 
1 
1 
1 
1 
1 
1 
1 
1 
1 
1 
1 
1 
1 
1 
1 
1 
1 
1 
1 
1 
1 
1 
1 
1 
1 
1 
1 
1 
1 
1 
1 
1 
1 
1 
1 
1 
1 
1 
1 
1 
1 
1 
1 
1 
1 
1 
1 
1 
1 
1 
1 
1 
1 
1 
1 
1 
1 
1 
1 
1 
1 
1 
1 
1 
1 
1 
1 
1 
1 
1 
1 
1 
1 
1 
1 
1 
1 
1 
1 
1 
1 
1 
1 
1 
1 
1 
1 
1 
1 
1 
1 
1 
1 
1 
1 
1 
1 
1 
1 
1 
1 
1 
POINT_DATA 184 
VECTORS X_GC float 
-0.029595 -2.043322 0.000000 
-0.356071 -2.881412 0.000000 
0.476718 -2.542614 0.000000 
-0.447856 -2.351868 0.000000 
0.183614 -3.060781 0.000000 
0.224579 -2.096172 0.000000 
-0.284696 -2.134967 0.000000 
-0.119126 -3.100737 0.000000 
0.417025 -2.296061 0.000000 
-0.465198 -2.619667 0.000000 
0.388697 -2.806884 0.000000 
-0.168080 -2.069760 0.000000 
-0.244743 -2.995106 0.000000 
0.469419 -2.412642 0.000000 
-0.475754 -2.486213 0.000000 
0.296188 -2.931591 0.000000 
0.101996 -2.053032 0.000000 
-0.375210 -2.231533 0.000000 
0.048563 -3.128676 0.000000 
0.336259 -2.179089 0.000000 
-0.421798 -2.736834 0.000000 
0.447359 -2.677643 0.000000 
-0.122540 -2.056718 0.000000 
-0.318053 -2.919300 0.000000 
0.477213 -2.495017 0.000000 
-0.463314 -2.395284 0.000000 
0.258949 -2.980175 0.000000 
0.181516 -2.076703 0.000000 
-0.345038 -2.193836 0.000000 
-0.064873 -3.113430 0.000000 
0.365481 -2.217096 0.000000 
-0.452700 -2.663385 0.000000 
0.427810 -2.720238 0.000000 
-0.210980 -2.089149 0.000000 
-0.167237 -3.069288 0.000000 
0.438933 -2.337737 0.000000 
-0.475174 -2.533523 0.000000 
0.336978 -2.901002 0.000000 
0.018418 -2.043371 0.000000 
-0.426552 -2.310186 0.000000 
0.102008 -3.112798 0.000000 
0.303129 -2.145015 0.000000 
-0.382575 -2.829173 0.000000 
0.460423 -2.633529 0.000000 
-0.080232 -2.075598 0.000000 
0.367566 -2.262218 0.000000 
0.048944 -2.072439 0.000000 
0.214607 -2.949358 0.000000 
-0.178905 -2.969462 0.000000 
-0.374034 -2.769109 0.000000 
0.390054 -2.732245 0.000000 
-0.305562 -2.187509 0.000000 
-0.386099 -2.290357 0.000000 
0.427999 -2.375408 0.000000 
0.141574 -2.091324 0.000000 
0.121267 -3.003215 0.000000 
-0.269587 -2.896576 0.000000 
-0.417341 -2.681318 0.000000 
0.442608 -2.591008 0.000000 
0.335141 -2.827424 0.000000 
-0.015712 -2.999930 0.000000 
-0.226011 -2.126922 0.000000 
-0.446483 -2.435999 0.000000 
-0.446841 -2.568792 0.000000 
0.257075 -2.144352 0.000000 
0.449599 -2.464806 0.000000 
-0.079694 -2.132108 0.000000 
-0.130796 -2.174566 0.000000 
-0.192106 -2.168930 0.000000 
-0.111927 -2.233683 0.000000 
-0.224222 -2.224102 0.000000 
-0.171374 -2.261659 0.000000 
-0.055565 -2.248061 0.000000 
-0.279233 -2.234485 0.000000 
-0.039991 -2.302910 0.000000 
-0.015128 -2.207763 0.000000 
-0.297084 -2.294746 0.000000 
-0.349584 -2.325648 0.000000 
-0.352652 -2.391293 0.000000 
-0.255359 -2.333932 0.000000 
-0.393652 -2.438574 0.000000 
-0.371883 -2.498165 0.000000 
-0.285692 -2.392401 0.000000 
-0.396809 -2.554664 0.000000 
-0.362356 -2.597873 0.000000 
-0.314870 -2.498575 0.000000 
-0.372445 -2.652636 0.000000 
-0.326410 -2.681022 0.000000 
-0.309622 -2.558365 0.000000 
-0.322296 -2.738056 0.000000 
-0.266022 -2.760517 0.000000 
-0.275684 -2.655912 0.000000 
-0.243703 -2.823249 0.000000 
-0.179406 -2.827103 0.000000 
-0.236737 -2.702496 0.000000 
-0.141978 -2.883441 0.000000 
-0.078726 -2.863484 0.000000 
-0.150044 -2.772621 0.000000 
-0.022479 -2.899403 0.000000 
0.035003 -2.867662 0.000000 
-0.088195 -2.794624 0.000000 
0.093641 -2.899305 0.000000 
0.134234 -2.848835 0.000000 
0.025799 -2.806906 0.000000 
0.197078 -2.859151 0.000000 
0.229751 -2.795099 0.000000 
0.090354 -2.793835 0.000000 
0.287792 -2.777312 0.000000 
0.301709 -2.714749 0.000000 
0.193596 -2.743613 0.000000 
0.351437 -2.691040 0.000000 
0.350108 -2.633992 0.000000 
0.239151 -2.699563 0.000000 
0.390396 -2.589075 0.000000 
0.372462 -2.532696 0.000000 
0.297308 -2.612585 0.000000 
0.398151 -2.480771 0.000000 
0.363750 -2.435736 0.000000 
0.310313 -2.554830 0.000000 
0.375263 -2.381698 0.000000 
0.327303 -2.342384 0.000000 
0.306660 -2.449090 0.000000 
0.321056 -2.280877 0.000000 
0.262497 -2.251149 0.000000 
0.283311 -2.388326 0.000000 
0.234603 -2.193051 0.000000 
0.171421 -2.187980 0.000000 
0.220147 -2.293269 0.000000 
0.133268 -2.142702 0.000000 
0.078045 -2.153790 0.000000 
0.033409 -2.120873 0.000000 
-0.020483 -2.150692 0.000000 
0.167408 -2.254973 0.000000 
0.047847 -2.207539 0.000000 
-0.184762 -2.311076 0.000000 
-0.268527 -2.441307 0.000000 
-0.041187 -2.771275 0.000000 
0.236106 -2.653706 0.000000 
0.280090 -2.516069 0.000000 
0.116798 -2.748987 0.000000 
0.235280 -2.368210 0.000000 
-0.268780 -2.588163 0.000000 
-0.184781 -2.707986 0.000000 
-0.080493 -2.344201 0.000000 
0.016163 -2.317059 0.000000 
-0.141916 -2.347456 0.000000 
-0.170818 -2.405685 0.000000 
-0.215969 -2.444974 0.000000 
-0.206124 -2.505963 0.000000 
-0.129473 -2.442169 0.000000 
-0.219990 -2.562801 0.000000 
-0.148649 -2.498086 0.000000 
-0.175769 -2.606468 0.000000 
-0.076507 -2.407399 0.000000 
-0.157148 -2.662437 0.000000 
-0.126869 -2.579584 0.000000 
-0.075617 -2.605329 0.000000 
-0.113526 -2.527678 0.000000 
-0.052236 -2.511258 0.000000 
-0.032148 -2.563812 0.000000 
-0.034338 -2.447150 0.000000 
0.031849 -2.372537 0.000000 
0.063416 -2.262291 0.000000 
-0.090298 -2.662074 0.000000 
0.009677 -2.430711 0.000000 
0.052080 -2.480124 0.000000 
0.053959 -2.535034 0.000000 
0.098893 -2.451808 0.000000 
0.011283 -2.577588 0.000000 
0.028262 -2.633984 0.000000 
0.017608 -2.686677 0.000000 
0.078313 -2.709974 0.000000 
0.083783 -2.633247 0.000000 
0.118709 -2.669809 0.000000 
0.180549 -2.642774 0.000000 
0.099346 -2.576962 0.000000 
0.166588 -2.462774 0.000000 
0.088753 -2.393040 0.000000 
0.162570 -2.578883 0.000000 
0.192200 -2.405564 0.000000 
0.132833 -2.361891 0.000000 
0.123208 -2.286170 0.000000 
-0.041939 -2.701633 0.000000 
0.198934 -2.522355 0.000000 
VECTORS X_EC float 
-0.802703 0.622150 0.000000 
-0.626195 0.209413 0.000000 
-0.178118 -0.049239 0.000000 
-0.014295 0.679118 0.000000 
-0.248183 0.946404 0.000000 
-0.497193 0.974480 0.000000 
0.897976 -0.766888 0.000000 
-0.208874 0.964511 0.000000 
0.219833 0.307073 0.000000 
0.101323 0.464445 0.000000 
0.408686 -0.287442 0.000000 
0.120530 0.798402 0.000000 
0.631623 0.967376 0.000000 
-0.129459 -0.915720 0.000000 
0.171692 -0.425246 0.000000 
-0.974590 0.543943 0.000000 
0.320029 0.686882 0.000000 
-0.498603 -0.123114 0.000000 
0.674495 0.937567 0.000000 
0.758271 -0.472738 0.000000 
-0.188011 -0.754439 0.000000 
0.017607 0.850952 0.000000 
-0.183067 0.711451 0.000000 
-0.879644 0.462002 0.000000 
-0.181420 -0.366551 0.000000 
0.088762 0.968561 0.000000 
-0.726327 0.867833 0.000000 
-0.210104 0.844686 0.000000 
-0.699749 -0.374429 0.000000 
-0.572427 0.921027 0.000000 
0.563460 -0.219363 0.000000 
0.018003 0.755901 0.000000 
0.147933 -0.865083 0.000000 
0.406531 0.927660 0.000000 
0.119212 0.951185 0.000000 
0.073778 0.584911 0.000000 
0.167826 -0.109846 0.000000 
0.753481 0.340015 0.000000 
0.877212 0.622475 0.000000 
-0.156317 0.401238 0.000000 
0.304228 0.957028 0.000000 
0.979141 -0.699903 0.000000 
-0.449498 -0.138848 0.000000 
-0.069486 0.556858 0.000000 
-0.465120 0.837318 0.000000 
0.549563 0.081453 0.000000 
0.673705 0.816262 0.000000 
-0.430712 0.662384 0.000000 
0.192698 0.796411 0.000000 
-0.506439 -0.539272 0.000000 
0.399637 -0.785034 0.000000 
-0.962922 -0.416609 0.000000 
-0.426007 0.269045 0.000000 
0.146671 0.836054 0.000000 
0.056172 0.942161 0.000000 
0.184510 0.990440 0.000000 
0.797250 0.310507 0.000000 
-0.217726 0.875451 0.000000 
0.049278 0.273388 0.000000 
0.765724 -0.150507 0.000000 
-0.895255 0.999530 0.000000 
0.506742 -0.820518 0.000000 
-0.023443 -0.760009 0.000000 
-0.021061 0.125281 0.000000 
-0.713831 -0.704319 0.000000 
0.002674 -0.567960 0.000000 
-0.468706 -0.785943 0.000000 
-0.128026 -0.502897 0.000000 
0.280704 -0.540468 0.000000 
-0.253823 -0.108778 0.000000 
0.494814 -0.172650 0.000000 
0.142493 0.077725 0.000000 
-0.629564 -0.012930 0.000000 
0.861556 -0.103432 0.000000 
-0.733394 0.352730 0.000000 
-0.899149 -0.281580 0.000000 
0.980558 0.298308 0.000000 
-0.669438 0.504317 0.000000 
-0.648984 0.941952 0.000000 
0.702392 0.559546 0.000000 
-0.375657 -0.742840 0.000000 
-0.520777 -0.345568 0.000000 
0.904611 0.949343 0.000000 
-0.354605 0.031093 0.000000 
-0.584296 0.319152 0.000000 
-0.900865 -0.342834 0.000000 
-0.517030 0.684239 0.000000 
-0.823936 0.873479 0.000000 
-0.935852 0.055769 0.000000 
-0.851361 -0.746292 0.000000 
0.773483 -0.596552 0.000000 
0.837892 0.706078 0.000000 
0.624684 -0.178341 0.000000 
0.196040 -0.152648 0.000000 
0.578245 -0.983363 0.000000 
-0.053477 0.222937 0.000000 
-0.475163 0.089892 0.000000 
0.000295 -0.515862 0.000000 
-0.850137 0.329352 0.000000 
0.766644 0.117746 0.000000 
-0.412036 -0.369173 0.000000 
0.375726 0.328699 0.000000 
0.105106 -0.007768 0.000000 
0.828005 -0.287291 0.000000 
-0.313850 0.061009 0.000000 
-0.531675 -0.366009 0.000000 
0.397641 -0.374434 0.000000 
-0.918611 -0.484584 0.000000 
0.988607 -0.901670 0.000000 
-0.290641 -0.709246 0.000000 
0.657085 0.940268 0.000000 
0.665945 0.559949 0.000000 
-0.594340 0.997089 0.000000 
0.397363 0.260499 0.000000 
0.516917 -0.115359 0.000000 
-0.982051 0.417236 0.000000 
0.345657 -0.461526 0.000000 
0.575003 -0.761757 0.000000 
0.931246 0.032202 0.000000 
0.498245 0.877990 0.000000 
0.817981 0.615892 0.000000 
0.955601 -0.672734 0.000000 
0.859628 0.205844 0.000000 
-0.749979 0.007659 0.000000 
-0.888738 0.922171 0.000000 
-0.564019 -0.379660 0.000000 
-0.142805 -0.413469 0.000000 
-0.467644 0.288463 0.000000 
0.111549 -0.715320 0.000000 
0.479698 -0.641402 0.000000 
0.777275 -0.860845 0.000000 
-0.863443 -0.662053 0.000000 
-0.116053 0.033153 0.000000 
0.681019 -0.283074 0.000000 
0.231749 0.407172 0.000000 
0.790179 -0.724617 0.000000 
-0.725419 -0.524836 0.000000 
-0.574043 0.691375 0.000000 
-0.867264 -0.226205 0.000000 
0.221347 -0.673419 0.000000 
-0.568536 0.788069 0.000000 
0.791865 0.254423 0.000000 
0.231871 -0.946757 0.000000 
-0.463382 0.628007 0.000000 
0.892249 0.447058 0.000000 
-0.053891 0.649708 0.000000 
0.138789 -0.962103 0.000000 
0.439793 -0.700177 0.000000 
0.374157 -0.293579 0.000000 
-0.136847 -0.718873 0.000000 
0.466601 0.085339 0.000000 
-0.009006 -0.346096 0.000000 
0.171794 0.376452 0.000000 
-0.489955 -0.950672 0.000000 
0.047655 0.749579 0.000000 
-0.154206 0.197229 0.000000 
-0.495887 0.368857 0.000000 
-0.243160 -0.148816 0.000000 
-0.651757 -0.258279 0.000000 
-0.785680 0.092080 0.000000 
-0.771081 -0.685669 0.000000 
0.787673 0.816912 0.000000 
0.577228 0.081938 0.000000 
-0.398015 0.747159 0.000000 
0.935487 -0.795263 0.000000 
0.652797 -0.465837 0.000000 
0.640273 -0.099772 0.000000 
0.340713 -0.654614 0.000000 
0.924779 0.183917 0.000000 
0.811585 0.559891 0.000000 
0.882611 0.911180 0.000000 
0.477915 -0.933510 0.000000 
0.441450 0.554977 0.000000 
0.208604 0.798726 0.000000 
-0.203659 0.618495 0.000000 
0.337692 0.179748 0.000000 
-0.110584 -0.581505 0.000000 
0.408313 0.953597 0.000000 
-0.083797 0.192554 0.000000 
-0.281336 -0.962904 0.000000 
0.114447 0.745942 0.000000 
0.178615 0.241137 0.000000 
-0.720405 -0.989112 0.000000 
-0.326224 -0.184301 0.000000 
CELL_DATA 184 
SCALARS MASS float 
LOOKUP_TABLE default 
0.051252 
0.046008 
0.051531 
0.046188 
0.052854 
0.051531 
0.052854 
0.052854 
0.051531 
0.050859 
0.052854 
0.047395 
0.052854 
0.052854 
0.051434 
0.045995 
0.052854 
0.051281 
0.051530 
0.046441 
0.052854 
0.052854 
0.050612 
0.049065 
0.052975 
0.049197 
0.049245 
0.052975 
0.052990 
0.055938 
0.049713 
0.052094 
0.055938 
0.050456 
0.055938 
0.053198 
0.052878 
0.049051 
0.052807 
0.049481 
0.052974 
0.049465 
0.049257 
0.055938 
0.105225 
0.104629 
0.082126 
0.094264 
0.094771 
0.094259 
0.094771 
0.083366 
0.104047 
0.083092 
0.081316 
0.081315 
0.092719 
0.079469 
0.108073 
0.092710 
0.108073 
0.093129 
0.104035 
0.094961 
0.104398 
0.081316 
0.125285 
0.099128 
0.098320 
0.087841 
0.082650 
0.097481 
0.086914 
0.081921 
0.086680 
0.086680 
0.081485 
0.107769 
0.088711 
0.084874 
0.107874 
0.082612 
0.095190 
0.095229 
0.083942 
0.085089 
0.079923 
0.081132 
0.095301 
0.097917 
0.090576 
0.085268 
0.095896 
0.081062 
0.095454 
0.090083 
0.081027 
0.085251 
0.101961 
0.083022 
0.095445 
0.080604 
0.081018 
0.085240 
0.097826 
0.090495 
0.095435 
0.095845 
0.081023 
0.085241 
0.090072 
0.081024 
0.095436 
0.101966 
0.083028 
0.085242 
0.080610 
0.081024 
0.095437 
0.082345 
0.082694 
0.085242 
0.109264 
0.089885 
0.095437 
0.108636 
0.083028 
0.085242 
0.080610 
0.074817 
0.073569 
0.082490 
0.095437 
0.095617 
0.133784 
0.138292 
0.139667 
0.139695 
0.139694 
0.139689 
0.139693 
0.140105 
0.139774 
0.086622 
0.086622 
0.089038 
0.077179 
0.079159 
0.072465 
0.084345 
0.092656 
0.093083 
0.084037 
0.098826 
0.101847 
0.085968 
0.086444 
0.074619 
0.064825 
0.094138 
0.124406 
0.086607 
0.131576 
0.102571 
0.084703 
0.076503 
0.084191 
0.084191 
0.086793 
0.075696 
0.084714 
0.090949 
0.084009 
0.076569 
0.086383 
0.098391 
0.110757 
0.093222 
0.143196 
0.101090 
0.091038 
0.150913 
0.178131 
0.206980 
SCALARS MASS float 
LOOKUP_TABLE default 
0.051252 
0.046008 
0.051531 
0.046188 
0.052854 
0.051531 
0.052854 
0.052854 
0.051531 
0.050859 
0.052854 
0.047395 
0.052854 
0.052854 
0.051434 
0.045995 
0.052854 
0.051281 
0.051530 
0.046441 
0.052854 
0.052854 
0.050612 
0.049065 
0.052975 
0.049197 
0.049245 
0.052975 
0.052990 
0.055938 
0.049713 
0.052094 
0.055938 
0.050456 
0.055938 
0.053198 
0.052878 
0.049051 
0.052807 
0.049481 
0.052974 
0.049465 
0.049257 
0.055938 
0.105225 
0.104629 
0.082126 
0.094264 
0.094771 
0.094259 
0.094771 
0.083366 
0.104047 
0.083092 
0.081316 
0.081315 
0.092719 
0.079469 
0.108073 
0.092710 
0.108073 
0.093129 
0.104035 
0.094961 
0.104398 
0.081316 
0.125285 
0.099128 
0.098320 
0.087841 
0.082650 
0.097481 
0.086914 
0.081921 
0.086680 
0.086680 
0.081485 
0.107769 
0.088711 
0.084874 
0.107874 
0.082612 
0.095190 
0.095229 
0.083942 
0.085089 
0.079923 
0.081132 
0.095301 
0.097917 
0.090576 
0.085268 
0.095896 
0.081062 
0.095454 
0.090083 
0.081027 
0.085251 
0.101961 
0.083022 
0.095445 
0.080604 
0.081018 
0.085240 
0.097826 
0.090495 
0.095435 
0.095845 
0.081023 
0.085241 
0.090072 
0.081024 
0.095436 
0.101966 
0.083028 
0.085242 
0.080610 
0.081024 
0.095437 
0.082345 
0.082694 
0.085242 
0.109264 
0.089885 
0.095437 
0.108636 
0.083028 
0.085242 
0.080610 
0.074817 
0.073569 
0.082490 
0.095437 
0.095617 
0.133784 
0.138292 
0.139667 
0.139695 
0.139694 
0.139689 
0.139693 
0.140105 
0.139774 
0.086622 
0.086622 
0.089038 
0.077179 
0.079159 
0.072465 
0.084345 
0.092656 
0.093083 
0.084037 
0.098826 
0.101847 
0.085968 
0.086444 
0.074619 
0.064825 
0.094138 
0.124406 
0.086607 
0.131576 
0.102571 
0.084703 
0.076503 
0.084191 
0.084191 
0.086793 
0.075696 
0.084714 
0.090949 
0.084009 
0.076569 
0.086383 
0.098391 
0.110757 
0.093222 
0.143196 
0.101090 
0.091038 
0.150913 
0.178131 
0.206980 
SCALARS DENSITY float 
LOOKUP_TABLE default 
22.332788 
149615.167161 
26.436887 
23.351410 
1640688917150.936279 
21.274645 
21.034885 
7733183443746.466797 
22.086344 
27.829773 
1173.115139 
21.540312 
6222543174.745003 
21.152834 
28.327428 
21354181.061790 
22.266439 
21.618763 
513264996877730.562500 
18.214790 
55.138457 
26.436677 
21.839409 
18626205.979050 
28.456990 
23.392479 
1186969901.822734 
21.663269 
18.803946 
230672520503033.093750 
18.899003 
26.927944 
39.212262 
21.187717 
532204234050.110291 
22.274461 
29.477640 
958960.961911 
22.725523 
23.104983 
967589482171156.875000 
20.992293 
4770.427401 
26.868832 
21.796445 
21.936422 
22.253592 
149896538.770517 
552312534.548703 
210.542239 
48.744291 
19.280694 
23.464028 
22.683317 
21.662192 
137955829770.239746 
7025165.681078 
24.555225 
23.409444 
17129.661086 
1630415510022.269531 
19.885550 
19.266117 
23.409817 
21.442346 
22.854105 
19.385617 
20.697076 
20.783091 
22.211973 
22.148957 
22.662312 
21.797562 
23.154320 
19.910238 
21.340580 
23.272960 
23.684416 
24.172125 
22.796985 
21.766632 
27.156543 
22.486200 
20.724903 
22.191654 
24.591407 
23.270284 
20.531499 
15.998923 
47.110242 
173.169539 
20.510560 
13373.368297 
35766.303426 
18.553664 
849067.417161 
202313.767474 
396.146379 
8944614.028739 
681754.477950 
1512.383193 
18017646.940196 
96189.626557 
3054.841476 
433471.496085 
2383.370999 
1519.662972 
493.427898 
22.062851 
80.072722 
23.143050 
23.885900 
18.088527 
21.551913 
22.646158 
20.508110 
26.080931 
21.828084 
16.995798 
23.007582 
22.866019 
25.634209 
22.545502 
23.596775 
22.371276 
21.402720 
21.121597 
22.203709 
20.372512 
20.814415 
19.842658 
19.970670 
22.660428 
21.628836 
21.729391 
22.560949 
535.079142 
20.156820 
19.404625 
140.474219 
22.426558 
20.422664 
19.026613 
21.790565 
20.683685 
22.127823 
21.669604 
21.921337 
19.277265 
20.695132 
19.352347 
18.200919 
25.323081 
21.063609 
20.030620 
25.917777 
30.232953 
20.058556 
18.206482 
29.171258 
18.104204 
21.541360 
21.617811 
19.954204 
20.903403 
14.878123 
22.488427 
19.183002 
32.669013 
24.531878 
18.161236 
19.658105 
23.690658 
19.049936 
21.118377 
26.601223 
18.712706 
21.432223 
22.927495 
21.698469 
22.063971 
21.246751 
18.230245 
19.405780 
SCALARS ELEM_i float 
LOOKUP_TABLE default 
203 
220 
161 
222 
180 
183 
202 
200 
162 
221 
160 
203 
200 
161 
221 
180 
183 
222 
180 
162 
220 
161 
203 
220 
161 
222 
180 
183 
222 
200 
162 
221 
160 
203 
200 
162 
221 
160 
183 
222 
180 
162 
220 
161 
203 
162 
183 
180 
200 
220 
160 
222 
222 
162 
183 
180 
200 
221 
161 
160 
200 
202 
221 
221 
182 
161 
202 
202 
202 
202 
202 
202 
202 
202 
202 
202 
202 
222 
222 
202 
221 
221 
202 
221 
221 
221 
221 
221 
221 
220 
200 
201 
200 
200 
200 
200 
200 
200 
200 
180 
200 
180 
180 
180 
180 
180 
180 
180 
160 
180 
161 
161 
181 
161 
161 
181 
161 
161 
161 
162 
162 
161 
162 
182 
182 
182 
182 
182 
182 
182 
182 
202 
182 
182 
202 
201 
200 
181 
181 
180 
182 
201 
200 
202 
182 
202 
201 
201 
201 
201 
201 
201 
201 
201 
201 
201 
201 
201 
201 
201 
201 
182 
182 
201 
181 
181 
181 
181 
181 
181 
181 
180 
181 
181 
181 
181 
181 
182 
181 
181 
182 
182 
200 
181 
VECTORS VELOCITY float 
-0.336320 -0.300655 0.000000 
-1.812411 -38.059026 0.000000 
-0.130552 -0.734033 0.000000 
0.275931 -2.075483 0.000000 
0.637834 -126.740880 0.000000 
1.048147 -0.026274 0.000000 
-0.098418 0.563104 0.000000 
-1.958542 -150.505021 0.000000 
-1.637708 -2.522404 0.000000 
1.005604 -0.450990 0.000000 
0.127053 -14.114211 0.000000 
-0.522365 -0.236162 0.000000 
1.318303 -89.129743 0.000000 
1.107426 -0.875318 0.000000 
0.112125 -0.632970 0.000000 
-2.353588 -56.170112 0.000000 
0.658972 -0.051151 0.000000 
0.952129 -1.815692 0.000000 
1.612119 -168.618070 0.000000 
-0.407249 -0.564868 0.000000 
0.780515 -1.109315 0.000000 
-0.362303 0.008050 0.000000 
-0.520938 -0.250745 0.000000 
0.345630 -52.063485 0.000000 
0.232488 -0.542551 0.000000 
-0.352591 -1.561008 0.000000 
-1.912780 -80.955711 0.000000 
1.053893 -0.016971 0.000000 
0.558939 -0.883534 0.000000 
-1.487464 -158.327726 0.000000 
-1.406679 -1.675798 0.000000 
1.013640 0.090598 0.000000 
-0.681481 -0.416035 0.000000 
-0.410213 -0.198015 0.000000 
-1.280575 -131.540220 0.000000 
-0.974338 -2.234260 0.000000 
0.813650 -0.865336 0.000000 
0.908320 -45.600063 0.000000 
-0.072113 -0.292454 0.000000 
0.746155 -2.354600 0.000000 
2.111317 -158.063143 0.000000 
0.951893 0.877471 0.000000 
-0.924464 -20.178313 0.000000 
-0.290200 -0.482116 0.000000 
-0.354892 -0.854777 0.000000 
-1.192972 -1.856290 0.000000 
0.141267 -0.893879 0.000000 
-1.616444 -62.106668 0.000000 
0.965679 -71.795774 0.000000 
0.250875 -3.099080 0.000000 
-0.598826 0.730924 0.000000 
-0.054623 0.086992 0.000000 
0.692703 -2.037772 0.000000 
-0.121060 -1.759281 0.000000 
0.648046 -0.636717 0.000000 
-0.021199 -90.406094 0.000000 
1.893511 -38.270050 0.000000 
0.728413 1.544738 0.000000 
-0.134816 -0.170690 0.000000 
0.089874 -15.616157 0.000000 
0.080265 -86.330930 0.000000 
-0.094186 0.121098 0.000000 
-0.826355 -0.656223 0.000000 
0.739079 -0.447710 0.000000 
0.792215 0.527419 0.000000 
0.675003 -0.450636 0.000000 
-0.147389 -1.067865 0.000000 
-0.133413 -0.861120 0.000000 
-0.133322 -0.401934 0.000000 
-0.017127 -1.109818 0.000000 
0.058894 -0.683691 0.000000 
0.076140 -1.005940 0.000000 
-0.051185 -1.201573 0.000000 
0.135952 -0.611611 0.000000 
-0.011937 -0.837455 0.000000 
-0.131339 -1.583527 0.000000 
0.185435 -1.211421 0.000000 
0.281729 -1.739115 0.000000 
0.077193 -2.045663 0.000000 
0.169541 -1.484692 0.000000 
-0.409497 -1.373106 0.000000 
0.136414 -1.430464 0.000000 
0.298002 -2.260780 0.000000 
0.364996 -0.272296 0.000000 
0.211111 1.171198 0.000000 
0.012982 -1.798677 0.000000 
0.383952 2.463540 0.000000 
-0.002462 5.155352 0.000000 
-0.232983 0.486105 0.000000 
0.085418 5.539009 0.000000 
0.016959 5.034260 0.000000 
-0.148904 4.994149 0.000000 
0.706269 -9.129655 0.000000 
0.528059 -9.042832 0.000000 
-0.263774 7.185415 0.000000 
0.886836 -27.557470 0.000000 
0.374565 -17.660112 0.000000 
0.019549 2.973030 0.000000 
0.147790 -29.125084 0.000000 
-0.257444 -17.517750 0.000000 
0.052874 -0.462936 0.000000 
-0.659069 -32.284307 0.000000 
-0.692777 -14.716615 0.000000 
-0.138502 -2.100507 0.000000 
-1.091479 -20.191074 0.000000 
-0.366966 -1.578896 0.000000 
-0.185300 -0.407467 0.000000 
-0.151578 2.157526 0.000000 
0.140845 8.021022 0.000000 
0.076754 6.698364 0.000000 
-0.023702 4.623432 0.000000 
-0.079798 2.744801 0.000000 
0.171011 7.424156 0.000000 
-0.052368 0.659231 0.000000 
-0.058747 -0.544300 0.000000 
0.021756 3.394181 0.000000 
0.105884 -1.125995 0.000000 
0.233286 -1.605587 0.000000 
0.048683 0.585681 0.000000 
-0.136201 -1.826774 0.000000 
-0.264522 -1.649110 0.000000 
-0.469060 -2.436500 0.000000 
-0.202771 -1.150181 0.000000 
0.201989 -0.655582 0.000000 
-0.411889 -2.103363 0.000000 
0.525021 -0.172948 0.000000 
0.369885 -0.549675 0.000000 
0.036497 -0.987875 0.000000 
0.326225 -0.530594 0.000000 
0.131148 -1.067487 0.000000 
-0.055590 -1.567015 0.000000 
-0.160076 -1.566865 0.000000 
0.082579 -0.885324 0.000000 
-0.024963 -1.384551 0.000000 
0.100596 -1.132502 0.000000 
0.277328 -2.553127 0.000000 
-0.077027 3.075242 0.000000 
0.032564 4.838041 0.000000 
-0.108356 -1.019819 0.000000 
0.000406 5.815405 0.000000 
-0.243631 -1.660800 0.000000 
-0.214479 1.692801 0.000000 
-0.225575 7.040323 0.000000 
0.053704 -0.961030 0.000000 
-0.028946 -0.730639 0.000000 
0.103417 -1.203680 0.000000 
0.208066 -1.751190 0.000000 
0.230729 -2.216388 0.000000 
-0.030636 -1.214690 0.000000 
0.155037 -1.670495 0.000000 
-0.208339 0.447810 0.000000 
0.015896 -1.047909 0.000000 
-0.119241 1.605835 0.000000 
0.123677 -1.202323 0.000000 
-0.129194 4.247767 0.000000 
-0.112428 0.372855 0.000000 
-0.075227 0.645908 0.000000 
-0.037779 -0.524300 0.000000 
0.030122 -0.473671 0.000000 
-0.003802 -0.391245 0.000000 
0.067371 -0.994275 0.000000 
-0.018549 -0.822809 0.000000 
-0.030439 -1.054948 0.000000 
-0.107183 3.601838 0.000000 
0.033274 -0.936172 0.000000 