# vtk DataFile Version 3.0 
vtk output 
ASCII 
DATASET UNSTRUCTURED_GRID 
POINTS 184 float 
-0.032416 0.424703 0.000000 
-0.347688 -0.402269 0.000000 
0.515393 -0.052380 0.000000 
-0.454357 0.119814 0.000000 
0.140382 -0.548473 0.000000 
0.229388 0.373664 0.000000 
-0.303836 0.339671 0.000000 
-0.108693 -0.537249 0.000000 
0.445062 0.140411 0.000000 
-0.477819 -0.137620 0.000000 
0.352182 -0.328366 0.000000 
-0.194972 0.438188 0.000000 
-0.241283 -0.507166 0.000000 
0.516995 0.071767 0.000000 
-0.482904 -0.026382 0.000000 
0.318643 -0.471176 0.000000 
0.082707 0.387143 0.000000 
-0.383319 0.239042 0.000000 
0.047765 -0.549085 0.000000 
0.333200 0.296695 0.000000 
-0.436546 -0.247168 0.000000 
0.474415 -0.232892 0.000000 
-0.122276 0.423194 0.000000 
-0.322826 -0.434487 0.000000 
0.512894 -0.027432 0.000000 
-0.460565 0.076492 0.000000 
0.267191 -0.498554 0.000000 
0.195922 0.401545 0.000000 
-0.349108 0.271519 0.000000 
-0.063385 -0.560854 0.000000 
0.367929 0.218068 0.000000 
-0.489237 -0.236450 0.000000 
0.459933 -0.281298 0.000000 
-0.250003 0.405071 0.000000 
-0.171347 -0.541179 0.000000 
0.463072 0.150869 0.000000 
-0.473652 -0.064650 0.000000 
0.313501 -0.403751 0.000000 
0.015172 0.413611 0.000000 
-0.456737 0.152327 0.000000 
0.083514 -0.537895 0.000000 
0.294605 0.334975 0.000000 
-0.368083 -0.350601 0.000000 
0.496842 -0.165099 0.000000 
-0.066845 0.368771 0.000000 
0.395270 0.230849 0.000000 
0.049801 0.392441 0.000000 
0.206269 -0.490535 0.000000 
-0.164208 -0.498779 0.000000 
-0.378239 -0.310821 0.000000 
0.420021 -0.300293 0.000000 
-0.319413 0.288238 0.000000 
-0.381910 0.185052 0.000000 
0.425944 0.127492 0.000000 
0.151350 0.372759 0.000000 
0.107008 -0.529839 0.000000 
-0.283447 -0.433298 0.000000 
-0.423331 -0.249738 0.000000 
0.474742 -0.115024 0.000000 
0.322318 -0.348985 0.000000 
-0.027192 -0.516111 0.000000 
-0.258312 0.362101 0.000000 
-0.456269 0.031611 0.000000 
-0.458867 -0.104005 0.000000 
0.252722 0.333728 0.000000 
0.464995 0.004334 0.000000 
-0.054640 0.352064 0.000000 
-0.121222 0.299299 0.000000 
-0.190288 0.304131 0.000000 
-0.121761 0.239577 0.000000 
-0.225419 0.240036 0.000000 
-0.170804 0.218341 0.000000 
-0.049201 0.230953 0.000000 
-0.294284 0.241396 0.000000 
-0.037933 0.156677 0.000000 
-0.020870 0.281262 0.000000 
-0.336281 0.178920 0.000000 
-0.361013 0.155604 0.000000 
-0.356389 0.094415 0.000000 
-0.275611 0.138515 0.000000 
-0.400676 0.042268 0.000000 
-0.395887 -0.023851 0.000000 
-0.304663 0.085914 0.000000 
-0.431525 -0.081857 0.000000 
-0.389029 -0.138346 0.000000 
-0.313008 -0.036397 0.000000 
-0.388390 -0.224168 0.000000 
-0.344206 -0.276379 0.000000 
-0.310069 -0.090029 0.000000 
-0.347633 -0.278116 0.000000 
-0.269998 -0.350193 0.000000 
-0.298166 -0.222161 0.000000 
-0.259257 -0.375406 0.000000 
-0.168919 -0.380497 0.000000 
-0.253598 -0.278987 0.000000 
-0.126954 -0.440126 0.000000 
-0.068416 -0.431708 0.000000 
-0.146799 -0.347862 0.000000 
-0.036760 -0.473230 0.000000 
0.011748 -0.466255 0.000000 
-0.074579 -0.368025 0.000000 
0.078836 -0.477543 0.000000 
0.139792 -0.431762 0.000000 
-0.003027 -0.407899 0.000000 
0.188885 -0.416073 0.000000 
0.257669 -0.378284 0.000000 
0.074284 -0.385028 0.000000 
0.286797 -0.337565 0.000000 
0.313326 -0.284828 0.000000 
0.210254 -0.323517 0.000000 
0.372373 -0.265987 0.000000 
0.368180 -0.179910 0.000000 
0.262141 -0.283644 0.000000 
0.387763 -0.121254 0.000000 
0.376320 -0.060996 0.000000 
0.307513 -0.167854 0.000000 
0.416641 -0.025074 0.000000 
0.378768 0.032396 0.000000 
0.314035 -0.081295 0.000000 
0.372374 0.080916 0.000000 
0.319834 0.149547 0.000000 
0.348502 0.043941 0.000000 
0.317312 0.182425 0.000000 
0.260801 0.258689 0.000000 
0.300694 0.052327 0.000000 
0.243195 0.281823 0.000000 
0.169868 0.286112 0.000000 
0.228846 0.185808 0.000000 
0.133090 0.343667 0.000000 
0.073198 0.336466 0.000000 
0.031921 0.366854 0.000000 
-0.033951 0.354130 0.000000 
0.157959 0.251162 0.000000 
0.041784 0.266663 0.000000 
-0.193370 0.161433 0.000000 
-0.264423 0.042787 0.000000 
-0.042061 -0.358060 0.000000 
0.235917 -0.226299 0.000000 
0.304152 -0.043474 0.000000 
0.130283 -0.312572 0.000000 
0.243847 0.128734 0.000000 
-0.249796 -0.151310 0.000000 
-0.193272 -0.275472 0.000000 
-0.068401 0.121597 0.000000 
0.007358 0.142278 0.000000 
-0.145187 0.118459 0.000000 
-0.182585 0.052226 0.000000 
-0.223408 0.026376 0.000000 
-0.208328 -0.026728 0.000000 
-0.133393 0.011244 0.000000 
-0.221258 -0.100047 0.000000 
-0.144669 -0.029786 0.000000 
-0.172165 -0.130753 0.000000 
-0.071765 0.051305 0.000000 
-0.170874 -0.222636 0.000000 
-0.117952 -0.100064 0.000000 
-0.071963 -0.138106 0.000000 
-0.096414 -0.043249 0.000000 
-0.052114 -0.036448 0.000000 
-0.031402 -0.088271 0.000000 
-0.045199 0.031757 0.000000 
0.008593 0.095448 0.000000 
0.054017 0.220881 0.000000 
-0.109979 -0.230946 0.000000 
0.023289 0.038831 0.000000 
0.057174 -0.019759 0.000000 
0.042906 -0.068267 0.000000 
0.132231 -0.002639 0.000000 
0.011668 -0.152795 0.000000 
0.045090 -0.167710 0.000000 
0.033512 -0.252402 0.000000 
0.080183 -0.259414 0.000000 
0.078029 -0.150659 0.000000 
0.143597 -0.245284 0.000000 
0.163447 -0.171835 0.000000 
0.098997 -0.126189 0.000000 
0.173724 0.034113 0.000000 
0.077090 0.060565 0.000000 
0.162706 -0.162444 0.000000 
0.205931 0.052214 0.000000 
0.136793 0.150146 0.000000 
0.136774 0.165608 0.000000 
-0.054066 -0.279465 0.000000 
0.214227 -0.055446 0.000000 
CELLS 184 368 
1 0 
1 1 
1 2 
1 3 
1 4 
1 5 
1 6 
1 7 
1 8 
1 9 
1 10 
1 11 
1 12 
1 13 
1 14 
1 15 
1 16 
1 17 
1 18 
1 19 
1 20 
1 21 
1 22 
1 23 
1 24 
1 25 
1 26 
1 27 
1 28 
1 29 
1 30 
1 31 
1 32 
1 33 
1 34 
1 35 
1 36 
1 37 
1 38 
1 39 
1 40 
1 41 
1 42 
1 43 
1 44 
1 45 
1 46 
1 47 
1 48 
1 49 
1 50 
1 51 
1 52 
1 53 
1 54 
1 55 
1 56 
1 57 
1 58 
1 59 
1 60 
1 61 
1 62 
1 63 
1 64 
1 65 
1 66 
1 67 
1 68 
1 69 
1 70 
1 71 
1 72 
1 73 
1 74 
1 75 
1 76 
1 77 
1 78 
1 79 
1 80 
1 81 
1 82 
1 83 
1 84 
1 85 
1 86 
1 87 
1 88 
1 89 
1 90 
1 91 
1 92 
1 93 
1 94 
1 95 
1 96 
1 97 
1 98 
1 99 
1 100 
1 101 
1 102 
1 103 
1 104 
1 105 
1 106 
1 107 
1 108 
1 109 
1 110 
1 111 
1 112 
1 113 
1 114 
1 115 
1 116 
1 117 
1 118 
1 119 
1 120 
1 121 
1 122 
1 123 
1 124 
1 125 
1 126 
1 127 
1 128 
1 129 
1 130 
1 131 
1 132 
1 133 
1 134 
1 135 
1 136 
1 137 
1 138 
1 139 
1 140 
1 141 
1 142 
1 143 
1 144 
1 145 
1 146 
1 147 
1 148 
1 149 
1 150 
1 151 
1 152 
1 153 
1 154 
1 155 
1 156 
1 157 
1 158 
1 159 
1 160 
1 161 
1 162 
1 163 
1 164 
1 165 
1 166 
1 167 
1 168 
1 169 
1 170 
1 171 
1 172 
1 173 
1 174 
1 175 
1 176 
1 177 
1 178 
1 179 
1 180 
1 181 
1 182 
1 183 
CELL_TYPES 184 
1 
1 
1 
1 
1 
1 
1 
1 
1 
1 
1 
1 
1 
1 
1 
1 
1 
1 
1 
1 
1 
1 
1 
1 
1 
1 
1 
1 
1 
1 
1 
1 
1 
1 
1 
1 
1 
1 
1 
1 
1 
1 
1 
1 
1 
1 
1 
1 
1 
1 
1 
1 
1 
1 
1 
1 
1 
1 
1 
1 
1 
1 
1 
1 
1 
1 
1 
1 
1 
1 
1 
1 
1 
1 
1 
1 
1 
1 
1 
1 
1 
1 
1 
1 
1 
1 
1 
1 
1 
1 
1 
1 
1 
1 
1 
1 
1 
1 
1 
1 
1 
1 
1 
1 
1 
1 
1 
1 
1 
1 
1 
1 
1 
1 
1 
1 
1 
1 
1 
1 
1 
1 
1 
1 
1 
1 
1 
1 
1 
1 
1 
1 
1 
1 
1 
1 
1 
1 
1 
1 
1 
1 
1 
1 
1 
1 
1 
1 
1 
1 
1 
1 
1 
1 
1 
1 
1 
1 
1 
1 
1 
1 
1 
1 
1 
1 
1 
1 
1 
1 
1 
1 
1 
1 
1 
1 
1 
1 
1 
1 
1 
1 
1 
1 
POINT_DATA 184 
VECTORS X_GC float 
-0.032416 0.424703 0.000000 
-0.347688 -0.402269 0.000000 
0.515393 -0.052380 0.000000 
-0.454357 0.119814 0.000000 
0.140382 -0.548473 0.000000 
0.229388 0.373664 0.000000 
-0.303836 0.339671 0.000000 
-0.108693 -0.537249 0.000000 
0.445062 0.140411 0.000000 
-0.477819 -0.137620 0.000000 
0.352182 -0.328366 0.000000 
-0.194972 0.438188 0.000000 
-0.241283 -0.507166 0.000000 
0.516995 0.071767 0.000000 
-0.482904 -0.026382 0.000000 
0.318643 -0.471176 0.000000 
0.082707 0.387143 0.000000 
-0.383319 0.239042 0.000000 
0.047765 -0.549085 0.000000 
0.333200 0.296695 0.000000 
-0.436546 -0.247168 0.000000 
0.474415 -0.232892 0.000000 
-0.122276 0.423194 0.000000 
-0.322826 -0.434487 0.000000 
0.512894 -0.027432 0.000000 
-0.460565 0.076492 0.000000 
0.267191 -0.498554 0.000000 
0.195922 0.401545 0.000000 
-0.349108 0.271519 0.000000 
-0.063385 -0.560854 0.000000 
0.367929 0.218068 0.000000 
-0.489237 -0.236450 0.000000 
0.459933 -0.281298 0.000000 
-0.250003 0.405071 0.000000 
-0.171347 -0.541179 0.000000 
0.463072 0.150869 0.000000 
-0.473652 -0.064650 0.000000 
0.313501 -0.403751 0.000000 
0.015172 0.413611 0.000000 
-0.456737 0.152327 0.000000 
0.083514 -0.537895 0.000000 
0.294605 0.334975 0.000000 
-0.368083 -0.350601 0.000000 
0.496842 -0.165099 0.000000 
-0.066845 0.368771 0.000000 
0.395270 0.230849 0.000000 
0.049801 0.392441 0.000000 
0.206269 -0.490535 0.000000 
-0.164208 -0.498779 0.000000 
-0.378239 -0.310821 0.000000 
0.420021 -0.300293 0.000000 
-0.319413 0.288238 0.000000 
-0.381910 0.185052 0.000000 
0.425944 0.127492 0.000000 
0.151350 0.372759 0.000000 
0.107008 -0.529839 0.000000 
-0.283447 -0.433298 0.000000 
-0.423331 -0.249738 0.000000 
0.474742 -0.115024 0.000000 
0.322318 -0.348985 0.000000 
-0.027192 -0.516111 0.000000 
-0.258312 0.362101 0.000000 
-0.456269 0.031611 0.000000 
-0.458867 -0.104005 0.000000 
0.252722 0.333728 0.000000 
0.464995 0.004334 0.000000 
-0.054640 0.352064 0.000000 
-0.121222 0.299299 0.000000 
-0.190288 0.304131 0.000000 
-0.121761 0.239577 0.000000 
-0.225419 0.240036 0.000000 
-0.170804 0.218341 0.000000 
-0.049201 0.230953 0.000000 
-0.294284 0.241396 0.000000 
-0.037933 0.156677 0.000000 
-0.020870 0.281262 0.000000 
-0.336281 0.178920 0.000000 
-0.361013 0.155604 0.000000 
-0.356389 0.094415 0.000000 
-0.275611 0.138515 0.000000 
-0.400676 0.042268 0.000000 
-0.395887 -0.023851 0.000000 
-0.304663 0.085914 0.000000 
-0.431525 -0.081857 0.000000 
-0.389029 -0.138346 0.000000 
-0.313008 -0.036397 0.000000 
-0.388390 -0.224168 0.000000 
-0.344206 -0.276379 0.000000 
-0.310069 -0.090029 0.000000 
-0.347633 -0.278116 0.000000 
-0.269998 -0.350193 0.000000 
-0.298166 -0.222161 0.000000 
-0.259257 -0.375406 0.000000 
-0.168919 -0.380497 0.000000 
-0.253598 -0.278987 0.000000 
-0.126954 -0.440126 0.000000 
-0.068416 -0.431708 0.000000 
-0.146799 -0.347862 0.000000 
-0.036760 -0.473230 0.000000 
0.011748 -0.466255 0.000000 
-0.074579 -0.368025 0.000000 
0.078836 -0.477543 0.000000 
0.139792 -0.431762 0.000000 
-0.003027 -0.407899 0.000000 
0.188885 -0.416073 0.000000 
0.257669 -0.378284 0.000000 
0.074284 -0.385028 0.000000 
0.286797 -0.337565 0.000000 
0.313326 -0.284828 0.000000 
0.210254 -0.323517 0.000000 
0.372373 -0.265987 0.000000 
0.368180 -0.179910 0.000000 
0.262141 -0.283644 0.000000 
0.387763 -0.121254 0.000000 
0.376320 -0.060996 0.000000 
0.307513 -0.167854 0.000000 
0.416641 -0.025074 0.000000 
0.378768 0.032396 0.000000 
0.314035 -0.081295 0.000000 
0.372374 0.080916 0.000000 
0.319834 0.149547 0.000000 
0.348502 0.043941 0.000000 
0.317312 0.182425 0.000000 
0.260801 0.258689 0.000000 
0.300694 0.052327 0.000000 
0.243195 0.281823 0.000000 
0.169868 0.286112 0.000000 
0.228846 0.185808 0.000000 
0.133090 0.343667 0.000000 
0.073198 0.336466 0.000000 
0.031921 0.366854 0.000000 
-0.033951 0.354130 0.000000 
0.157959 0.251162 0.000000 
0.041784 0.266663 0.000000 
-0.193370 0.161433 0.000000 
-0.264423 0.042787 0.000000 
-0.042061 -0.358060 0.000000 
0.235917 -0.226299 0.000000 
0.304152 -0.043474 0.000000 
0.130283 -0.312572 0.000000 
0.243847 0.128734 0.000000 
-0.249796 -0.151310 0.000000 
-0.193272 -0.275472 0.000000 
-0.068401 0.121597 0.000000 
0.007358 0.142278 0.000000 
-0.145187 0.118459 0.000000 
-0.182585 0.052226 0.000000 
-0.223408 0.026376 0.000000 
-0.208328 -0.026728 0.000000 
-0.133393 0.011244 0.000000 
-0.221258 -0.100047 0.000000 
-0.144669 -0.029786 0.000000 
-0.172165 -0.130753 0.000000 
-0.071765 0.051305 0.000000 
-0.170874 -0.222636 0.000000 
-0.117952 -0.100064 0.000000 
-0.071963 -0.138106 0.000000 
-0.096414 -0.043249 0.000000 
-0.052114 -0.036448 0.000000 
-0.031402 -0.088271 0.000000 
-0.045199 0.031757 0.000000 
0.008593 0.095448 0.000000 
0.054017 0.220881 0.000000 
-0.109979 -0.230946 0.000000 
0.023289 0.038831 0.000000 
0.057174 -0.019759 0.000000 
0.042906 -0.068267 0.000000 
0.132231 -0.002639 0.000000 
0.011668 -0.152795 0.000000 
0.045090 -0.167710 0.000000 
0.033512 -0.252402 0.000000 
0.080183 -0.259414 0.000000 
0.078029 -0.150659 0.000000 
0.143597 -0.245284 0.000000 
0.163447 -0.171835 0.000000 
0.098997 -0.126189 0.000000 
0.173724 0.034113 0.000000 
0.077090 0.060565 0.000000 
0.162706 -0.162444 0.000000 
0.205931 0.052214 0.000000 
0.136793 0.150146 0.000000 
0.136774 0.165608 0.000000 
-0.054066 -0.279465 0.000000 
0.214227 -0.055446 0.000000 
VECTORS X_EC float 
-0.351672 0.505948 0.000000 
-0.046243 -0.954613 0.000000 
0.692150 0.047591 0.000000 
0.087136 0.603717 0.000000 
0.192352 -0.030544 0.000000 
0.412237 -0.473273 0.000000 
-0.923279 0.206574 0.000000 
-0.826131 -0.255027 0.000000 
0.098756 0.191788 0.000000 
0.556382 -0.247600 0.000000 
-0.043637 -0.432684 0.000000 
0.899437 0.236231 0.000000 
-0.174350 -0.856682 0.000000 
0.660110 -0.435330 0.000000 
0.658083 -0.472359 0.000000 
0.627131 0.423522 0.000000 
-0.654138 -0.742860 0.000000 
0.666376 0.219169 0.000000 
0.044706 -0.018305 0.000000 
0.335990 -0.933898 0.000000 
-0.269077 -0.056636 0.000000 
-0.488295 -0.342161 0.000000 
-0.554471 0.536126 0.000000 
-0.543472 -0.310263 0.000000 
0.742110 -0.451352 0.000000 
0.211292 -0.529832 0.000000 
-0.343812 0.971073 0.000000 
-0.918434 0.969096 0.000000 
-0.017831 -0.430371 0.000000 
0.267695 0.217083 0.000000 
-0.358577 0.638635 0.000000 
0.784747 -0.271009 0.000000 
-0.198654 0.625964 0.000000 
0.000051 0.898582 0.000000 
0.426944 -0.176427 0.000000 
-0.261443 -0.017384 0.000000 
0.473047 0.293000 0.000000 
0.729984 -0.924982 0.000000 
0.696564 0.727773 0.000000 
0.134743 -0.046533 0.000000 
-0.670287 -0.242108 0.000000 
-0.892096 0.300494 0.000000 
0.361662 0.012017 0.000000 
-0.936843 0.301974 0.000000 
0.336904 -0.375420 0.000000 
-0.905399 0.383019 0.000000 
0.003979 -0.848827 0.000000 
0.874619 0.810702 0.000000 
0.284153 0.975582 0.000000 
0.564790 -0.783583 0.000000 
0.599574 -0.994136 0.000000 
-0.611731 -0.764757 0.000000 
0.638205 -0.701048 0.000000 
0.481124 0.450163 0.000000 
-0.026992 -0.455174 0.000000 
0.859844 -0.403217 0.000000 
0.668944 -0.334031 0.000000 
-0.533387 -0.005234 0.000000 
-0.494832 -0.699528 0.000000 
0.553636 -0.020291 0.000000 
-0.456165 -0.677770 0.000000 
0.166240 -0.242020 0.000000 
0.125380 0.367787 0.000000 
0.177340 -0.919900 0.000000 
-0.054445 0.325434 0.000000 
-0.299904 0.913329 0.000000 
0.092795 -0.041285 0.000000 
-0.575562 -0.985988 0.000000 
0.805768 0.917371 0.000000 
-0.564783 0.208461 0.000000 
-0.491617 0.199288 0.000000 
0.416074 0.633172 0.000000 
-0.015977 0.380947 0.000000 
0.885681 0.172082 0.000000 
-0.241335 -0.133549 0.000000 
-0.582600 -0.625233 0.000000 
-0.274372 -0.578397 0.000000 
0.220253 -0.112086 0.000000 
0.127779 -0.888302 0.000000 
0.512229 0.229697 0.000000 
-0.986480 0.154649 0.000000 
0.917738 -0.522980 0.000000 
-0.906740 -0.718278 0.000000 
-0.369505 0.637143 0.000000 
0.780578 -0.233089 0.000000 
-0.739842 -0.272050 0.000000 
0.767796 -0.516633 0.000000 
-0.115872 0.527582 0.000000 
-0.798626 0.800572 0.000000 
-0.047339 0.562322 0.000000 
0.399953 0.003869 0.000000 
0.963327 -0.556783 0.000000 
0.185142 0.508115 0.000000 
0.378388 0.609943 0.000000 
0.071958 0.579739 0.000000 
-0.460916 -0.197483 0.000000 
0.368310 -0.365842 0.000000 
-0.064021 -0.042768 0.000000 
-0.264804 0.464601 0.000000 
0.765035 0.325105 0.000000 
0.491583 0.360505 0.000000 
-0.576723 0.550866 0.000000 
0.204165 -0.364765 0.000000 
-0.939461 -0.842020 0.000000 
-0.777701 -0.678538 0.000000 
-0.153374 0.565676 0.000000 
-0.485678 0.700562 0.000000 
-0.735933 -0.248691 0.000000 
0.733473 0.696557 0.000000 
0.794914 -0.529651 0.000000 
-0.447457 0.319730 0.000000 
-0.363590 0.598209 0.000000 
-0.242823 0.672886 0.000000 
-0.755254 -0.574920 0.000000 
-0.526403 0.219929 0.000000 
0.849734 0.357080 0.000000 
0.667183 -0.498516 0.000000 
-0.575368 0.352086 0.000000 
0.719290 0.625893 0.000000 
-0.447488 -0.618313 0.000000 
0.603316 0.009057 0.000000 
0.029964 0.121187 0.000000 
0.653758 -0.648498 0.000000 
-0.216011 -0.173780 0.000000 
0.986116 -0.046533 0.000000 
0.136109 -0.636465 0.000000 
-0.397366 -0.722232 0.000000 
0.423083 -0.716158 0.000000 
0.338191 0.126656 0.000000 
-0.463960 0.270678 0.000000 
0.361589 -0.337085 0.000000 
-0.320987 -0.082597 0.000000 
-0.159187 -0.023238 0.000000 
0.164316 -0.333258 0.000000 
0.867391 -0.228663 0.000000 
0.288453 0.144266 0.000000 
-0.158772 0.161203 0.000000 
0.281655 -0.474010 0.000000 
0.916960 -0.130511 0.000000 
0.394341 -0.748569 0.000000 
0.123062 0.425320 0.000000 
-0.004077 0.026190 0.000000 
0.865431 0.509449 0.000000 
0.368018 0.568063 0.000000 
0.852847 0.154446 0.000000 
-0.096250 0.630823 0.000000 
0.651710 -0.044522 0.000000 
-0.531842 0.472473 0.000000 
-0.833437 -0.465447 0.000000 
-0.332147 0.775124 0.000000 
-0.574849 -0.999057 0.000000 
-0.106622 -0.404272 0.000000 
0.443296 -0.384936 0.000000 
0.435301 -0.026101 0.000000 
0.417481 -0.547285 0.000000 
-0.640967 -0.998715 0.000000 
0.439260 -0.237877 0.000000 
0.928285 -0.135020 0.000000 
0.042288 -0.271038 0.000000 
-0.371954 0.765426 0.000000 
-0.096015 0.364866 0.000000 
0.828140 -0.908956 0.000000 
-0.080338 0.582376 0.000000 
-0.800413 -0.381090 0.000000 
0.534210 0.223376 0.000000 
-0.143485 -0.604823 0.000000 
0.141878 0.365348 0.000000 
0.355380 -0.947228 0.000000 
0.766646 0.055892 0.000000 
0.098201 0.354204 0.000000 
0.329753 0.048044 0.000000 
-0.603651 0.188287 0.000000 
-0.560588 0.013174 0.000000 
0.128063 -0.094328 0.000000 
-0.268945 0.436692 0.000000 
-0.979933 -0.476224 0.000000 
-0.474483 0.317749 0.000000 
-0.541793 -0.211309 0.000000 
-0.254129 0.248881 0.000000 
0.881380 -0.044286 0.000000 
0.264147 -0.002921 0.000000 
0.264527 -0.312151 0.000000 
0.081328 0.589297 0.000000 
0.715463 0.108920 0.000000 
CELL_DATA 184 
SCALARS MASS float 
LOOKUP_TABLE default 
0.051252 
0.046008 
0.051531 
0.046188 
0.052854 
0.051531 
0.052854 
0.052854 
0.051531 
0.050859 
0.052854 
0.047395 
0.052854 
0.052854 
0.051434 
0.045995 
0.052854 
0.051281 
0.051530 
0.046441 
0.052854 
0.052854 
0.050612 
0.049065 
0.052975 
0.049197 
0.049245 
0.052975 
0.052990 
0.055938 
0.049713 
0.052094 
0.055938 
0.050456 
0.055938 
0.053198 
0.052878 
0.049051 
0.052807 
0.049481 
0.052974 
0.049465 
0.049257 
0.055938 
0.105225 
0.104629 
0.082126 
0.094264 
0.094771 
0.094259 
0.094771 
0.083366 
0.104047 
0.083092 
0.081316 
0.081315 
0.092719 
0.079469 
0.108073 
0.092710 
0.108073 
0.093129 
0.104035 
0.094961 
0.104398 
0.081316 
0.125285 
0.099128 
0.098320 
0.087841 
0.082650 
0.097481 
0.086914 
0.081921 
0.086680 
0.086680 
0.081485 
0.107769 
0.088711 
0.084874 
0.107874 
0.082612 
0.095190 
0.095229 
0.083942 
0.085089 
0.079923 
0.081132 
0.095301 
0.097917 
0.090576 
0.085268 
0.095896 
0.081062 
0.095454 
0.090083 
0.081027 
0.085251 
0.101961 
0.083022 
0.095445 
0.080604 
0.081018 
0.085240 
0.097826 
0.090495 
0.095435 
0.095845 
0.081023 
0.085241 
0.090072 
0.081024 
0.095436 
0.101966 
0.083028 
0.085242 
0.080610 
0.081024 
0.095437 
0.082345 
0.082694 
0.085242 
0.109264 
0.089885 
0.095437 
0.108636 
0.083028 
0.085242 
0.080610 
0.074817 
0.073569 
0.082490 
0.095437 
0.095617 
0.133784 
0.138292 
0.139667 
0.139695 
0.139694 
0.139689 
0.139693 
0.140105 
0.139774 
0.086622 
0.086622 
0.089038 
0.077179 
0.079159 
0.072465 
0.084345 
0.092656 
0.093083 
0.084037 
0.098826 
0.101847 
0.085968 
0.086444 
0.074619 
0.064825 
0.094138 
0.124406 
0.086607 
0.131576 
0.102571 
0.084703 
0.076503 
0.084191 
0.084191 
0.086793 
0.075696 
0.084714 
0.090949 
0.084009 
0.076569 
0.086383 
0.098391 
0.110757 
0.093222 
0.143196 
0.101090 
0.091038 
0.150913 
0.178131 
0.206980 
SCALARS MASS float 
LOOKUP_TABLE default 
0.051252 
0.046008 
0.051531 
0.046188 
0.052854 
0.051531 
0.052854 
0.052854 
0.051531 
0.050859 
0.052854 
0.047395 
0.052854 
0.052854 
0.051434 
0.045995 
0.052854 
0.051281 
0.051530 
0.046441 
0.052854 
0.052854 
0.050612 
0.049065 
0.052975 
0.049197 
0.049245 
0.052975 
0.052990 
0.055938 
0.049713 
0.052094 
0.055938 
0.050456 
0.055938 
0.053198 
0.052878 
0.049051 
0.052807 
0.049481 
0.052974 
0.049465 
0.049257 
0.055938 
0.105225 
0.104629 
0.082126 
0.094264 
0.094771 
0.094259 
0.094771 
0.083366 
0.104047 
0.083092 
0.081316 
0.081315 
0.092719 
0.079469 
0.108073 
0.092710 
0.108073 
0.093129 
0.104035 
0.094961 
0.104398 
0.081316 
0.125285 
0.099128 
0.098320 
0.087841 
0.082650 
0.097481 
0.086914 
0.081921 
0.086680 
0.086680 
0.081485 
0.107769 
0.088711 
0.084874 
0.107874 
0.082612 
0.095190 
0.095229 
0.083942 
0.085089 
0.079923 
0.081132 
0.095301 
0.097917 
0.090576 
0.085268 
0.095896 
0.081062 
0.095454 
0.090083 
0.081027 
0.085251 
0.101961 
0.083022 
0.095445 
0.080604 
0.081018 
0.085240 
0.097826 
0.090495 
0.095435 
0.095845 
0.081023 
0.085241 
0.090072 
0.081024 
0.095436 
0.101966 
0.083028 
0.085242 
0.080610 
0.081024 
0.095437 
0.082345 
0.082694 
0.085242 
0.109264 
0.089885 
0.095437 
0.108636 
0.083028 
0.085242 
0.080610 
0.074817 
0.073569 
0.082490 
0.095437 
0.095617 
0.133784 
0.138292 
0.139667 
0.139695 
0.139694 
0.139689 
0.139693 
0.140105 
0.139774 
0.086622 
0.086622 
0.089038 
0.077179 
0.079159 
0.072465 
0.084345 
0.092656 
0.093083 
0.084037 
0.098826 
0.101847 
0.085968 
0.086444 
0.074619 
0.064825 
0.094138 
0.124406 
0.086607 
0.131576 
0.102571 
0.084703 
0.076503 
0.084191 
0.084191 
0.086793 
0.075696 
0.084714 
0.090949 
0.084009 
0.076569 
0.086383 
0.098391 
0.110757 
0.093222 
0.143196 
0.101090 
0.091038 
0.150913 
0.178131 
0.206980 
SCALARS DENSITY float 
LOOKUP_TABLE default 
17.562292 
22.217642 
18.613957 
19.739603 
18.549086 
16.060742 
22.601549 
24.283175 
12.967946 
15.991941 
17.233367 
21.621553 
21.887360 
19.061025 
20.462338 
18.075076 
17.960052 
22.334939 
18.911997 
38.717585 
13.950080 
20.106153 
17.892123 
25.494490 
17.051911 
22.431701 
23.874146 
27.109783 
20.491375 
20.103993 
18.801091 
96.018129 
18.797880 
20.020520 
22.994162 
15.922931 
18.606059 
17.745486 
19.512594 
18.060146 
18.949556 
19.395331 
17.123824 
20.575119 
25.466003 
16.838513 
18.998824 
24.552220 
22.357054 
67.744724 
22.634829 
19.509343 
30.737307 
229.131649 
19.622046 
18.791192 
23.339697 
15.162699 
21.449853 
15.575535 
22.685798 
18.940680 
21.137626 
26.218978 
20.607701 
19.750917 
16.106796 
50.239769 
45.116474 
19.720297 
18.627913 
18.100139 
22.161569 
20.804882 
19.586036 
22.954413 
44.792838 
15.412740 
18.429745 
19.013176 
21.223092 
19.513035 
19.518623 
27.569662 
17.774431 
20.542656 
38.814107 
17.500338 
19.490471 
16.130748 
18.258288 
45.618838 
20.566205 
19.629715 
18.609412 
20.786339 
18.732500 
18.157094 
17.871159 
21.630136 
18.630327 
23.198803 
16.604599 
21.011797 
54.263562 
14.451637 
20.342423 
20.343093 
39.462027 
69.596640 
15.697592 
16.023508 
13.179987 
21.027673 
17.905651 
65.100277 
25.278713 
14.486852 
156.445878 
185.635546 
16.233580 
17.309689 
1125.315457 
18.139267 
18.100391 
19.545748 
18.840162 
14.439454 
18.082067 
19.193669 
18.816932 
18.400387 
21.267430 
20.370558 
22.703001 
19.315949 
19.711104 
203.113433 
16.011607 
55.594334 
144.356869 
16.036128 
20.152735 
19.374400 
18.352899 
22.164044 
20.471971 
19.014832 
18.896992 
19.972740 
24.267093 
18.299435 
18.892811 
18.907209 
29.593262 
19.138155 
19.085584 
18.851346 
18.463735 
21.836087 
20.000150 
88.766287 
17.807025 
51.133081 
16.874017 
23.690075 
28.129576 
766.115212 
18.530452 
20.023832 
36.170798 
15.216657 
19.170162 
166.694697 
18.627814 
2591.611199 
14.892471 
30.354975 
19.378342 
34.782783 
23.807238 
17.082331 
16.786622 
262.226676 
SCALARS ELEM_i float 
LOOKUP_TABLE default 
634 
805 
269 
871 
504 
453 
813 
684 
331 
868 
386 
694 
744 
270 
869 
385 
573 
812 
564 
392 
867 
327 
694 
805 
269 
870 
445 
514 
812 
624 
392 
867 
327 
754 
684 
331 
869 
385 
574 
871 
564 
453 
806 
328 
633 
392 
573 
445 
685 
806 
326 
812 
811 
331 
513 
504 
745 
867 
328 
386 
624 
753 
870 
868 
453 
330 
633 
692 
693 
692 
752 
692 
632 
752 
631 
632 
811 
811 
810 
751 
870 
809 
810 
869 
808 
809 
807 
807 
809 
807 
746 
747 
746 
686 
747 
685 
625 
686 
625 
565 
626 
565 
505 
625 
505 
446 
566 
446 
387 
446 
387 
388 
447 
388 
389 
388 
329 
390 
389 
390 
391 
390 
391 
452 
390 
452 
512 
451 
513 
573 
573 
633 
512 
572 
691 
750 
626 
447 
389 
506 
451 
748 
687 
631 
571 
691 
690 
750 
749 
690 
748 
689 
688 
630 
687 
688 
628 
629 
629 
629 
630 
570 
572 
687 
570 
569 
569 
509 
568 
568 
567 
567 
568 
507 
508 
568 
510 
570 
508 
450 
511 
511 
627 
449 
VECTORS VELOCITY float 
-0.784594 -8.890151 0.000000 
-4.372653 4.963520 0.000000 
8.559189 13.455918 0.000000 
1.473489 -1.372564 0.000000 
-10.517213 -8.917941 0.000000 
4.916288 -4.880295 0.000000 
-3.617518 -0.476737 0.000000 
-0.418264 4.937780 0.000000 
11.911197 -27.100187 0.000000 
-0.880572 6.791246 0.000000 
-24.581424 11.211569 0.000000 
-5.324221 10.349213 0.000000 
-5.347463 -12.015041 0.000000 
21.813274 5.857146 0.000000 
-0.213885 -8.911718 0.000000 
14.329140 -3.842392 0.000000 
-6.864788 -22.143159 0.000000 
8.107085 -7.406586 0.000000 
7.218547 3.080850 0.000000 
-5.657053 -1.283197 0.000000 
-1.575283 22.019455 0.000000 
2.490148 -7.275780 0.000000 
6.731329 -3.800000 0.000000 
-10.113045 2.019833 0.000000 
8.884944 -0.143819 0.000000 
3.756524 -1.038333 0.000000 
11.177572 -0.842391 0.000000 
12.403841 -3.143840 0.000000 
8.447095 -9.077503 0.000000 
-2.105131 -2.524086 0.000000 
-6.152249 -22.019769 0.000000 
-8.956957 -19.402934 0.000000 
5.189283 -8.423429 0.000000 
-11.104338 5.497212 0.000000 
-7.129277 -9.087301 0.000000 
10.167073 7.543832 0.000000 
5.954500 -4.762339 0.000000 
-10.658846 10.898985 0.000000 
-0.433728 -12.933983 0.000000 
-7.231613 -6.713738 0.000000 
0.038040 5.129479 0.000000 
-5.230358 2.983233 0.000000 
2.356797 11.251220 0.000000 
6.950635 3.475200 0.000000 
13.736813 -21.276238 0.000000 
7.911766 11.024150 0.000000 
2.511555 -8.086139 0.000000 
1.845923 -1.220387 0.000000 
7.194234 -8.305472 0.000000 
-1.770316 3.430509 0.000000 
6.193793 -10.441024 0.000000 
-1.932001 -0.640883 0.000000 
11.367144 -3.135526 0.000000 
-2.833868 16.395591 0.000000 
8.601258 -7.659979 0.000000 
-0.132447 -7.372401 0.000000 
-10.578650 1.293350 0.000000 
2.971785 -11.942249 0.000000 
4.684758 6.819907 0.000000 
-7.708098 14.469992 0.000000 
-2.774101 7.400787 0.000000 
-9.578983 6.056412 0.000000 
-3.131341 -2.905513 0.000000 
-1.247149 -3.183928 0.000000 
-2.229343 2.556219 0.000000 
-0.222957 0.344827 0.000000 
16.287010 5.161344 0.000000 
5.398709 0.871351 0.000000 
5.255418 1.023214 0.000000 
-4.521196 0.413442 0.000000 
1.538327 -5.460167 0.000000 
1.315609 4.993215 0.000000 
4.945107 3.477223 0.000000 
-5.904423 0.240246 0.000000 
2.783636 -7.818978 0.000000 
-3.118248 8.157974 0.000000 
-21.480971 -2.351602 0.000000 
-3.374207 1.632869 0.000000 
-0.700837 5.375735 0.000000 
-10.064746 -1.126067 0.000000 
-0.331030 4.203016 0.000000 
-8.862954 3.418807 0.000000 
-8.487506 2.086155 0.000000 
-14.703183 6.836111 0.000000 
-9.211401 3.883398 0.000000 
3.793380 -1.734107 0.000000 
-1.124997 -10.467345 0.000000 
-6.283969 -23.789598 0.000000 
2.044061 6.604573 0.000000 
-12.257985 12.066172 0.000000 
0.417755 -13.032802 0.000000 
-8.547066 -8.605725 0.000000 
-8.289046 5.969833 0.000000 
7.029105 7.666136 0.000000 
-5.811005 -9.258407 0.000000 
10.390552 0.646508 0.000000 
9.152362 1.930292 0.000000 
3.653443 -1.190250 0.000000 
-3.907426 0.752530 0.000000 
-8.106222 -10.035037 0.000000 
9.664128 2.496544 0.000000 
-3.180864 -5.965567 0.000000 
8.131342 -4.432077 0.000000 
-13.678313 -12.943770 0.000000 
-0.787258 4.443201 0.000000 
13.716457 -7.285686 0.000000 
-6.019471 -8.240988 0.000000 
-3.544739 4.884888 0.000000 
2.552064 -3.376113 0.000000 
3.956362 -5.994729 0.000000 
2.757021 -12.121467 0.000000 
-0.144936 0.261790 0.000000 
9.506681 -11.924818 0.000000 
-13.093243 4.224000 0.000000 
-9.172159 3.824803 0.000000 
-4.216290 -3.027990 0.000000 
-0.339250 -7.124578 0.000000 
2.146622 -4.355616 0.000000 
-7.492272 3.262485 0.000000 
-4.466730 -9.339544 0.000000 
-9.552963 10.777041 0.000000 
17.278385 8.583335 0.000000 
-6.240145 -8.497479 0.000000 
-2.204598 19.312938 0.000000 
0.499455 -20.903332 0.000000 
4.270878 -0.837991 0.000000 
-1.577112 -0.978423 0.000000 
3.221060 -1.039780 0.000000 
1.466053 7.032863 0.000000 
-1.642176 9.002864 0.000000 
0.118771 5.552715 0.000000 
-7.089492 16.420099 0.000000 
-6.542571 17.634075 0.000000 
-4.033014 -0.826289 0.000000 
-4.064665 0.860047 0.000000 
5.074257 6.988689 0.000000 
-0.693354 -8.530190 0.000000 
1.007450 -8.274911 0.000000 
2.153209 -0.026100 0.000000 
9.941373 -0.472684 0.000000 
0.234524 12.732698 0.000000 
15.843127 -12.419770 0.000000 
0.326602 -2.488753 0.000000 
9.114340 -3.455415 0.000000 
-4.913151 -8.399389 0.000000 
-0.410931 -3.024752 0.000000 
-4.222943 -7.674388 0.000000 
-1.324754 0.556744 0.000000 
2.960092 7.685180 0.000000 
0.972449 -9.346336 0.000000 
4.848653 2.041488 0.000000 
6.141279 0.834037 0.000000 
7.899875 9.446800 0.000000 
5.034633 -7.510860 0.000000 
-4.514834 -6.871174 0.000000 
6.562239 9.810494 0.000000 
1.654503 5.953754 0.000000 
11.249203 11.075079 0.000000 
0.532107 4.811740 0.000000 
0.963149 9.590664 0.000000 
-6.062270 3.112774 0.000000 
-12.516658 -3.354227 0.000000 
-7.130912 4.643464 0.000000 
-12.133433 -11.563699 0.000000 
4.816986 -1.210983 0.000000 
-3.146574 -4.248574 0.000000 
-6.284150 2.818752 0.000000 
13.105110 -11.770921 0.000000 
1.653107 -18.465797 0.000000 
9.932851 9.499030 0.000000 
8.633795 -4.896169 0.000000 
1.583773 5.727948 0.000000 
-5.477749 13.546561 0.000000 
15.042296 -16.889564 0.000000 
-8.392239 13.660433 0.000000 
-0.913462 -8.874310 0.000000 
-3.262722 11.013856 0.000000 