# vtk DataFile Version 3.0 
vtk output 
ASCII 
DATASET UNSTRUCTURED_GRID 
POINTS 184 float 
-0.028811 -0.230624 0.000000 
-0.337228 -1.042230 0.000000 
0.473826 -0.733003 0.000000 
-0.447224 -0.538247 0.000000 
0.165656 -1.148696 0.000000 
0.222713 -0.285365 0.000000 
-0.284076 -0.325074 0.000000 
-0.100762 -1.167751 0.000000 
0.418839 -0.481201 0.000000 
-0.462804 -0.811507 0.000000 
0.379480 -0.988630 0.000000 
-0.166786 -0.258111 0.000000 
-0.227178 -1.120600 0.000000 
0.463197 -0.603792 0.000000 
-0.473871 -0.676106 0.000000 
0.286252 -1.086409 0.000000 
0.100762 -0.241357 0.000000 
-0.377333 -0.416384 0.000000 
0.039274 -1.177606 0.000000 
0.337021 -0.366958 0.000000 
-0.416046 -0.931733 0.000000 
0.444142 -0.870211 0.000000 
-0.121270 -0.244746 0.000000 
-0.301377 -1.073295 0.000000 
0.473826 -0.685565 0.000000 
-0.460589 -0.583763 0.000000 
0.246344 -1.112056 0.000000 
0.179561 -0.265659 0.000000 
-0.346268 -0.380533 0.000000 
-0.053807 -1.174502 0.000000 
0.368087 -0.402809 0.000000 
-0.449439 -0.857024 0.000000 
0.424436 -0.913362 0.000000 
-0.209938 -0.277818 0.000000 
-0.146279 -1.154386 0.000000 
0.438546 -0.524353 0.000000 
-0.473871 -0.723544 0.000000 
0.322103 -1.055344 0.000000 
0.018627 -0.230624 0.000000 
-0.427517 -0.495095 0.000000 
0.086229 -1.170855 0.000000 
0.301170 -0.335892 0.000000 
-0.368294 -1.006378 0.000000 
0.457507 -0.824694 0.000000 
-0.079407 -0.262368 0.000000 
0.369154 -0.447943 0.000000 
0.048715 -0.258979 0.000000 
0.205703 -1.104469 0.000000 
-0.167159 -1.118702 0.000000 
-0.366567 -0.965070 0.000000 
0.386144 -0.928951 0.000000 
-0.305135 -0.376363 0.000000 
-0.387078 -0.475411 0.000000 
0.425252 -0.563501 0.000000 
0.140413 -0.278953 0.000000 
0.111975 -1.138506 0.000000 
-0.260069 -1.071569 0.000000 
-0.413756 -0.877904 0.000000 
0.439780 -0.782468 0.000000 
0.326273 -1.014211 0.000000 
-0.014533 -1.150947 0.000000 
-0.225527 -0.316110 0.000000 
-0.442908 -0.625989 0.000000 
-0.445123 -0.759823 0.000000 
0.255396 -0.334476 0.000000 
0.445470 -0.655477 0.000000 
-0.079333 -0.318643 0.000000 
-0.130417 -0.361452 0.000000 
-0.191597 -0.356834 0.000000 
-0.111867 -0.420060 0.000000 
-0.224051 -0.411355 0.000000 
-0.171272 -0.448354 0.000000 
-0.055594 -0.434289 0.000000 
-0.279041 -0.421920 0.000000 
-0.040187 -0.490011 0.000000 
-0.015041 -0.393084 0.000000 
-0.296573 -0.481183 0.000000 
-0.349226 -0.511469 0.000000 
-0.351226 -0.577173 0.000000 
-0.254824 -0.519939 0.000000 
-0.391103 -0.626493 0.000000 
-0.370336 -0.686097 0.000000 
-0.284940 -0.577125 0.000000 
-0.395089 -0.745591 0.000000 
-0.360392 -0.791766 0.000000 
-0.313327 -0.685523 0.000000 
-0.369688 -0.850114 0.000000 
-0.323258 -0.883909 0.000000 
-0.307698 -0.750183 0.000000 
-0.317847 -0.945037 0.000000 
-0.261652 -0.970233 0.000000 
-0.273358 -0.857716 0.000000 
-0.237999 -1.024391 0.000000 
-0.174943 -1.030263 0.000000 
-0.233858 -0.909302 0.000000 
-0.136993 -1.075542 0.000000 
-0.076092 -1.066375 0.000000 
-0.147100 -0.981285 0.000000 
-0.021468 -1.099345 0.000000 
0.034383 -1.073391 0.000000 
-0.085997 -1.003318 0.000000 
0.090783 -1.090948 0.000000 
0.131601 -1.050081 0.000000 
0.025861 -1.016918 0.000000 
0.192839 -1.053411 0.000000 
0.225790 -1.001382 0.000000 
0.089168 -1.002401 0.000000 
0.282731 -0.985660 0.000000 
0.297512 -0.924080 0.000000 
0.190626 -0.953350 0.000000 
0.347718 -0.892953 0.000000 
0.347308 -0.831369 0.000000 
0.236036 -0.906911 0.000000 
0.387714 -0.781990 0.000000 
0.369971 -0.723016 0.000000 
0.294872 -0.810794 0.000000 
0.395378 -0.669687 0.000000 
0.360736 -0.623468 0.000000 
0.307967 -0.747176 0.000000 
0.372882 -0.568967 0.000000 
0.326072 -0.528947 0.000000 
0.305499 -0.634508 0.000000 
0.320446 -0.467942 0.000000 
0.261463 -0.438905 0.000000 
0.282122 -0.573910 0.000000 
0.233332 -0.381638 0.000000 
0.170485 -0.375685 0.000000 
0.219133 -0.480462 0.000000 
0.132530 -0.330421 0.000000 
0.077667 -0.340277 0.000000 
0.033502 -0.306431 0.000000 
-0.020231 -0.336047 0.000000 
0.166704 -0.442123 0.000000 
0.047676 -0.393333 0.000000 
-0.184513 -0.497674 0.000000 
-0.267808 -0.625871 0.000000 
-0.039895 -0.979814 0.000000 
0.233804 -0.855208 0.000000 
0.278138 -0.704887 0.000000 
0.115242 -0.957700 0.000000 
0.234165 -0.554461 0.000000 
-0.267095 -0.782339 0.000000 
-0.182363 -0.914483 0.000000 
-0.080635 -0.531236 0.000000 
0.015739 -0.504427 0.000000 
-0.141814 -0.534045 0.000000 
-0.170613 -0.591507 0.000000 
-0.215488 -0.630234 0.000000 
-0.205084 -0.693554 0.000000 
-0.129406 -0.628454 0.000000 
-0.218571 -0.754049 0.000000 
-0.148068 -0.685639 0.000000 
-0.174593 -0.800424 0.000000 
-0.076799 -0.594332 0.000000 
-0.155573 -0.862522 0.000000 
-0.126037 -0.770395 0.000000 
-0.074980 -0.797006 0.000000 
-0.112999 -0.716106 0.000000 
-0.052249 -0.699334 0.000000 
-0.031995 -0.752318 0.000000 
-0.034711 -0.634746 0.000000 
0.031192 -0.560060 0.000000 
0.063050 -0.448953 0.000000 
-0.089197 -0.860645 0.000000 
0.009049 -0.618342 0.000000 
0.051424 -0.668237 0.000000 
0.053332 -0.723375 0.000000 
0.098177 -0.638945 0.000000 
0.011239 -0.766219 0.000000 
0.028372 -0.827656 0.000000 
0.017947 -0.887082 0.000000 
0.077740 -0.914972 0.000000 
0.083331 -0.828297 0.000000 
0.117710 -0.870437 0.000000 
0.179025 -0.841507 0.000000 
0.098599 -0.767399 0.000000 
0.165702 -0.649520 0.000000 
0.087920 -0.580125 0.000000 
0.161326 -0.770773 0.000000 
0.191154 -0.591660 0.000000 
0.131959 -0.548810 0.000000 
0.122542 -0.473271 0.000000 
-0.040916 -0.904516 0.000000 
0.197397 -0.711318 0.000000 
CELLS 184 368 
1 0 
1 1 
1 2 
1 3 
1 4 
1 5 
1 6 
1 7 
1 8 
1 9 
1 10 
1 11 
1 12 
1 13 
1 14 
1 15 
1 16 
1 17 
1 18 
1 19 
1 20 
1 21 
1 22 
1 23 
1 24 
1 25 
1 26 
1 27 
1 28 
1 29 
1 30 
1 31 
1 32 
1 33 
1 34 
1 35 
1 36 
1 37 
1 38 
1 39 
1 40 
1 41 
1 42 
1 43 
1 44 
1 45 
1 46 
1 47 
1 48 
1 49 
1 50 
1 51 
1 52 
1 53 
1 54 
1 55 
1 56 
1 57 
1 58 
1 59 
1 60 
1 61 
1 62 
1 63 
1 64 
1 65 
1 66 
1 67 
1 68 
1 69 
1 70 
1 71 
1 72 
1 73 
1 74 
1 75 
1 76 
1 77 
1 78 
1 79 
1 80 
1 81 
1 82 
1 83 
1 84 
1 85 
1 86 
1 87 
1 88 
1 89 
1 90 
1 91 
1 92 
1 93 
1 94 
1 95 
1 96 
1 97 
1 98 
1 99 
1 100 
1 101 
1 102 
1 103 
1 104 
1 105 
1 106 
1 107 
1 108 
1 109 
1 110 
1 111 
1 112 
1 113 
1 114 
1 115 
1 116 
1 117 
1 118 
1 119 
1 120 
1 121 
1 122 
1 123 
1 124 
1 125 
1 126 
1 127 
1 128 
1 129 
1 130 
1 131 
1 132 
1 133 
1 134 
1 135 
1 136 
1 137 
1 138 
1 139 
1 140 
1 141 
1 142 
1 143 
1 144 
1 145 
1 146 
1 147 
1 148 
1 149 
1 150 
1 151 
1 152 
1 153 
1 154 
1 155 
1 156 
1 157 
1 158 
1 159 
1 160 
1 161 
1 162 
1 163 
1 164 
1 165 
1 166 
1 167 
1 168 
1 169 
1 170 
1 171 
1 172 
1 173 
1 174 
1 175 
1 176 
1 177 
1 178 
1 179 
1 180 
1 181 
1 182 
1 183 
CELL_TYPES 184 
1 
1 
1 
1 
1 
1 
1 
1 
1 
1 
1 
1 
1 
1 
1 
1 
1 
1 
1 
1 
1 
1 
1 
1 
1 
1 
1 
1 
1 
1 
1 
1 
1 
1 
1 
1 
1 
1 
1 
1 
1 
1 
1 
1 
1 
1 
1 
1 
1 
1 
1 
1 
1 
1 
1 
1 
1 
1 
1 
1 
1 
1 
1 
1 
1 
1 
1 
1 
1 
1 
1 
1 
1 
1 
1 
1 
1 
1 
1 
1 
1 
1 
1 
1 
1 
1 
1 
1 
1 
1 
1 
1 
1 
1 
1 
1 
1 
1 
1 
1 
1 
1 
1 
1 
1 
1 
1 
1 
1 
1 
1 
1 
1 
1 
1 
1 
1 
1 
1 
1 
1 
1 
1 
1 
1 
1 
1 
1 
1 
1 
1 
1 
1 
1 
1 
1 
1 
1 
1 
1 
1 
1 
1 
1 
1 
1 
1 
1 
1 
1 
1 
1 
1 
1 
1 
1 
1 
1 
1 
1 
1 
1 
1 
1 
1 
1 
1 
1 
1 
1 
1 
1 
1 
1 
1 
1 
1 
1 
1 
1 
1 
1 
1 
1 
POINT_DATA 184 
VECTORS X_GC float 
-0.028811 -0.230624 0.000000 
-0.337228 -1.042230 0.000000 
0.473826 -0.733003 0.000000 
-0.447224 -0.538247 0.000000 
0.165656 -1.148696 0.000000 
0.222713 -0.285365 0.000000 
-0.284076 -0.325074 0.000000 
-0.100762 -1.167751 0.000000 
0.418839 -0.481201 0.000000 
-0.462804 -0.811507 0.000000 
0.379480 -0.988630 0.000000 
-0.166786 -0.258111 0.000000 
-0.227178 -1.120600 0.000000 
0.463197 -0.603792 0.000000 
-0.473871 -0.676106 0.000000 
0.286252 -1.086409 0.000000 
0.100762 -0.241357 0.000000 
-0.377333 -0.416384 0.000000 
0.039274 -1.177606 0.000000 
0.337021 -0.366958 0.000000 
-0.416046 -0.931733 0.000000 
0.444142 -0.870211 0.000000 
-0.121270 -0.244746 0.000000 
-0.301377 -1.073295 0.000000 
0.473826 -0.685565 0.000000 
-0.460589 -0.583763 0.000000 
0.246344 -1.112056 0.000000 
0.179561 -0.265659 0.000000 
-0.346268 -0.380533 0.000000 
-0.053807 -1.174502 0.000000 
0.368087 -0.402809 0.000000 
-0.449439 -0.857024 0.000000 
0.424436 -0.913362 0.000000 
-0.209938 -0.277818 0.000000 
-0.146279 -1.154386 0.000000 
0.438546 -0.524353 0.000000 
-0.473871 -0.723544 0.000000 
0.322103 -1.055344 0.000000 
0.018627 -0.230624 0.000000 
-0.427517 -0.495095 0.000000 
0.086229 -1.170855 0.000000 
0.301170 -0.335892 0.000000 
-0.368294 -1.006378 0.000000 
0.457507 -0.824694 0.000000 
-0.079407 -0.262368 0.000000 
0.369154 -0.447943 0.000000 
0.048715 -0.258979 0.000000 
0.205703 -1.104469 0.000000 
-0.167159 -1.118702 0.000000 
-0.366567 -0.965070 0.000000 
0.386144 -0.928951 0.000000 
-0.305135 -0.376363 0.000000 
-0.387078 -0.475411 0.000000 
0.425252 -0.563501 0.000000 
0.140413 -0.278953 0.000000 
0.111975 -1.138506 0.000000 
-0.260069 -1.071569 0.000000 
-0.413756 -0.877904 0.000000 
0.439780 -0.782468 0.000000 
0.326273 -1.014211 0.000000 
-0.014533 -1.150947 0.000000 
-0.225527 -0.316110 0.000000 
-0.442908 -0.625989 0.000000 
-0.445123 -0.759823 0.000000 
0.255396 -0.334476 0.000000 
0.445470 -0.655477 0.000000 
-0.079333 -0.318643 0.000000 
-0.130417 -0.361452 0.000000 
-0.191597 -0.356834 0.000000 
-0.111867 -0.420060 0.000000 
-0.224051 -0.411355 0.000000 
-0.171272 -0.448354 0.000000 
-0.055594 -0.434289 0.000000 
-0.279041 -0.421920 0.000000 
-0.040187 -0.490011 0.000000 
-0.015041 -0.393084 0.000000 
-0.296573 -0.481183 0.000000 
-0.349226 -0.511469 0.000000 
-0.351226 -0.577173 0.000000 
-0.254824 -0.519939 0.000000 
-0.391103 -0.626493 0.000000 
-0.370336 -0.686097 0.000000 
-0.284940 -0.577125 0.000000 
-0.395089 -0.745591 0.000000 
-0.360392 -0.791766 0.000000 
-0.313327 -0.685523 0.000000 
-0.369688 -0.850114 0.000000 
-0.323258 -0.883909 0.000000 
-0.307698 -0.750183 0.000000 
-0.317847 -0.945037 0.000000 
-0.261652 -0.970233 0.000000 
-0.273358 -0.857716 0.000000 
-0.237999 -1.024391 0.000000 
-0.174943 -1.030263 0.000000 
-0.233858 -0.909302 0.000000 
-0.136993 -1.075542 0.000000 
-0.076092 -1.066375 0.000000 
-0.147100 -0.981285 0.000000 
-0.021468 -1.099345 0.000000 
0.034383 -1.073391 0.000000 
-0.085997 -1.003318 0.000000 
0.090783 -1.090948 0.000000 
0.131601 -1.050081 0.000000 
0.025861 -1.016918 0.000000 
0.192839 -1.053411 0.000000 
0.225790 -1.001382 0.000000 
0.089168 -1.002401 0.000000 
0.282731 -0.985660 0.000000 
0.297512 -0.924080 0.000000 
0.190626 -0.953350 0.000000 
0.347718 -0.892953 0.000000 
0.347308 -0.831369 0.000000 
0.236036 -0.906911 0.000000 
0.387714 -0.781990 0.000000 
0.369971 -0.723016 0.000000 
0.294872 -0.810794 0.000000 
0.395378 -0.669687 0.000000 
0.360736 -0.623468 0.000000 
0.307967 -0.747176 0.000000 
0.372882 -0.568967 0.000000 
0.326072 -0.528947 0.000000 
0.305499 -0.634508 0.000000 
0.320446 -0.467942 0.000000 
0.261463 -0.438905 0.000000 
0.282122 -0.573910 0.000000 
0.233332 -0.381638 0.000000 
0.170485 -0.375685 0.000000 
0.219133 -0.480462 0.000000 
0.132530 -0.330421 0.000000 
0.077667 -0.340277 0.000000 
0.033502 -0.306431 0.000000 
-0.020231 -0.336047 0.000000 
0.166704 -0.442123 0.000000 
0.047676 -0.393333 0.000000 
-0.184513 -0.497674 0.000000 
-0.267808 -0.625871 0.000000 
-0.039895 -0.979814 0.000000 
0.233804 -0.855208 0.000000 
0.278138 -0.704887 0.000000 
0.115242 -0.957700 0.000000 
0.234165 -0.554461 0.000000 
-0.267095 -0.782339 0.000000 
-0.182363 -0.914483 0.000000 
-0.080635 -0.531236 0.000000 
0.015739 -0.504427 0.000000 
-0.141814 -0.534045 0.000000 
-0.170613 -0.591507 0.000000 
-0.215488 -0.630234 0.000000 
-0.205084 -0.693554 0.000000 
-0.129406 -0.628454 0.000000 
-0.218571 -0.754049 0.000000 
-0.148068 -0.685639 0.000000 
-0.174593 -0.800424 0.000000 
-0.076799 -0.594332 0.000000 
-0.155573 -0.862522 0.000000 
-0.126037 -0.770395 0.000000 
-0.074980 -0.797006 0.000000 
-0.112999 -0.716106 0.000000 
-0.052249 -0.699334 0.000000 
-0.031995 -0.752318 0.000000 
-0.034711 -0.634746 0.000000 
0.031192 -0.560060 0.000000 
0.063050 -0.448953 0.000000 
-0.089197 -0.860645 0.000000 
0.009049 -0.618342 0.000000 
0.051424 -0.668237 0.000000 
0.053332 -0.723375 0.000000 
0.098177 -0.638945 0.000000 
0.011239 -0.766219 0.000000 
0.028372 -0.827656 0.000000 
0.017947 -0.887082 0.000000 
0.077740 -0.914972 0.000000 
0.083331 -0.828297 0.000000 
0.117710 -0.870437 0.000000 
0.179025 -0.841507 0.000000 
0.098599 -0.767399 0.000000 
0.165702 -0.649520 0.000000 
0.087920 -0.580125 0.000000 
0.161326 -0.770773 0.000000 
0.191154 -0.591660 0.000000 
0.131959 -0.548810 0.000000 
0.122542 -0.473271 0.000000 
-0.040916 -0.904516 0.000000 
0.197397 -0.711318 0.000000 
VECTORS X_EC float 
-0.807924 0.537492 0.000000 
-0.751813 -0.051802 0.000000 
-0.158839 -0.113312 0.000000 
-0.018508 0.588310 0.000000 
-0.104376 0.657976 0.000000 
-0.484750 0.902435 0.000000 
0.893837 -0.832842 0.000000 
-0.328251 0.785007 0.000000 
0.207737 0.208010 0.000000 
0.085362 0.410049 0.000000 
0.470130 -0.409135 0.000000 
0.111910 0.720741 0.000000 
0.514522 0.470669 0.000000 
-0.087979 -0.974721 0.000000 
0.159142 -0.492628 0.000000 
-0.908345 0.242728 0.000000 
0.328251 0.609049 0.000000 
-0.484444 -0.224105 0.000000 
0.738177 0.850709 0.000000 
0.753192 -0.553614 0.000000 
-0.226359 -0.788450 0.000000 
0.039052 0.801405 0.000000 
-0.191535 0.631641 0.000000 
-0.990822 0.155301 0.000000 
-0.158839 -0.429567 0.000000 
0.070591 0.891755 0.000000 
-0.642294 0.413709 0.000000 
-0.197074 0.771058 0.000000 
-0.691547 -0.463115 0.000000 
-0.641287 0.830015 0.000000 
0.546089 -0.314604 0.000000 
-0.003737 0.713493 0.000000 
0.170429 -0.910920 0.000000 
0.399586 0.852118 0.000000 
-0.024807 0.695908 0.000000 
0.076360 0.495686 0.000000 
0.159142 -0.176373 0.000000 
0.852645 0.035625 0.000000 
0.875821 0.537492 0.000000 
-0.149885 0.300635 0.000000 
0.425140 0.805701 0.000000 
0.992201 -0.760717 0.000000 
-0.544710 -0.290812 0.000000 
-0.050047 0.497960 0.000000 
-0.470623 0.749121 0.000000 
0.538976 -0.013715 0.000000 
0.675236 0.726529 0.000000 
-0.371350 0.363125 0.000000 
0.114395 0.458017 0.000000 
-0.556219 -0.566197 0.000000 
0.425709 -0.806990 0.000000 
-0.965767 -0.490914 0.000000 
-0.419479 0.169409 0.000000 
0.164988 0.756673 0.000000 
0.063913 0.859686 0.000000 
0.253500 0.590042 0.000000 
0.733793 0.143791 0.000000 
-0.241628 0.852695 0.000000 
0.068130 0.216456 0.000000 
0.824846 -0.238595 0.000000 
-0.903111 0.672982 0.000000 
0.503515 -0.892602 0.000000 
-0.047282 -0.826738 0.000000 
-0.032511 0.065484 0.000000 
-0.702641 -0.770160 0.000000 
0.030198 -0.630152 0.000000 
-0.471115 -0.875714 0.000000 
-0.130555 -0.590318 0.000000 
0.277311 -0.621104 0.000000 
-0.254217 -0.199599 0.000000 
0.493676 -0.257632 0.000000 
0.141813 -0.010972 0.000000 
-0.629371 -0.104743 0.000000 
0.860276 -0.187202 0.000000 
-0.732087 0.266737 0.000000 
-0.899724 -0.379437 0.000000 
0.977153 0.207890 0.000000 
-0.671826 0.409791 0.000000 
-0.658496 0.847820 0.000000 
0.698824 0.466258 0.000000 
-0.392645 -0.823379 0.000000 
-0.531093 -0.426019 0.000000 
0.899598 0.847499 0.000000 
-0.366074 -0.029393 0.000000 
-0.597389 0.278438 0.000000 
-0.911153 -0.429849 0.000000 
-0.535415 0.667425 0.000000 
-0.844949 0.892723 0.000000 
-0.948677 0.001222 0.000000 
-0.881021 -0.699753 0.000000 
0.744349 -0.531781 0.000000 
0.822387 0.718107 0.000000 
0.586663 -0.170724 0.000000 
0.166285 -0.131582 0.000000 
0.559054 -0.937984 0.000000 
-0.086713 0.170282 0.000000 
-0.492723 0.109165 0.000000 
-0.019331 -0.458101 0.000000 
-0.856883 0.328966 0.000000 
0.770780 0.155942 0.000000 
-0.426685 -0.311216 0.000000 
0.394783 0.272989 0.000000 
0.122661 0.000539 0.000000 
0.827591 -0.220547 0.000000 
-0.285596 0.022740 0.000000 
-0.505268 -0.324119 0.000000 
0.405544 -0.317325 0.000000 
-0.884872 -0.428935 0.000000 
-0.983414 -0.839464 0.000000 
-0.270837 -0.644333 0.000000 
0.681883 0.953021 0.000000 
0.684612 0.542460 0.000000 
-0.573571 -0.953927 0.000000 
0.415238 0.213270 0.000000 
0.533524 -0.179893 0.000000 
-0.965812 0.405291 0.000000 
0.364144 -0.535418 0.000000 
0.595096 -0.843545 0.000000 
0.946884 -0.018827 0.000000 
0.514118 0.793116 0.000000 
0.826186 0.526317 0.000000 
0.963337 -0.769944 0.000000 
0.863696 0.119613 0.000000 
-0.743089 -0.073964 0.000000 
-0.880813 0.826066 0.000000 
-0.555549 -0.455744 0.000000 
-0.136568 -0.495430 0.000000 
-0.460886 0.203082 0.000000 
0.116466 -0.797194 0.000000 
0.482219 -0.731485 0.000000 
0.776650 -0.957126 0.000000 
-0.865130 -0.759688 0.000000 
-0.111363 -0.052516 0.000000 
0.682158 -0.377783 0.000000 
0.230085 0.317825 0.000000 
0.785388 -0.827530 0.000000 
-0.734034 -0.467905 0.000000 
-0.558696 0.701389 0.000000 
-0.854255 -0.300752 0.000000 
0.231718 -0.615337 0.000000 
-0.561100 0.696408 0.000000 
0.780632 0.215593 0.000000 
0.215752 -0.903447 0.000000 
-0.462433 0.541574 0.000000 
0.895071 0.362845 0.000000 
-0.054573 0.560300 0.000000 
0.137421 0.943382 0.000000 
0.436584 -0.798441 0.000000 
0.367225 -0.376309 0.000000 
-0.137294 -0.810307 0.000000 
0.457138 0.026993 0.000000 
-0.012881 -0.429070 0.000000 
0.163955 0.336158 0.000000 
-0.488009 0.962217 0.000000 
0.037156 0.750149 0.000000 
-0.159751 0.135967 0.000000 
-0.500136 0.313373 0.000000 
-0.246673 -0.225960 0.000000 
-0.651673 -0.337774 0.000000 
-0.786702 0.015453 0.000000 
-0.768596 -0.768361 0.000000 
0.792053 0.733737 0.000000 
0.579669 -0.006981 0.000000 
-0.405356 0.737635 0.000000 
0.939676 -0.877722 0.000000 
0.657172 -0.545086 0.000000 
0.644454 -0.177498 0.000000 
0.345486 -0.740365 0.000000 
0.925074 0.108130 0.000000 
0.810853 0.517710 0.000000 
0.880351 0.913882 0.000000 
0.481737 -0.900187 0.000000 
0.444460 0.521982 0.000000 
0.215264 0.802913 0.000000 
-0.193502 0.610045 0.000000 
0.342676 0.115993 0.000000 
-0.104683 -0.669870 0.000000 
0.413868 0.867501 0.000000 
-0.075508 0.138485 0.000000 
-0.274359 0.944400 0.000000 
0.120271 0.658731 0.000000 
0.183054 0.155140 0.000000 
-0.727227 -0.969893 0.000000 
-0.315983 -0.257878 0.000000 
CELL_DATA 184 
SCALARS MASS float 
LOOKUP_TABLE default 
0.051252 
0.046008 
0.051531 
0.046188 
0.052854 
0.051531 
0.052854 
0.052854 
0.051531 
0.050859 
0.052854 
0.047395 
0.052854 
0.052854 
0.051434 
0.045995 
0.052854 
0.051281 
0.051530 
0.046441 
0.052854 
0.052854 
0.050612 
0.049065 
0.052975 
0.049197 
0.049245 
0.052975 
0.052990 
0.055938 
0.049713 
0.052094 
0.055938 
0.050456 
0.055938 
0.053198 
0.052878 
0.049051 
0.052807 
0.049481 
0.052974 
0.049465 
0.049257 
0.055938 
0.105225 
0.104629 
0.082126 
0.094264 
0.094771 
0.094259 
0.094771 
0.083366 
0.104047 
0.083092 
0.081316 
0.081315 
0.092719 
0.079469 
0.108073 
0.092710 
0.108073 
0.093129 
0.104035 
0.094961 
0.104398 
0.081316 
0.125285 
0.099128 
0.098320 
0.087841 
0.082650 
0.097481 
0.086914 
0.081921 
0.086680 
0.086680 
0.081485 
0.107769 
0.088711 
0.084874 
0.107874 
0.082612 
0.095190 
0.095229 
0.083942 
0.085089 
0.079923 
0.081132 
0.095301 
0.097917 
0.090576 
0.085268 
0.095896 
0.081062 
0.095454 
0.090083 
0.081027 
0.085251 
0.101961 
0.083022 
0.095445 
0.080604 
0.081018 
0.085240 
0.097826 
0.090495 
0.095435 
0.095845 
0.081023 
0.085241 
0.090072 
0.081024 
0.095436 
0.101966 
0.083028 
0.085242 
0.080610 
0.081024 
0.095437 
0.082345 
0.082694 
0.085242 
0.109264 
0.089885 
0.095437 
0.108636 
0.083028 
0.085242 
0.080610 
0.074817 
0.073569 
0.082490 
0.095437 
0.095617 
0.133784 
0.138292 
0.139667 
0.139695 
0.139694 
0.139689 
0.139693 
0.140105 
0.139774 
0.086622 
0.086622 
0.089038 
0.077179 
0.079159 
0.072465 
0.084345 
0.092656 
0.093083 
0.084037 
0.098826 
0.101847 
0.085968 
0.086444 
0.074619 
0.064825 
0.094138 
0.124406 
0.086607 
0.131576 
0.102571 
0.084703 
0.076503 
0.084191 
0.084191 
0.086793 
0.075696 
0.084714 
0.090949 
0.084009 
0.076569 
0.086383 
0.098391 
0.110757 
0.093222 
0.143196 
0.101090 
0.091038 
0.150913 
0.178131 
0.206980 
SCALARS MASS float 
LOOKUP_TABLE default 
0.051252 
0.046008 
0.051531 
0.046188 
0.052854 
0.051531 
0.052854 
0.052854 
0.051531 
0.050859 
0.052854 
0.047395 
0.052854 
0.052854 
0.051434 
0.045995 
0.052854 
0.051281 
0.051530 
0.046441 
0.052854 
0.052854 
0.050612 
0.049065 
0.052975 
0.049197 
0.049245 
0.052975 
0.052990 
0.055938 
0.049713 
0.052094 
0.055938 
0.050456 
0.055938 
0.053198 
0.052878 
0.049051 
0.052807 
0.049481 
0.052974 
0.049465 
0.049257 
0.055938 
0.105225 
0.104629 
0.082126 
0.094264 
0.094771 
0.094259 
0.094771 
0.083366 
0.104047 
0.083092 
0.081316 
0.081315 
0.092719 
0.079469 
0.108073 
0.092710 
0.108073 
0.093129 
0.104035 
0.094961 
0.104398 
0.081316 
0.125285 
0.099128 
0.098320 
0.087841 
0.082650 
0.097481 
0.086914 
0.081921 
0.086680 
0.086680 
0.081485 
0.107769 
0.088711 
0.084874 
0.107874 
0.082612 
0.095190 
0.095229 
0.083942 
0.085089 
0.079923 
0.081132 
0.095301 
0.097917 
0.090576 
0.085268 
0.095896 
0.081062 
0.095454 
0.090083 
0.081027 
0.085251 
0.101961 
0.083022 
0.095445 
0.080604 
0.081018 
0.085240 
0.097826 
0.090495 
0.095435 
0.095845 
0.081023 
0.085241 
0.090072 
0.081024 
0.095436 
0.101966 
0.083028 
0.085242 
0.080610 
0.081024 
0.095437 
0.082345 
0.082694 
0.085242 
0.109264 
0.089885 
0.095437 
0.108636 
0.083028 
0.085242 
0.080610 
0.074817 
0.073569 
0.082490 
0.095437 
0.095617 
0.133784 
0.138292 
0.139667 
0.139695 
0.139694 
0.139689 
0.139693 
0.140105 
0.139774 
0.086622 
0.086622 
0.089038 
0.077179 
0.079159 
0.072465 
0.084345 
0.092656 
0.093083 
0.084037 
0.098826 
0.101847 
0.085968 
0.086444 
0.074619 
0.064825 
0.094138 
0.124406 
0.086607 
0.131576 
0.102571 
0.084703 
0.076503 
0.084191 
0.084191 
0.086793 
0.075696 
0.084714 
0.090949 
0.084009 
0.076569 
0.086383 
0.098391 
0.110757 
0.093222 
0.143196 
0.101090 
0.091038 
0.150913 
0.178131 
0.206980 
SCALARS DENSITY float 
LOOKUP_TABLE default 
20.000000 
20.000000 
20.000000 
20.000000 
20.000000 
20.000000 
20.000000 
20.000000 
20.000000 
20.000000 
20.000000 
20.000000 
20.000000 
20.000000 
20.000000 
20.000000 
20.000000 
20.000000 
20.000000 
20.000000 
20.000000 
20.000000 
20.000000 
20.000000 
20.000000 
20.000000 
20.000000 
20.000000 
20.000000 
20.000000 
20.000000 
20.000000 
20.000000 
20.000000 
20.000000 
20.000000 
20.000000 
20.000000 
20.000000 
20.000000 
20.000000 
20.000000 
20.000000 
20.000000 
20.000000 
20.000000 
20.000000 
20.000000 
20.000000 
20.000000 
20.000000 
20.000000 
20.000000 
20.000000 
20.000000 
20.000000 
20.000000 
20.000000 
20.000000 
20.000000 
20.000000 
20.000000 
20.000000 
20.000000 
20.000000 
20.000000 
20.000000 
20.000000 
20.000000 
20.000000 
20.000000 
20.000000 
20.000000 
20.000000 
20.000000 
20.000000 
20.000000 
20.000000 
20.000000 
20.000000 
20.000000 
20.000000 
20.000000 
20.000000 
20.000000 
20.000000 
20.000000 
20.000000 
20.000000 
20.000000 
20.000000 
20.000000 
20.000000 
20.000000 
20.000000 
20.000000 
20.000000 
20.000000 
20.000000 
20.000000 
20.000000 
20.000000 
20.000000 
20.000000 
20.000000 
20.000000 
20.000000 
20.000000 
20.000000 
20.000000 
20.000000 
20.000000 
20.000000 
20.000000 
20.000000 
20.000000 
20.000000 
20.000000 
20.000000 
20.000000 
20.000000 
20.000000 
20.000000 
20.000000 
20.000000 
20.000000 
20.000000 
20.000000 
20.000000 
20.000000 
20.000000 
20.000000 
20.000000 
20.000000 
20.000000 
20.000000 
20.000000 
20.000000 
20.000000 
20.000000 
20.000000 
20.000000 
20.000000 
20.000000 
20.000000 
20.000000 
20.000000 
20.000000 
20.000000 
20.000000 
20.000000 
20.000000 
20.000000 
20.000000 
20.000000 
20.000000 
20.000000 
20.000000 
20.000000 
20.000000 
20.000000 
20.000000 
20.000000 
20.000000 
20.000000 
20.000000 
20.000000 
20.000000 
20.000000 
20.000000 
20.000000 
20.000000 
20.000000 
20.000000 
20.000000 
20.000000 
20.000000 
20.000000 
20.000000 
20.000000 
20.000000 
20.000000 
20.000000 
20.000000 
SCALARS ELEM_i float 
LOOKUP_TABLE default 
209 
226 
167 
228 
186 
189 
208 
206 
168 
227 
166 
209 
206 
167 
227 
186 
189 
228 
186 
168 
226 
167 
209 
226 
167 
228 
186 
189 
228 
206 
168 
227 
166 
209 
206 
168 
227 
166 
189 
228 
186 
168 
226 
167 
209 
168 
189 
186 
206 
226 
166 
228 
228 
168 
189 
186 
206 
227 
167 
166 
206 
208 
227 
227 
188 
167 
208 
208 
208 
208 
208 
208 
208 
208 
208 
208 
208 
228 
228 
208 
227 
227 
208 
227 
227 
227 
227 
227 
227 
226 
206 
207 
206 
206 
206 
206 
206 
206 
206 
186 
206 
186 
186 
186 
186 
186 
186 
186 
186 
186 
167 
167 
186 
167 
167 
187 
167 
167 
167 
168 
168 
167 
168 
188 
188 
188 
188 
188 
188 
188 
188 
208 
188 
188 
208 
207 
206 
187 
187 
186 
188 
207 
206 
208 
188 
208 
208 
207 
207 
207 
207 
207 
207 
208 
207 
207 
207 
207 
207 
207 
207 
188 
188 
207 
187 
187 
187 
187 
187 
187 
187 
186 
187 
187 
187 
187 
187 
188 
187 
188 
188 
188 
206 
187 
VECTORS VELOCITY float 
-0.000000 -3.708180 0.000000 
0.000000 -3.708180 0.000000 
-0.000000 -3.708180 0.000000 
-0.000000 -3.708180 0.000000 
0.000000 -3.708180 0.000000 
-0.000000 -3.708180 0.000000 
0.000000 -3.708180 0.000000 
0.000000 -3.708180 0.000000 
-0.000000 -3.708180 0.000000 
0.000000 -3.708180 0.000000 
-0.000000 -3.708180 0.000000 
0.000000 -3.708180 0.000000 
0.000000 -3.708180 0.000000 
0.000000 -3.708180 0.000000 
-0.000000 -3.708180 0.000000 
0.000000 -3.708180 0.000000 
-0.000000 -3.708180 0.000000 
-0.000000 -3.708180 0.000000 
-0.000000 -3.708180 0.000000 
-0.000000 -3.708180 0.000000 
0.000000 -3.708180 0.000000 
-0.000000 -3.708180 0.000000 
0.000000 -3.708180 0.000000 
0.000000 -3.708180 0.000000 
-0.000000 -3.708180 0.000000 
-0.000000 -3.708180 0.000000 
0.000000 -3.708180 0.000000 
-0.000000 -3.708180 0.000000 
0.000000 -3.708180 0.000000 
0.000000 -3.708180 0.000000 
-0.000000 -3.708180 0.000000 
0.000000 -3.708180 0.000000 
-0.000000 -3.708180 0.000000 
-0.000000 -3.708180 0.000000 
0.000000 -3.708180 0.000000 
0.000000 -3.708180 0.000000 
0.000000 -3.708180 0.000000 
-0.000000 -3.708180 0.000000 
-0.000000 -3.708180 0.000000 
-0.000000 -3.708180 0.000000 
0.000000 -3.708180 0.000000 
-0.000000 -3.708180 0.000000 
0.000000 -3.708180 0.000000 
-0.000000 -3.708180 0.000000 
0.000000 -3.708180 0.000000 
-0.000000 -3.708180 0.000000 
0.000000 -3.708180 0.000000 
0.000000 -3.708180 0.000000 
0.000000 -3.708180 0.000000 
0.000000 -3.708180 0.000000 
-0.000000 -3.708180 0.000000 
0.000000 -3.708180 0.000000 
-0.000000 -3.708180 0.000000 
-0.000000 -3.708180 0.000000 
-0.000000 -3.708180 0.000000 
0.000000 -3.708180 0.000000 
0.000000 -3.708180 0.000000 
0.000000 -3.708180 0.000000 
-0.000000 -3.708180 0.000000 
-0.000000 -3.708180 0.000000 
0.000000 -3.708180 0.000000 
0.000000 -3.708180 0.000000 
-0.000000 -3.708180 0.000000 
0.000000 -3.708180 0.000000 
-0.000000 -3.708180 0.000000 
0.000000 -3.708180 0.000000 
0.000000 -3.708180 0.000000 
0.000000 -3.708180 0.000000 
0.000000 -3.708180 0.000000 
0.000000 -3.708180 0.000000 
0.000000 -3.708180 0.000000 
0.000000 -3.708180 0.000000 
0.000000 -3.708180 0.000000 
0.000000 -3.708180 0.000000 
0.000000 -3.708180 0.000000 
0.000000 -3.708180 0.000000 
0.000000 -3.708180 0.000000 
-0.000000 -3.708180 0.000000 
-0.000000 -3.708180 0.000000 
0.000000 -3.708180 0.000000 
-0.000000 -3.708180 0.000000 
0.000000 -3.708180 0.000000 
0.000000 -3.708180 0.000000 
0.000000 -3.708180 0.000000 
0.000000 -3.708180 0.000000 
0.000000 -3.708180 0.000000 
0.000000 -3.708180 0.000000 
0.000000 -3.708180 0.000000 
0.000000 -3.708180 0.000000 
0.000000 -3.708180 0.000000 
0.000000 -3.708180 0.000000 
-0.000000 -3.708180 0.000000 
0.000000 -3.708180 0.000000 
0.000000 -3.708180 0.000000 
-0.000000 -3.708180 0.000000 
0.000000 -3.708180 0.000000 
0.000000 -3.708180 0.000000 
0.000000 -3.708180 0.000000 
0.000000 -3.708180 0.000000 
0.000000 -3.708180 0.000000 
0.000000 -3.708180 0.000000 
0.000000 -3.708180 0.000000 
0.000000 -3.708180 0.000000 
0.000000 -3.708180 0.000000 
0.000000 -3.708180 0.000000 
0.000000 -3.708180 0.000000 
0.000000 -3.708180 0.000000 
0.000000 -3.708180 0.000000 
0.000000 -3.708180 0.000000 
0.000000 -3.708180 0.000000 
-0.000000 -3.708180 0.000000 
0.000000 -3.708180 0.000000 
0.000000 -3.708180 0.000000 
-0.000000 -3.708180 0.000000 
-0.000000 -3.708180 0.000000 
0.000000 -3.708180 0.000000 
-0.000000 -3.708180 0.000000 
-0.000000 -3.708180 0.000000 
-0.000000 -3.708180 0.000000 
-0.000000 -3.708180 0.000000 
-0.000000 -3.708180 0.000000 
-0.000000 -3.708180 0.000000 
-0.000000 -3.708180 0.000000 
-0.000000 -3.708180 0.000000 
-0.000000 -3.708180 0.000000 
-0.000000 -3.708180 0.000000 
-0.000000 -3.708180 0.000000 
-0.000000 -3.708180 0.000000 
-0.000000 -3.708180 0.000000 
-0.000000 -3.708180 0.000000 
-0.000000 -3.708180 0.000000 
0.000000 -3.708180 0.000000 
-0.000000 -3.708180 0.000000 
0.000000 -3.708180 0.000000 
0.000000 -3.708180 0.000000 
-0.000000 -3.708180 0.000000 
-0.000000 -3.708180 0.000000 
0.000000 -3.708180 0.000000 
-0.000000 -3.708180 0.000000 
0.000000 -3.708180 0.000000 
-0.000000 -3.708180 0.000000 
-0.000000 -3.708180 0.000000 
-0.000000 -3.708180 0.000000 
0.000000 -3.708180 0.000000 
0.000000 -3.708180 0.000000 
0.000000 -3.708180 0.000000 
0.000000 -3.708180 0.000000 
0.000000 -3.708180 0.000000 
0.000000 -3.708180 0.000000 
0.000000 -3.708180 0.000000 
-0.000000 -3.708180 0.000000 
0.000000 -3.708180 0.000000 
-0.000000 -3.708180 0.000000 
0.000000 -3.708180 0.000000 
-0.000000 -3.708180 0.000000 
-0.000000 -3.708180 0.000000 
-0.000000 -3.708180 0.000000 
-0.000000 -3.708180 0.000000 
0.000000 -3.708180 0.000000 
-0.000000 -3.708180 0.000000 
0.000000 -3.708180 0.000000 
0.000000 -3.708180 0.000000 
0.000000 -3.708180 0.000000 
-0.000000 -3.708180 0.000000 
0.000000 -3.708180 0.000000 
0.000000 -3.708180 0.000000 
-0.000000 -3.708180 0.000000 
-0.000000 -3.708180 0.000000 
-0.000000 -3.708180 0.000000 
-0.000000 -3.708180 0.000000 
-0.000000 -3.708180 0.000000 
0.000000 -3.708180 0.000000 