# vtk DataFile Version 3.0 
vtk output 
ASCII 
DATASET UNSTRUCTURED_GRID 
POINTS 184 float 
-0.029910 -2.040364 0.000000 
-0.360474 -2.907957 0.000000 
0.473763 -2.536772 0.000000 
-0.447701 -2.348606 0.000000 
0.181978 -3.094938 0.000000 
0.220813 -2.091095 0.000000 
-0.285458 -2.133061 0.000000 
-0.112385 -3.134273 0.000000 
0.418303 -2.287985 0.000000 
-0.464166 -2.612860 0.000000 
0.391773 -2.825306 0.000000 
-0.167277 -2.064914 0.000000 
-0.235616 -3.035061 0.000000 
0.465872 -2.409061 0.000000 
-0.474267 -2.482802 0.000000 
0.292430 -2.963645 0.000000 
0.098921 -2.048822 0.000000 
-0.377372 -2.226004 0.000000 
0.051479 -3.157821 0.000000 
0.336416 -2.171826 0.000000 
-0.425195 -2.736122 0.000000 
0.445731 -2.669777 0.000000 
-0.122234 -2.051786 0.000000 
-0.313136 -2.953043 0.000000 
0.473983 -2.489985 0.000000 
-0.461616 -2.394009 0.000000 
0.255194 -3.017357 0.000000 
0.176507 -2.071941 0.000000 
-0.346935 -2.189289 0.000000 
-0.059255 -3.143552 0.000000 
0.367003 -2.208538 0.000000 
-0.451945 -2.655678 0.000000 
0.427829 -2.718256 0.000000 
-0.209707 -2.085700 0.000000 
-0.159654 -3.104866 0.000000 
0.438772 -2.331268 0.000000 
-0.473807 -2.528865 0.000000 
0.337021 -2.933376 0.000000 
0.017561 -2.040987 0.000000 
-0.427660 -2.305365 0.000000 
0.103108 -3.144262 0.000000 
0.300646 -2.140417 0.000000 
-0.389706 -2.845954 0.000000 
0.458287 -2.626285 0.000000 
-0.080621 -2.070862 0.000000 
0.368212 -2.255203 0.000000 
0.046997 -2.067987 0.000000 
0.212845 -2.981410 0.000000 
-0.171316 -3.005246 0.000000 
-0.377314 -2.775228 0.000000 
0.390707 -2.733044 0.000000 
-0.306169 -2.185336 0.000000 
-0.387222 -2.285858 0.000000 
0.426069 -2.371450 0.000000 
0.137621 -2.086405 0.000000 
0.121769 -3.035975 0.000000 
-0.263101 -2.924950 0.000000 
-0.417029 -2.673882 0.000000 
0.440508 -2.584747 0.000000 
0.335370 -2.845644 0.000000 
-0.010763 -3.029235 0.000000 
-0.226905 -2.124446 0.000000 
-0.445041 -2.433802 0.000000 
-0.445797 -2.563466 0.000000 
0.254393 -2.140118 0.000000 
0.446641 -2.460602 0.000000 
-0.080846 -2.128175 0.000000 
-0.131611 -2.171465 0.000000 
-0.192830 -2.166258 0.000000 
-0.112468 -2.230950 0.000000 
-0.224586 -2.221766 0.000000 
-0.171646 -2.259293 0.000000 
-0.056145 -2.245270 0.000000 
-0.279427 -2.232351 0.000000 
-0.040304 -2.300759 0.000000 
-0.016011 -2.204262 0.000000 
-0.296882 -2.292529 0.000000 
-0.349616 -2.322620 0.000000 
-0.351625 -2.389190 0.000000 
-0.255040 -2.331748 0.000000 
-0.392496 -2.436147 0.000000 
-0.371102 -2.494716 0.000000 
-0.284946 -2.390082 0.000000 
-0.396104 -2.550084 0.000000 
-0.362143 -2.592901 0.000000 
-0.314459 -2.495289 0.000000 
-0.372442 -2.646609 0.000000 
-0.327047 -2.675452 0.000000 
-0.309607 -2.554481 0.000000 
-0.322537 -2.739707 0.000000 
-0.264567 -2.766102 0.000000 
-0.276176 -2.651241 0.000000 
-0.240076 -2.838647 0.000000 
-0.176036 -2.841266 0.000000 
-0.237313 -2.698116 0.000000 
-0.137296 -2.904841 0.000000 
-0.075150 -2.879791 0.000000 
-0.148377 -2.777826 0.000000 
-0.018741 -2.918472 0.000000 
0.037325 -2.882771 0.000000 
-0.086141 -2.801643 0.000000 
0.095067 -2.920232 0.000000 
0.134764 -2.863735 0.000000 
0.027468 -2.813912 0.000000 
0.196527 -2.877041 0.000000 
0.229421 -2.803908 0.000000 
0.091279 -2.800182 0.000000 
0.287285 -2.784218 0.000000 
0.302494 -2.711613 0.000000 
0.193999 -2.744113 0.000000 
0.351596 -2.684263 0.000000 
0.349852 -2.628195 0.000000 
0.240065 -2.693810 0.000000 
0.389147 -2.583510 0.000000 
0.371123 -2.528298 0.000000 
0.297674 -2.607845 0.000000 
0.396083 -2.476914 0.000000 
0.361913 -2.433017 0.000000 
0.310102 -2.550848 0.000000 
0.373456 -2.378841 0.000000 
0.326028 -2.339368 0.000000 
0.305720 -2.446847 0.000000 
0.319791 -2.276929 0.000000 
0.260570 -2.247962 0.000000 
0.282279 -2.386468 0.000000 
0.232391 -2.189300 0.000000 
0.169492 -2.184180 0.000000 
0.218707 -2.290620 0.000000 
0.131236 -2.138335 0.000000 
0.076385 -2.149498 0.000000 
0.031793 -2.116056 0.000000 
-0.021676 -2.146415 0.000000 
0.165949 -2.251974 0.000000 
0.046679 -2.203966 0.000000 
-0.184743 -2.308954 0.000000 
-0.267898 -2.438769 0.000000 
-0.039770 -2.774096 0.000000 
0.236682 -2.648130 0.000000 
0.279740 -2.512785 0.000000 
0.117401 -2.749460 0.000000 
0.234292 -2.366355 0.000000 
-0.268911 -2.584107 0.000000 
-0.185016 -2.703927 0.000000 
-0.080516 -2.342482 0.000000 
0.015796 -2.315128 0.000000 
-0.141802 -2.345617 0.000000 
-0.170251 -2.403885 0.000000 
-0.215443 -2.442511 0.000000 
-0.205858 -2.502727 0.000000 
-0.129117 -2.439923 0.000000 
-0.219957 -2.558874 0.000000 
-0.148403 -2.494946 0.000000 
-0.175854 -2.601814 0.000000 
-0.076249 -2.405882 0.000000 
-0.157367 -2.656879 0.000000 
-0.126828 -2.575130 0.000000 
-0.075569 -2.600212 0.000000 
-0.113375 -2.524036 0.000000 
-0.052116 -2.507832 0.000000 
-0.032050 -2.559311 0.000000 
-0.034237 -2.444976 0.000000 
0.031732 -2.371429 0.000000 
0.062501 -2.259494 0.000000 
-0.090345 -2.656031 0.000000 
0.009646 -2.429043 0.000000 
0.052002 -2.477392 0.000000 
0.053986 -2.531165 0.000000 
0.098622 -2.449648 0.000000 
0.011400 -2.572733 0.000000 
0.028460 -2.627990 0.000000 
0.017859 -2.679531 0.000000 
0.078773 -2.704734 0.000000 
0.084044 -2.627478 0.000000 
0.119142 -2.663478 0.000000 
0.180975 -2.637181 0.000000 
0.099454 -2.572343 0.000000 
0.166165 -2.460380 0.000000 
0.088452 -2.392020 0.000000 
0.162681 -2.574375 0.000000 
0.191412 -2.404178 0.000000 
0.132219 -2.360335 0.000000 
0.122158 -2.283630 0.000000 
-0.041855 -2.695275 0.000000 
0.198741 -2.518907 0.000000 
CELLS 184 368 
1 0 
1 1 
1 2 
1 3 
1 4 
1 5 
1 6 
1 7 
1 8 
1 9 
1 10 
1 11 
1 12 
1 13 
1 14 
1 15 
1 16 
1 17 
1 18 
1 19 
1 20 
1 21 
1 22 
1 23 
1 24 
1 25 
1 26 
1 27 
1 28 
1 29 
1 30 
1 31 
1 32 
1 33 
1 34 
1 35 
1 36 
1 37 
1 38 
1 39 
1 40 
1 41 
1 42 
1 43 
1 44 
1 45 
1 46 
1 47 
1 48 
1 49 
1 50 
1 51 
1 52 
1 53 
1 54 
1 55 
1 56 
1 57 
1 58 
1 59 
1 60 
1 61 
1 62 
1 63 
1 64 
1 65 
1 66 
1 67 
1 68 
1 69 
1 70 
1 71 
1 72 
1 73 
1 74 
1 75 
1 76 
1 77 
1 78 
1 79 
1 80 
1 81 
1 82 
1 83 
1 84 
1 85 
1 86 
1 87 
1 88 
1 89 
1 90 
1 91 
1 92 
1 93 
1 94 
1 95 
1 96 
1 97 
1 98 
1 99 
1 100 
1 101 
1 102 
1 103 
1 104 
1 105 
1 106 
1 107 
1 108 
1 109 
1 110 
1 111 
1 112 
1 113 
1 114 
1 115 
1 116 
1 117 
1 118 
1 119 
1 120 
1 121 
1 122 
1 123 
1 124 
1 125 
1 126 
1 127 
1 128 
1 129 
1 130 
1 131 
1 132 
1 133 
1 134 
1 135 
1 136 
1 137 
1 138 
1 139 
1 140 
1 141 
1 142 
1 143 
1 144 
1 145 
1 146 
1 147 
1 148 
1 149 
1 150 
1 151 
1 152 
1 153 
1 154 
1 155 
1 156 
1 157 
1 158 
1 159 
1 160 
1 161 
1 162 
1 163 
1 164 
1 165 
1 166 
1 167 
1 168 
1 169 
1 170 
1 171 
1 172 
1 173 
1 174 
1 175 
1 176 
1 177 
1 178 
1 179 
1 180 
1 181 
1 182 
1 183 
CELL_TYPES 184 
1 
1 
1 
1 
1 
1 
1 
1 
1 
1 
1 
1 
1 
1 
1 
1 
1 
1 
1 
1 
1 
1 
1 
1 
1 
1 
1 
1 
1 
1 
1 
1 
1 
1 
1 
1 
1 
1 
1 
1 
1 
1 
1 
1 
1 
1 
1 
1 
1 
1 
1 
1 
1 
1 
1 
1 
1 
1 
1 
1 
1 
1 
1 
1 
1 
1 
1 
1 
1 
1 
1 
1 
1 
1 
1 
1 
1 
1 
1 
1 
1 
1 
1 
1 
1 
1 
1 
1 
1 
1 
1 
1 
1 
1 
1 
1 
1 
1 
1 
1 
1 
1 
1 
1 
1 
1 
1 
1 
1 
1 
1 
1 
1 
1 
1 
1 
1 
1 
1 
1 
1 
1 
1 
1 
1 
1 
1 
1 
1 
1 
1 
1 
1 
1 
1 
1 
1 
1 
1 
1 
1 
1 
1 
1 
1 
1 
1 
1 
1 
1 
1 
1 
1 
1 
1 
1 
1 
1 
1 
1 
1 
1 
1 
1 
1 
1 
1 
1 
1 
1 
1 
1 
1 
1 
1 
1 
1 
1 
1 
1 
1 
1 
1 
1 
POINT_DATA 184 
VECTORS X_GC float 
-0.029910 -2.040364 0.000000 
-0.360474 -2.907957 0.000000 
0.473763 -2.536772 0.000000 
-0.447701 -2.348606 0.000000 
0.181978 -3.094938 0.000000 
0.220813 -2.091095 0.000000 
-0.285458 -2.133061 0.000000 
-0.112385 -3.134273 0.000000 
0.418303 -2.287985 0.000000 
-0.464166 -2.612860 0.000000 
0.391773 -2.825306 0.000000 
-0.167277 -2.064914 0.000000 
-0.235616 -3.035061 0.000000 
0.465872 -2.409061 0.000000 
-0.474267 -2.482802 0.000000 
0.292430 -2.963645 0.000000 
0.098921 -2.048822 0.000000 
-0.377372 -2.226004 0.000000 
0.051479 -3.157821 0.000000 
0.336416 -2.171826 0.000000 
-0.425195 -2.736122 0.000000 
0.445731 -2.669777 0.000000 
-0.122234 -2.051786 0.000000 
-0.313136 -2.953043 0.000000 
0.473983 -2.489985 0.000000 
-0.461616 -2.394009 0.000000 
0.255194 -3.017357 0.000000 
0.176507 -2.071941 0.000000 
-0.346935 -2.189289 0.000000 
-0.059255 -3.143552 0.000000 
0.367003 -2.208538 0.000000 
-0.451945 -2.655678 0.000000 
0.427829 -2.718256 0.000000 
-0.209707 -2.085700 0.000000 
-0.159654 -3.104866 0.000000 
0.438772 -2.331268 0.000000 
-0.473807 -2.528865 0.000000 
0.337021 -2.933376 0.000000 
0.017561 -2.040987 0.000000 
-0.427660 -2.305365 0.000000 
0.103108 -3.144262 0.000000 
0.300646 -2.140417 0.000000 
-0.389706 -2.845954 0.000000 
0.458287 -2.626285 0.000000 
-0.080621 -2.070862 0.000000 
0.368212 -2.255203 0.000000 
0.046997 -2.067987 0.000000 
0.212845 -2.981410 0.000000 
-0.171316 -3.005246 0.000000 
-0.377314 -2.775228 0.000000 
0.390707 -2.733044 0.000000 
-0.306169 -2.185336 0.000000 
-0.387222 -2.285858 0.000000 
0.426069 -2.371450 0.000000 
0.137621 -2.086405 0.000000 
0.121769 -3.035975 0.000000 
-0.263101 -2.924950 0.000000 
-0.417029 -2.673882 0.000000 
0.440508 -2.584747 0.000000 
0.335370 -2.845644 0.000000 
-0.010763 -3.029235 0.000000 
-0.226905 -2.124446 0.000000 
-0.445041 -2.433802 0.000000 
-0.445797 -2.563466 0.000000 
0.254393 -2.140118 0.000000 
0.446641 -2.460602 0.000000 
-0.080846 -2.128175 0.000000 
-0.131611 -2.171465 0.000000 
-0.192830 -2.166258 0.000000 
-0.112468 -2.230950 0.000000 
-0.224586 -2.221766 0.000000 
-0.171646 -2.259293 0.000000 
-0.056145 -2.245270 0.000000 
-0.279427 -2.232351 0.000000 
-0.040304 -2.300759 0.000000 
-0.016011 -2.204262 0.000000 
-0.296882 -2.292529 0.000000 
-0.349616 -2.322620 0.000000 
-0.351625 -2.389190 0.000000 
-0.255040 -2.331748 0.000000 
-0.392496 -2.436147 0.000000 
-0.371102 -2.494716 0.000000 
-0.284946 -2.390082 0.000000 
-0.396104 -2.550084 0.000000 
-0.362143 -2.592901 0.000000 
-0.314459 -2.495289 0.000000 
-0.372442 -2.646609 0.000000 
-0.327047 -2.675452 0.000000 
-0.309607 -2.554481 0.000000 
-0.322537 -2.739707 0.000000 
-0.264567 -2.766102 0.000000 
-0.276176 -2.651241 0.000000 
-0.240076 -2.838647 0.000000 
-0.176036 -2.841266 0.000000 
-0.237313 -2.698116 0.000000 
-0.137296 -2.904841 0.000000 
-0.075150 -2.879791 0.000000 
-0.148377 -2.777826 0.000000 
-0.018741 -2.918472 0.000000 
0.037325 -2.882771 0.000000 
-0.086141 -2.801643 0.000000 
0.095067 -2.920232 0.000000 
0.134764 -2.863735 0.000000 
0.027468 -2.813912 0.000000 
0.196527 -2.877041 0.000000 
0.229421 -2.803908 0.000000 
0.091279 -2.800182 0.000000 
0.287285 -2.784218 0.000000 
0.302494 -2.711613 0.000000 
0.193999 -2.744113 0.000000 
0.351596 -2.684263 0.000000 
0.349852 -2.628195 0.000000 
0.240065 -2.693810 0.000000 
0.389147 -2.583510 0.000000 
0.371123 -2.528298 0.000000 
0.297674 -2.607845 0.000000 
0.396083 -2.476914 0.000000 
0.361913 -2.433017 0.000000 
0.310102 -2.550848 0.000000 
0.373456 -2.378841 0.000000 
0.326028 -2.339368 0.000000 
0.305720 -2.446847 0.000000 
0.319791 -2.276929 0.000000 
0.260570 -2.247962 0.000000 
0.282279 -2.386468 0.000000 
0.232391 -2.189300 0.000000 
0.169492 -2.184180 0.000000 
0.218707 -2.290620 0.000000 
0.131236 -2.138335 0.000000 
0.076385 -2.149498 0.000000 
0.031793 -2.116056 0.000000 
-0.021676 -2.146415 0.000000 
0.165949 -2.251974 0.000000 
0.046679 -2.203966 0.000000 
-0.184743 -2.308954 0.000000 
-0.267898 -2.438769 0.000000 
-0.039770 -2.774096 0.000000 
0.236682 -2.648130 0.000000 
0.279740 -2.512785 0.000000 
0.117401 -2.749460 0.000000 
0.234292 -2.366355 0.000000 
-0.268911 -2.584107 0.000000 
-0.185016 -2.703927 0.000000 
-0.080516 -2.342482 0.000000 
0.015796 -2.315128 0.000000 
-0.141802 -2.345617 0.000000 
-0.170251 -2.403885 0.000000 
-0.215443 -2.442511 0.000000 
-0.205858 -2.502727 0.000000 
-0.129117 -2.439923 0.000000 
-0.219957 -2.558874 0.000000 
-0.148403 -2.494946 0.000000 
-0.175854 -2.601814 0.000000 
-0.076249 -2.405882 0.000000 
-0.157367 -2.656879 0.000000 
-0.126828 -2.575130 0.000000 
-0.075569 -2.600212 0.000000 
-0.113375 -2.524036 0.000000 
-0.052116 -2.507832 0.000000 
-0.032050 -2.559311 0.000000 
-0.034237 -2.444976 0.000000 
0.031732 -2.371429 0.000000 
0.062501 -2.259494 0.000000 
-0.090345 -2.656031 0.000000 
0.009646 -2.429043 0.000000 
0.052002 -2.477392 0.000000 
0.053986 -2.531165 0.000000 
0.098622 -2.449648 0.000000 
0.011400 -2.572733 0.000000 
0.028460 -2.627990 0.000000 
0.017859 -2.679531 0.000000 
0.078773 -2.704734 0.000000 
0.084044 -2.627478 0.000000 
0.119142 -2.663478 0.000000 
0.180975 -2.637181 0.000000 
0.099454 -2.572343 0.000000 
0.166165 -2.460380 0.000000 
0.088452 -2.392020 0.000000 
0.162681 -2.574375 0.000000 
0.191412 -2.404178 0.000000 
0.132219 -2.360335 0.000000 
0.122158 -2.283630 0.000000 
-0.041855 -2.695275 0.000000 
0.198741 -2.518907 0.000000 
VECTORS X_EC float 
-0.800602 0.602426 0.000000 
-0.596838 0.386379 0.000000 
-0.158423 -0.088187 0.000000 
-0.015324 0.657373 0.000000 
-0.248183 0.946404 0.000000 
-0.472087 0.940633 0.000000 
0.903052 -0.779595 0.000000 
-0.208874 0.964511 0.000000 
0.211313 0.253235 0.000000 
0.094441 0.419064 0.000000 
0.388182 -0.164627 0.000000 
0.115182 0.766091 0.000000 
0.626334 0.986501 0.000000 
-0.105810 -0.939594 0.000000 
0.161780 -0.447984 0.000000 
-0.949531 0.757631 0.000000 
0.340525 0.658816 0.000000 
-0.484188 -0.159974 0.000000 
0.674495 0.937567 0.000000 
0.757223 -0.521157 0.000000 
-0.165366 -0.759190 0.000000 
0.028457 0.798515 0.000000 
-0.185110 0.678572 0.000000 
-0.912428 0.686954 0.000000 
-0.159885 -0.400101 0.000000 
0.077439 0.960063 0.000000 
-0.678778 0.992812 0.000000 
-0.176716 0.812942 0.000000 
-0.687103 -0.404739 0.000000 
-0.572427 0.921027 0.000000 
0.553315 -0.276416 0.000000 
0.012964 0.704521 0.000000 
0.147806 -0.878293 0.000000 
0.398048 0.904668 0.000000 
0.119212 0.951185 0.000000 
0.074851 0.541786 0.000000 
0.158711 -0.140899 0.000000 
0.753191 0.555840 0.000000 
0.882929 0.606579 0.000000 
-0.148936 0.369100 0.000000 
0.304228 0.957028 0.000000 
0.995692 -0.730555 0.000000 
-0.401957 -0.026971 0.000000 
-0.055245 0.508570 0.000000 
-0.462528 0.805743 0.000000 
0.545252 0.034689 0.000000 
0.686685 0.786579 0.000000 
-0.418964 0.876064 0.000000 
0.144528 0.997078 0.000000 
-0.484574 -0.498478 0.000000 
0.395283 -0.779706 0.000000 
-0.958874 -0.431094 0.000000 
-0.418523 0.239054 0.000000 
0.159538 0.809664 0.000000 
0.082529 0.909366 0.000000 
0.184510 0.990440 0.000000 
0.754004 0.499669 0.000000 
-0.219806 0.825881 0.000000 
0.063282 0.231645 0.000000 
0.764201 -0.029040 0.000000 
-0.895255 0.999530 0.000000 
0.512699 -0.837023 0.000000 
-0.033058 -0.774655 0.000000 
-0.028020 0.089775 0.000000 
-0.695951 -0.732546 0.000000 
0.022394 -0.595987 0.000000 
-0.461030 -0.812167 0.000000 
-0.122593 -0.523565 0.000000 
0.285536 -0.558282 0.000000 
-0.250211 -0.127003 0.000000 
0.497242 -0.188223 0.000000 
0.144307 0.061955 0.000000 
-0.625702 -0.031534 0.000000 
0.862844 -0.117659 0.000000 
-0.731304 0.338396 0.000000 
-0.893257 -0.304922 0.000000 
0.979212 0.283529 0.000000 
-0.669230 0.484135 0.000000 
-0.655836 0.927932 0.000000 
0.700269 0.544986 0.000000 
-0.383362 -0.759019 0.000000 
-0.525990 -0.368558 0.000000 
0.899639 0.933882 0.000000 
-0.359305 0.000563 0.000000 
-0.585711 0.286009 0.000000 
-0.903605 -0.364742 0.000000 
-0.517051 0.644060 0.000000 
-0.819689 0.836344 0.000000 
-0.935957 0.029873 0.000000 
-0.849750 -0.735289 0.000000 
0.763777 -0.559323 0.000000 
0.841171 0.674942 0.000000 
0.600505 -0.075684 0.000000 
0.173576 -0.058223 0.000000 
0.582085 0.987442 0.000000 
-0.084696 0.365609 0.000000 
-0.499000 0.198606 0.000000 
-0.010823 -0.481158 0.000000 
-0.875063 0.456483 0.000000 
0.751167 0.218472 0.000000 
-0.425725 -0.322379 0.000000 
0.366221 0.468216 0.000000 
0.101573 0.091565 0.000000 
0.816880 -0.240588 0.000000 
-0.310179 0.180271 0.000000 
-0.529476 -0.307282 0.000000 
0.391472 -0.332117 0.000000 
-0.915233 -0.438544 0.000000 
0.983375 -0.922577 0.000000 
-0.293324 -0.705913 0.000000 
0.656025 0.895087 0.000000 
0.667650 0.521298 0.000000 
-0.600437 0.958735 0.000000 
0.405684 0.223400 0.000000 
0.525847 -0.144681 0.000000 
-0.984492 0.385633 0.000000 
0.359449 -0.487243 0.000000 
0.587243 -0.779889 0.000000 
0.932650 0.005653 0.000000 
0.510293 0.858940 0.000000 
0.826479 0.595786 0.000000 
0.961864 -0.687687 0.000000 
0.868058 0.179523 0.000000 
-0.737134 -0.013589 0.000000 
-0.881863 0.909784 0.000000 
-0.549272 -0.404668 0.000000 
-0.129947 -0.438800 0.000000 
-0.458045 0.270800 0.000000 
0.125093 -0.744432 0.000000 
0.490765 -0.670016 0.000000 
0.788047 -0.892960 0.000000 
-0.855497 -0.690568 0.000000 
-0.106327 0.013157 0.000000 
0.688809 -0.306894 0.000000 
0.231622 0.393027 0.000000 
0.785984 -0.741540 0.000000 
-0.734864 -0.506025 0.000000 
-0.577882 0.654198 0.000000 
-0.864935 -0.248100 0.000000 
0.217325 -0.670264 0.000000 
-0.561947 0.775700 0.000000 
0.792740 0.227378 0.000000 
0.233437 -0.973822 0.000000 
-0.463225 0.616548 0.000000 
0.894692 0.434190 0.000000 
-0.054657 0.637449 0.000000 
0.135006 -0.974099 0.000000 
0.436289 -0.716594 0.000000 
0.372389 -0.315152 0.000000 
-0.139217 -0.733850 0.000000 
0.466382 0.059162 0.000000 
-0.010647 -0.367028 0.000000 
0.172361 0.345430 0.000000 
-0.491676 -0.960786 0.000000 
0.049113 0.712525 0.000000 
-0.154481 0.167531 0.000000 
-0.496210 0.334745 0.000000 
-0.244163 -0.173091 0.000000 
-0.652558 -0.281122 0.000000 
-0.786331 0.062071 0.000000 
-0.771752 -0.700160 0.000000 
0.788454 0.809527 0.000000 
0.583328 0.063296 0.000000 
-0.397702 0.706874 0.000000 
0.935697 -0.806382 0.000000 
0.653322 -0.484055 0.000000 
0.640092 -0.125563 0.000000 
0.342523 -0.669010 0.000000 
0.924001 0.151554 0.000000 
0.810267 0.519933 0.000000 
0.880939 0.863541 0.000000 
0.474845 -0.968442 0.000000 
0.439704 0.516521 0.000000 
0.205721 0.756522 0.000000 
-0.206500 0.581208 0.000000 
0.336974 0.148953 0.000000 
-0.107768 -0.597467 0.000000 
0.410318 0.946803 0.000000 
-0.084537 0.162497 0.000000 
-0.276082 -0.972147 0.000000 
0.118539 0.735568 0.000000 
0.185615 0.224203 0.000000 
-0.720969 0.968500 0.000000 
-0.324938 -0.207288 0.000000 
CELL_DATA 184 
SCALARS MASS float 
LOOKUP_TABLE default 
0.051252 
0.046008 
0.051531 
0.046188 
0.052854 
0.051531 
0.052854 
0.052854 
0.051531 
0.050859 
0.052854 
0.047395 
0.052854 
0.052854 
0.051434 
0.045995 
0.052854 
0.051281 
0.051530 
0.046441 
0.052854 
0.052854 
0.050612 
0.049065 
0.052975 
0.049197 
0.049245 
0.052975 
0.052990 
0.055938 
0.049713 
0.052094 
0.055938 
0.050456 
0.055938 
0.053198 
0.052878 
0.049051 
0.052807 
0.049481 
0.052974 
0.049465 
0.049257 
0.055938 
0.105225 
0.104629 
0.082126 
0.094264 
0.094771 
0.094259 
0.094771 
0.083366 
0.104047 
0.083092 
0.081316 
0.081315 
0.092719 
0.079469 
0.108073 
0.092710 
0.108073 
0.093129 
0.104035 
0.094961 
0.104398 
0.081316 
0.125285 
0.099128 
0.098320 
0.087841 
0.082650 
0.097481 
0.086914 
0.081921 
0.086680 
0.086680 
0.081485 
0.107769 
0.088711 
0.084874 
0.107874 
0.082612 
0.095190 
0.095229 
0.083942 
0.085089 
0.079923 
0.081132 
0.095301 
0.097917 
0.090576 
0.085268 
0.095896 
0.081062 
0.095454 
0.090083 
0.081027 
0.085251 
0.101961 
0.083022 
0.095445 
0.080604 
0.081018 
0.085240 
0.097826 
0.090495 
0.095435 
0.095845 
0.081023 
0.085241 
0.090072 
0.081024 
0.095436 
0.101966 
0.083028 
0.085242 
0.080610 
0.081024 
0.095437 
0.082345 
0.082694 
0.085242 
0.109264 
0.089885 
0.095437 
0.108636 
0.083028 
0.085242 
0.080610 
0.074817 
0.073569 
0.082490 
0.095437 
0.095617 
0.133784 
0.138292 
0.139667 
0.139695 
0.139694 
0.139689 
0.139693 
0.140105 
0.139774 
0.086622 
0.086622 
0.089038 
0.077179 
0.079159 
0.072465 
0.084345 
0.092656 
0.093083 
0.084037 
0.098826 
0.101847 
0.085968 
0.086444 
0.074619 
0.064825 
0.094138 
0.124406 
0.086607 
0.131576 
0.102571 
0.084703 
0.076503 
0.084191 
0.084191 
0.086793 
0.075696 
0.084714 
0.090949 
0.084009 
0.076569 
0.086383 
0.098391 
0.110757 
0.093222 
0.143196 
0.101090 
0.091038 
0.150913 
0.178131 
0.206980 
SCALARS MASS float 
LOOKUP_TABLE default 
0.051252 
0.046008 
0.051531 
0.046188 
0.052854 
0.051531 
0.052854 
0.052854 
0.051531 
0.050859 
0.052854 
0.047395 
0.052854 
0.052854 
0.051434 
0.045995 
0.052854 
0.051281 
0.051530 
0.046441 
0.052854 
0.052854 
0.050612 
0.049065 
0.052975 
0.049197 
0.049245 
0.052975 
0.052990 
0.055938 
0.049713 
0.052094 
0.055938 
0.050456 
0.055938 
0.053198 
0.052878 
0.049051 
0.052807 
0.049481 
0.052974 
0.049465 
0.049257 
0.055938 
0.105225 
0.104629 
0.082126 
0.094264 
0.094771 
0.094259 
0.094771 
0.083366 
0.104047 
0.083092 
0.081316 
0.081315 
0.092719 
0.079469 
0.108073 
0.092710 
0.108073 
0.093129 
0.104035 
0.094961 
0.104398 
0.081316 
0.125285 
0.099128 
0.098320 
0.087841 
0.082650 
0.097481 
0.086914 
0.081921 
0.086680 
0.086680 
0.081485 
0.107769 
0.088711 
0.084874 
0.107874 
0.082612 
0.095190 
0.095229 
0.083942 
0.085089 
0.079923 
0.081132 
0.095301 
0.097917 
0.090576 
0.085268 
0.095896 
0.081062 
0.095454 
0.090083 
0.081027 
0.085251 
0.101961 
0.083022 
0.095445 
0.080604 
0.081018 
0.085240 
0.097826 
0.090495 
0.095435 
0.095845 
0.081023 
0.085241 
0.090072 
0.081024 
0.095436 
0.101966 
0.083028 
0.085242 
0.080610 
0.081024 
0.095437 
0.082345 
0.082694 
0.085242 
0.109264 
0.089885 
0.095437 
0.108636 
0.083028 
0.085242 
0.080610 
0.074817 
0.073569 
0.082490 
0.095437 
0.095617 
0.133784 
0.138292 
0.139667 
0.139695 
0.139694 
0.139689 
0.139693 
0.140105 
0.139774 
0.086622 
0.086622 
0.089038 
0.077179 
0.079159 
0.072465 
0.084345 
0.092656 
0.093083 
0.084037 
0.098826 
0.101847 
0.085968 
0.086444 
0.074619 
0.064825 
0.094138 
0.124406 
0.086607 
0.131576 
0.102571 
0.084703 
0.076503 
0.084191 
0.084191 
0.086793 
0.075696 
0.084714 
0.090949 
0.084009 
0.076569 
0.086383 
0.098391 
0.110757 
0.093222 
0.143196 
0.101090 
0.091038 
0.150913 
0.178131 
0.206980 
SCALARS DENSITY float 
LOOKUP_TABLE default 
20.183246 
16426697164620.789062 
34.219169 
27.611704 
18396374111252338452039953924465843459063808.000000 
17.830773 
17.972141 
6208121852328632449485304872343370001809408.000000 
23.876275 
52.030471 
528169491.181362 
23.130909 
368403344405240149055965161848832.000000 
21.959629 
44.675193 
1549551845598385957502976.000000 
22.358065 
21.923701 
1052725083454136478452931665986161339987758111264866304.000000 
14.682654 
20027.599663 
36.806085 
22.048647 
1071454242633167616.000000 
38.029246 
75.019775 
39723490721111999715869150150656.000000 
24.129762 
15.049014 
2344525706793998960700491705823039533200890134528.000000 
15.753759 
48.892315 
3250.225745 
24.320772 
583296778700569841469206528116316438528.000000 
25.139519 
57.146793 
19195531743790260.000000 
20.924774 
26.346896 
84509409818074461694168818695962103552893068154077446144.000000 
56.620014 
6848798105.944803 
37.370973 
21.045744 
23.356689 
20.793908 
16384832871962129221621383168.000000 
84481804815425777250494054400.000000 
1896873.309747 
11408.904640 
16.567531 
27.327447 
26.555941 
22.908663 
1478706985791242909150486428398601109504.000000 
61095750499857759993856.000000 
38.383238 
26.274314 
1291546495072.943848 
44606095476322158689132205129731145728000.000000 
14.338202 
9.812645 
32.490858 
17.941791 
18.258527 
14.447601 
19.350077 
18.969178 
25.349715 
23.736745 
26.700177 
25.013527 
26.401931 
20.894497 
23.122653 
27.980752 
28.140219 
29.401309 
27.567979 
16.359386 
43.815903 
27.390808 
22.930582 
27.204188 
33.864404 
31.635497 
22.829506 
11.458857 
11332.242866 
12106168.372484 
21.783458 
66491259208659.343750 
1718261256511557.500000 
86.050521 
53901892182472146944.000000 
494106343826802176.000000 
269926824.102634 
81331638127138319630336.000000 
89929580422781288448.000000 
37078336366.070679 
6000310205668722447745024.000000 
121394340729586976.000000 
864485247576.051270 
18729113163676372992.000000 
277207071910.501038 
63069143565.355057 
870747499.502434 
534.156548 
570593.535626 
26.167929 
27.473385 
51.247482 
21.438766 
23.818700 
22.597121 
31.220532 
15.454598 
11.810425 
25.992641 
24.917376 
30.926262 
24.956071 
26.421837 
25.769610 
19.272556 
19.146326 
24.145830 
16.119308 
18.522242 
15.639546 
17.414292 
25.195118 
22.676810 
24.793268 
25.935464 
765494014.016592 
22.946386 
18.703172 
5616971.212795 
25.973416 
20.520193 
147.906201 
26.063186 
22.701313 
26.646359 
21.569726 
24.248343 
16.485501 
20.440784 
17.432286 
13.325748 
34.283526 
20.849368 
20.951883 
35.246665 
51.579516 
17.542787 
12.648125 
45.207953 
13.032205 
25.610854 
23.817950 
20.886478 
23.591467 
7.063295 
24.767731 
16.126194 
65.474719 
35.873142 
19.212215 
258.109016 
32.952770 
20.826419 
25.397955 
40.401082 
14.597907 
33.020129 
28.555061 
22.502229 
25.871610 
22.583365 
49.283508 
17.940432 
SCALARS ELEM_i float 
LOOKUP_TABLE default 
203 
220 
161 
222 
180 
183 
202 
200 
162 
221 
160 
203 
200 
161 
221 
180 
183 
222 
180 
162 
220 
161 
203 
220 
161 
222 
180 
183 
222 
200 
162 
221 
160 
203 
200 
162 
221 
160 
183 
222 
180 
162 
220 
161 
203 
162 
183 
180 
200 
220 
160 
222 
222 
162 
183 
180 
200 
221 
161 
160 
200 
202 
221 
221 
182 
161 
202 
202 
202 
202 
202 
202 
202 
202 
202 
202 
202 
222 
222 
202 
221 
221 
202 
221 
221 
221 
221 
221 
221 
220 
200 
201 
200 
200 
201 
200 
200 
200 
200 
180 
200 
180 
180 
180 
180 
180 
180 
180 
160 
180 
161 
161 
181 
161 
161 
181 
161 
161 
161 
162 
162 
161 
162 
182 
182 
182 
182 
182 
182 
182 
182 
202 
182 
182 
202 
201 
200 
181 
181 
180 
182 
201 
200 
202 
182 
202 
201 
201 
201 
201 
201 
201 
201 
201 
201 
201 
201 
201 
201 
201 
201 
182 
182 
201 
181 
181 
181 
181 
181 
181 
181 
180 
181 
181 
181 
181 
181 
182 
181 
181 
182 
182 
201 
181 
VECTORS VELOCITY float 
0.548891 -0.412313 0.000000 
-2.509644 -51.037048 0.000000 
-0.677241 1.188697 0.000000 
0.130954 -0.373645 0.000000 
1.520753 -143.817776 0.000000 
-0.054149 1.342582 0.000000 
-0.578750 1.459127 0.000000 
-2.273161 -167.267695 0.000000 
-0.139651 0.246597 0.000000 
0.224959 2.713548 0.000000 
0.593764 -23.424536 0.000000 
0.583944 1.423442 0.000000 
0.755900 -109.096852 0.000000 
0.488527 -0.130018 0.000000 
-0.226777 1.151241 0.000000 
-1.096800 -71.820991 0.000000 
-0.072636 0.637347 0.000000 
0.513509 0.523842 0.000000 
1.773319 -183.177954 0.000000 
0.401963 1.823223 0.000000 
-0.000328 -1.010050 0.000000 
-0.638520 3.090490 0.000000 
0.536694 1.163082 0.000000 
-0.291537 -68.500379 0.000000 
-0.367223 0.959151 0.000000 
-0.355008 -0.694135 0.000000 
-0.654568 -99.358137 0.000000 
-0.758096 1.110681 0.000000 
0.086610 1.046096 0.000000 
-1.696325 -173.372938 0.000000 
0.049714 1.252827 0.000000 
0.160307 3.626620 0.000000 
-0.746810 -0.113707 0.000000 
0.585283 1.078502 0.000000 
-1.684569 -149.324762 0.000000 
-0.022368 -0.108005 0.000000 
0.302160 1.431671 0.000000 
1.985513 -61.466891 0.000000 
0.517144 -0.768960 0.000000 
0.458114 -0.153839 0.000000 
2.565443 -173.789216 0.000000 
0.574724 2.151844 0.000000 
-1.634387 -28.464562 0.000000 
-0.660745 2.217264 0.000000 
0.244007 0.301560 0.000000 
-0.021205 0.392040 0.000000 
0.059395 -0.188971 0.000000 
-0.677755 -77.729116 0.000000 
0.536548 -89.269885 0.000000 
-0.269088 -6.229212 0.000000 
-0.449342 -0.142355 0.000000 
-0.521235 0.939759 0.000000 
0.339163 -0.178105 0.000000 
0.121579 -0.754932 0.000000 
-0.555462 0.485819 0.000000 
0.535879 -106.785283 0.000000 
1.489114 -52.075003 0.000000 
0.071638 4.969781 0.000000 
-0.444362 2.069032 0.000000 
0.872253 -24.662196 0.000000 
-0.039319 -100.983694 0.000000 
-0.461720 1.038281 0.000000 
-0.980411 0.440169 0.000000 
0.214065 2.034709 0.000000 
0.241868 1.531530 0.000000 
0.248020 0.653981 0.000000 
-0.238381 -0.218183 0.000000 
-0.312353 -0.099272 0.000000 
-0.414615 0.388343 0.000000 
-0.168305 -0.506406 0.000000 
-0.239989 -0.053364 0.000000 
-0.140591 -0.484237 0.000000 
-0.136955 -0.628161 0.000000 
-0.224781 -0.012207 0.000000 
-0.103959 -0.373708 0.000000 
-0.148571 -0.928215 0.000000 
-0.119286 -0.799689 0.000000 
-0.018158 -0.790385 0.000000 
-0.061152 -1.653937 0.000000 
-0.065463 -1.196592 0.000000 
-0.558961 -0.518659 0.000000 
-0.030254 -0.146208 0.000000 
0.125180 -2.167602 0.000000 
0.069632 1.714279 0.000000 
0.021424 3.322481 0.000000 
-0.033793 -0.870827 0.000000 
0.086621 5.222573 0.000000 
-0.002947 7.803859 0.000000 
-0.196004 1.889715 0.000000 
-0.001883 4.638736 0.000000 
0.094394 2.312299 0.000000 
0.122342 7.189111 0.000000 
0.560283 -16.596029 0.000000 
0.379693 -15.841949 0.000000 
-0.035085 9.370675 0.000000 
0.658203 -37.893948 0.000000 
0.214777 -25.449986 0.000000 
-0.032055 0.609619 0.000000 
0.028074 -38.281037 0.000000 
-0.228455 -24.717796 0.000000 
-0.061762 -3.648794 0.000000 
-0.363094 -42.406356 0.000000 
-0.331488 -21.891370 0.000000 
-0.190759 -5.245838 0.000000 
-0.479494 -28.891871 0.000000 
0.163020 -5.890955 0.000000 
-0.062473 -3.306901 0.000000 
0.479192 -1.327403 0.000000 
0.567548 9.368381 0.000000 
0.358419 6.505451 0.000000 
0.113849 7.616309 0.000000 
0.081596 5.115484 0.000000 
0.423592 10.222835 0.000000 
-0.082514 2.694256 0.000000 
0.025065 0.850092 0.000000 
0.399804 5.344165 0.000000 
0.042739 -0.124935 0.000000 
0.429654 -1.227248 0.000000 
0.468613 1.949281 0.000000 
0.182788 -1.438184 0.000000 
0.228690 -1.264143 0.000000 
0.102532 -2.250398 0.000000 
0.172139 -0.319357 0.000000 
0.130555 -0.143927 0.000000 
0.169679 -2.296529 0.000000 
0.224673 0.601498 0.000000 
0.137205 0.218702 0.000000 
0.122150 -0.663274 0.000000 
0.054319 0.373449 0.000000 
-0.001916 -0.249825 0.000000 
-0.099279 -0.723846 0.000000 
-0.158790 -0.796866 0.000000 
0.033750 -0.378617 0.000000 
-0.073656 -0.723051 0.000000 
-0.109624 -0.757917 0.000000 
0.188069 -2.149717 0.000000 
-0.209332 2.028275 0.000000 
0.249130 7.482581 0.000000 
0.327424 -0.062516 0.000000 
0.116000 5.779961 0.000000 
0.138395 -1.701705 0.000000 
-0.076544 3.360008 0.000000 
-0.098458 9.167376 0.000000 
-0.085314 -0.617331 0.000000 