# vtk DataFile Version 3.0 
vtk output 
ASCII 
DATASET UNSTRUCTURED_GRID 
POINTS 184 float 
-0.029413 -2.039864 0.000000 
-0.357086 -2.871081 0.000000 
0.477050 -2.536255 0.000000 
-0.447832 -2.344332 0.000000 
0.185772 -3.052110 0.000000 
0.223018 -2.091499 0.000000 
-0.285054 -2.129675 0.000000 
-0.119924 -3.093940 0.000000 
0.417542 -2.290089 0.000000 
-0.467235 -2.613346 0.000000 
0.389980 -2.796966 0.000000 
-0.168196 -2.065421 0.000000 
-0.246588 -2.986097 0.000000 
0.470635 -2.404204 0.000000 
-0.477042 -2.478241 0.000000 
0.298859 -2.921885 0.000000 
0.101385 -2.050057 0.000000 
-0.374540 -2.226141 0.000000 
0.049280 -3.122943 0.000000 
0.335249 -2.174503 0.000000 
-0.423367 -2.729925 0.000000 
0.446953 -2.673306 0.000000 
-0.122572 -2.052847 0.000000 
-0.319467 -2.909478 0.000000 
0.477873 -2.487866 0.000000 
-0.463931 -2.386654 0.000000 
0.261720 -2.970253 0.000000 
0.180271 -2.072977 0.000000 
-0.344638 -2.188687 0.000000 
-0.065196 -3.107604 0.000000 
0.365065 -2.212269 0.000000 
-0.454802 -2.657511 0.000000 
0.427669 -2.714934 0.000000 
-0.211151 -2.084109 0.000000 
-0.168444 -3.061629 0.000000 
0.439806 -2.330885 0.000000 
-0.476771 -2.526150 0.000000 
0.339453 -2.889370 0.000000 
0.018513 -2.040032 0.000000 
-0.426089 -2.303583 0.000000 
0.103311 -3.105876 0.000000 
0.301441 -2.140381 0.000000 
-0.383534 -2.819576 0.000000 
0.460213 -2.628607 0.000000 
-0.080150 -2.070395 0.000000 
0.367526 -2.256788 0.000000 
0.048789 -2.067506 0.000000 
0.216722 -2.940737 0.000000 
-0.180058 -2.961756 0.000000 
-0.374935 -2.761257 0.000000 
0.390314 -2.726227 0.000000 
-0.305924 -2.182011 0.000000 
-0.385815 -2.284117 0.000000 
0.429043 -2.367888 0.000000 
0.140675 -2.086112 0.000000 
0.122777 -2.995879 0.000000 
-0.270791 -2.888092 0.000000 
-0.418936 -2.675381 0.000000 
0.442735 -2.585410 0.000000 
0.336783 -2.818375 0.000000 
-0.015630 -2.994962 0.000000 
-0.226236 -2.121235 0.000000 
-0.447402 -2.427650 0.000000 
-0.448394 -2.561863 0.000000 
0.255646 -2.139315 0.000000 
0.450463 -2.457359 0.000000 
-0.079627 -2.125326 0.000000 
-0.130886 -2.168256 0.000000 
-0.192322 -2.162934 0.000000 
-0.112045 -2.227474 0.000000 
-0.224593 -2.218113 0.000000 
-0.171672 -2.255550 0.000000 
-0.055565 -2.241848 0.000000 
-0.279750 -2.228555 0.000000 
-0.040005 -2.297085 0.000000 
-0.014994 -2.201161 0.000000 
-0.297750 -2.288423 0.000000 
-0.349923 -2.318958 0.000000 
-0.353404 -2.383778 0.000000 
-0.255982 -2.327494 0.000000 
-0.394504 -2.430701 0.000000 
-0.372704 -2.490824 0.000000 
-0.286498 -2.385472 0.000000 
-0.397852 -2.547630 0.000000 
-0.363067 -2.591095 0.000000 
-0.315388 -2.491497 0.000000 
-0.373277 -2.646199 0.000000 
-0.326463 -2.674412 0.000000 
-0.309878 -2.551418 0.000000 
-0.322447 -2.730947 0.000000 
-0.266061 -2.753376 0.000000 
-0.275430 -2.649214 0.000000 
-0.244214 -2.815735 0.000000 
-0.179777 -2.820213 0.000000 
-0.236351 -2.696030 0.000000 
-0.142489 -2.876701 0.000000 
-0.078903 -2.857577 0.000000 
-0.150092 -2.766276 0.000000 
-0.022441 -2.894204 0.000000 
0.035369 -2.862281 0.000000 
-0.088244 -2.788728 0.000000 
0.094499 -2.893074 0.000000 
0.135159 -2.842423 0.000000 
0.026019 -2.801626 0.000000 
0.198442 -2.851958 0.000000 
0.230835 -2.788483 0.000000 
0.090833 -2.788134 0.000000 
0.288959 -2.770656 0.000000 
0.302307 -2.709269 0.000000 
0.194192 -2.737851 0.000000 
0.351602 -2.686129 0.000000 
0.350451 -2.628624 0.000000 
0.239558 -2.694275 0.000000 
0.390725 -2.583395 0.000000 
0.373064 -2.526468 0.000000 
0.297931 -2.606920 0.000000 
0.398935 -2.473890 0.000000 
0.364699 -2.428676 0.000000 
0.310996 -2.548891 0.000000 
0.376189 -2.374554 0.000000 
0.327727 -2.336090 0.000000 
0.307527 -2.442635 0.000000 
0.320869 -2.275200 0.000000 
0.261970 -2.245597 0.000000 
0.284047 -2.381934 0.000000 
0.233694 -2.187643 0.000000 
0.170776 -2.182202 0.000000 
0.220032 -2.287485 0.000000 
0.132623 -2.136598 0.000000 
0.077781 -2.147261 0.000000 
0.033402 -2.113728 0.000000 
-0.020312 -2.143626 0.000000 
0.167139 -2.249176 0.000000 
0.047817 -2.201132 0.000000 
-0.185163 -2.304930 0.000000 
-0.269149 -2.434464 0.000000 
-0.041143 -2.765789 0.000000 
0.236560 -2.648276 0.000000 
0.280807 -2.510046 0.000000 
0.117204 -2.743405 0.000000 
0.235738 -2.362144 0.000000 
-0.268806 -2.581445 0.000000 
-0.184490 -2.701754 0.000000 
-0.080656 -2.338496 0.000000 
0.016239 -2.311438 0.000000 
-0.142252 -2.341481 0.000000 
-0.171304 -2.399572 0.000000 
-0.216456 -2.438523 0.000000 
-0.206396 -2.499601 0.000000 
-0.129767 -2.436361 0.000000 
-0.220092 -2.556366 0.000000 
-0.148860 -2.492118 0.000000 
-0.175730 -2.600308 0.000000 
-0.076720 -2.402020 0.000000 
-0.156976 -2.656373 0.000000 
-0.126887 -2.573724 0.000000 
-0.075589 -2.599754 0.000000 
-0.113632 -2.521932 0.000000 
-0.052291 -2.505938 0.000000 
-0.032147 -2.558551 0.000000 
-0.034408 -2.442041 0.000000 
0.031944 -2.367328 0.000000 
0.063405 -2.256290 0.000000 
-0.090187 -2.656364 0.000000 
0.009711 -2.425830 0.000000 
0.052231 -2.474978 0.000000 
0.054105 -2.529844 0.000000 
0.099182 -2.446444 0.000000 
0.011327 -2.572476 0.000000 
0.028341 -2.628764 0.000000 
0.017667 -2.681398 0.000000 
0.078490 -2.704657 0.000000 
0.083967 -2.627954 0.000000 
0.118942 -2.664495 0.000000 
0.180911 -2.637373 0.000000 
0.099584 -2.571633 0.000000 
0.167060 -2.457086 0.000000 
0.089011 -2.387676 0.000000 
0.162945 -2.573400 0.000000 
0.192796 -2.399626 0.000000 
0.133083 -2.356225 0.000000 
0.123160 -2.280348 0.000000 
-0.041845 -2.696126 0.000000 
0.199441 -2.516650 0.000000 
CELLS 184 368 
1 0 
1 1 
1 2 
1 3 
1 4 
1 5 
1 6 
1 7 
1 8 
1 9 
1 10 
1 11 
1 12 
1 13 
1 14 
1 15 
1 16 
1 17 
1 18 
1 19 
1 20 
1 21 
1 22 
1 23 
1 24 
1 25 
1 26 
1 27 
1 28 
1 29 
1 30 
1 31 
1 32 
1 33 
1 34 
1 35 
1 36 
1 37 
1 38 
1 39 
1 40 
1 41 
1 42 
1 43 
1 44 
1 45 
1 46 
1 47 
1 48 
1 49 
1 50 
1 51 
1 52 
1 53 
1 54 
1 55 
1 56 
1 57 
1 58 
1 59 
1 60 
1 61 
1 62 
1 63 
1 64 
1 65 
1 66 
1 67 
1 68 
1 69 
1 70 
1 71 
1 72 
1 73 
1 74 
1 75 
1 76 
1 77 
1 78 
1 79 
1 80 
1 81 
1 82 
1 83 
1 84 
1 85 
1 86 
1 87 
1 88 
1 89 
1 90 
1 91 
1 92 
1 93 
1 94 
1 95 
1 96 
1 97 
1 98 
1 99 
1 100 
1 101 
1 102 
1 103 
1 104 
1 105 
1 106 
1 107 
1 108 
1 109 
1 110 
1 111 
1 112 
1 113 
1 114 
1 115 
1 116 
1 117 
1 118 
1 119 
1 120 
1 121 
1 122 
1 123 
1 124 
1 125 
1 126 
1 127 
1 128 
1 129 
1 130 
1 131 
1 132 
1 133 
1 134 
1 135 
1 136 
1 137 
1 138 
1 139 
1 140 
1 141 
1 142 
1 143 
1 144 
1 145 
1 146 
1 147 
1 148 
1 149 
1 150 
1 151 
1 152 
1 153 
1 154 
1 155 
1 156 
1 157 
1 158 
1 159 
1 160 
1 161 
1 162 
1 163 
1 164 
1 165 
1 166 
1 167 
1 168 
1 169 
1 170 
1 171 
1 172 
1 173 
1 174 
1 175 
1 176 
1 177 
1 178 
1 179 
1 180 
1 181 
1 182 
1 183 
CELL_TYPES 184 
1 
1 
1 
1 
1 
1 
1 
1 
1 
1 
1 
1 
1 
1 
1 
1 
1 
1 
1 
1 
1 
1 
1 
1 
1 
1 
1 
1 
1 
1 
1 
1 
1 
1 
1 
1 
1 
1 
1 
1 
1 
1 
1 
1 
1 
1 
1 
1 
1 
1 
1 
1 
1 
1 
1 
1 
1 
1 
1 
1 
1 
1 
1 
1 
1 
1 
1 
1 
1 
1 
1 
1 
1 
1 
1 
1 
1 
1 
1 
1 
1 
1 
1 
1 
1 
1 
1 
1 
1 
1 
1 
1 
1 
1 
1 
1 
1 
1 
1 
1 
1 
1 
1 
1 
1 
1 
1 
1 
1 
1 
1 
1 
1 
1 
1 
1 
1 
1 
1 
1 
1 
1 
1 
1 
1 
1 
1 
1 
1 
1 
1 
1 
1 
1 
1 
1 
1 
1 
1 
1 
1 
1 
1 
1 
1 
1 
1 
1 
1 
1 
1 
1 
1 
1 
1 
1 
1 
1 
1 
1 
1 
1 
1 
1 
1 
1 
1 
1 
1 
1 
1 
1 
1 
1 
1 
1 
1 
1 
1 
1 
1 
1 
1 
1 
POINT_DATA 184 
VECTORS X_GC float 
-0.029413 -2.039864 0.000000 
-0.357086 -2.871081 0.000000 
0.477050 -2.536255 0.000000 
-0.447832 -2.344332 0.000000 
0.185772 -3.052110 0.000000 
0.223018 -2.091499 0.000000 
-0.285054 -2.129675 0.000000 
-0.119924 -3.093940 0.000000 
0.417542 -2.290089 0.000000 
-0.467235 -2.613346 0.000000 
0.389980 -2.796966 0.000000 
-0.168196 -2.065421 0.000000 
-0.246588 -2.986097 0.000000 
0.470635 -2.404204 0.000000 
-0.477042 -2.478241 0.000000 
0.298859 -2.921885 0.000000 
0.101385 -2.050057 0.000000 
-0.374540 -2.226141 0.000000 
0.049280 -3.122943 0.000000 
0.335249 -2.174503 0.000000 
-0.423367 -2.729925 0.000000 
0.446953 -2.673306 0.000000 
-0.122572 -2.052847 0.000000 
-0.319467 -2.909478 0.000000 
0.477873 -2.487866 0.000000 
-0.463931 -2.386654 0.000000 
0.261720 -2.970253 0.000000 
0.180271 -2.072977 0.000000 
-0.344638 -2.188687 0.000000 
-0.065196 -3.107604 0.000000 
0.365065 -2.212269 0.000000 
-0.454802 -2.657511 0.000000 
0.427669 -2.714934 0.000000 
-0.211151 -2.084109 0.000000 
-0.168444 -3.061629 0.000000 
0.439806 -2.330885 0.000000 
-0.476771 -2.526150 0.000000 
0.339453 -2.889370 0.000000 
0.018513 -2.040032 0.000000 
-0.426089 -2.303583 0.000000 
0.103311 -3.105876 0.000000 
0.301441 -2.140381 0.000000 
-0.383534 -2.819576 0.000000 
0.460213 -2.628607 0.000000 
-0.080150 -2.070395 0.000000 
0.367526 -2.256788 0.000000 
0.048789 -2.067506 0.000000 
0.216722 -2.940737 0.000000 
-0.180058 -2.961756 0.000000 
-0.374935 -2.761257 0.000000 
0.390314 -2.726227 0.000000 
-0.305924 -2.182011 0.000000 
-0.385815 -2.284117 0.000000 
0.429043 -2.367888 0.000000 
0.140675 -2.086112 0.000000 
0.122777 -2.995879 0.000000 
-0.270791 -2.888092 0.000000 
-0.418936 -2.675381 0.000000 
0.442735 -2.585410 0.000000 
0.336783 -2.818375 0.000000 
-0.015630 -2.994962 0.000000 
-0.226236 -2.121235 0.000000 
-0.447402 -2.427650 0.000000 
-0.448394 -2.561863 0.000000 
0.255646 -2.139315 0.000000 
0.450463 -2.457359 0.000000 
-0.079627 -2.125326 0.000000 
-0.130886 -2.168256 0.000000 
-0.192322 -2.162934 0.000000 
-0.112045 -2.227474 0.000000 
-0.224593 -2.218113 0.000000 
-0.171672 -2.255550 0.000000 
-0.055565 -2.241848 0.000000 
-0.279750 -2.228555 0.000000 
-0.040005 -2.297085 0.000000 
-0.014994 -2.201161 0.000000 
-0.297750 -2.288423 0.000000 
-0.349923 -2.318958 0.000000 
-0.353404 -2.383778 0.000000 
-0.255982 -2.327494 0.000000 
-0.394504 -2.430701 0.000000 
-0.372704 -2.490824 0.000000 
-0.286498 -2.385472 0.000000 
-0.397852 -2.547630 0.000000 
-0.363067 -2.591095 0.000000 
-0.315388 -2.491497 0.000000 
-0.373277 -2.646199 0.000000 
-0.326463 -2.674412 0.000000 
-0.309878 -2.551418 0.000000 
-0.322447 -2.730947 0.000000 
-0.266061 -2.753376 0.000000 
-0.275430 -2.649214 0.000000 
-0.244214 -2.815735 0.000000 
-0.179777 -2.820213 0.000000 
-0.236351 -2.696030 0.000000 
-0.142489 -2.876701 0.000000 
-0.078903 -2.857577 0.000000 
-0.150092 -2.766276 0.000000 
-0.022441 -2.894204 0.000000 
0.035369 -2.862281 0.000000 
-0.088244 -2.788728 0.000000 
0.094499 -2.893074 0.000000 
0.135159 -2.842423 0.000000 
0.026019 -2.801626 0.000000 
0.198442 -2.851958 0.000000 
0.230835 -2.788483 0.000000 
0.090833 -2.788134 0.000000 
0.288959 -2.770656 0.000000 
0.302307 -2.709269 0.000000 
0.194192 -2.737851 0.000000 
0.351602 -2.686129 0.000000 
0.350451 -2.628624 0.000000 
0.239558 -2.694275 0.000000 
0.390725 -2.583395 0.000000 
0.373064 -2.526468 0.000000 
0.297931 -2.606920 0.000000 
0.398935 -2.473890 0.000000 
0.364699 -2.428676 0.000000 
0.310996 -2.548891 0.000000 
0.376189 -2.374554 0.000000 
0.327727 -2.336090 0.000000 
0.307527 -2.442635 0.000000 
0.320869 -2.275200 0.000000 
0.261970 -2.245597 0.000000 
0.284047 -2.381934 0.000000 
0.233694 -2.187643 0.000000 
0.170776 -2.182202 0.000000 
0.220032 -2.287485 0.000000 
0.132623 -2.136598 0.000000 
0.077781 -2.147261 0.000000 
0.033402 -2.113728 0.000000 
-0.020312 -2.143626 0.000000 
0.167139 -2.249176 0.000000 
0.047817 -2.201132 0.000000 
-0.185163 -2.304930 0.000000 
-0.269149 -2.434464 0.000000 
-0.041143 -2.765789 0.000000 
0.236560 -2.648276 0.000000 
0.280807 -2.510046 0.000000 
0.117204 -2.743405 0.000000 
0.235738 -2.362144 0.000000 
-0.268806 -2.581445 0.000000 
-0.184490 -2.701754 0.000000 
-0.080656 -2.338496 0.000000 
0.016239 -2.311438 0.000000 
-0.142252 -2.341481 0.000000 
-0.171304 -2.399572 0.000000 
-0.216456 -2.438523 0.000000 
-0.206396 -2.499601 0.000000 
-0.129767 -2.436361 0.000000 
-0.220092 -2.556366 0.000000 
-0.148860 -2.492118 0.000000 
-0.175730 -2.600308 0.000000 
-0.076720 -2.402020 0.000000 
-0.156976 -2.656373 0.000000 
-0.126887 -2.573724 0.000000 
-0.075589 -2.599754 0.000000 
-0.113632 -2.521932 0.000000 
-0.052291 -2.505938 0.000000 
-0.032147 -2.558551 0.000000 
-0.034408 -2.442041 0.000000 
0.031944 -2.367328 0.000000 
0.063405 -2.256290 0.000000 
-0.090187 -2.656364 0.000000 
0.009711 -2.425830 0.000000 
0.052231 -2.474978 0.000000 
0.054105 -2.529844 0.000000 
0.099182 -2.446444 0.000000 
0.011327 -2.572476 0.000000 
0.028341 -2.628764 0.000000 
0.017667 -2.681398 0.000000 
0.078490 -2.704657 0.000000 
0.083967 -2.627954 0.000000 
0.118942 -2.664495 0.000000 
0.180911 -2.637373 0.000000 
0.099584 -2.571633 0.000000 
0.167060 -2.457086 0.000000 
0.089011 -2.387676 0.000000 
0.162945 -2.573400 0.000000 
0.192796 -2.399626 0.000000 
0.133083 -2.356225 0.000000 
0.123160 -2.280348 0.000000 
-0.041845 -2.696126 0.000000 
0.199441 -2.516650 0.000000 
VECTORS X_EC float 
-0.803911 0.599090 0.000000 
-0.619425 0.140543 0.000000 
-0.180335 -0.091632 0.000000 
-0.014455 0.628881 0.000000 
-0.248183 0.946404 0.000000 
-0.486789 0.943328 0.000000 
0.900359 -0.802166 0.000000 
-0.208874 0.964511 0.000000 
0.216385 0.267260 0.000000 
0.114903 0.422308 0.000000 
0.400131 -0.353560 0.000000 
0.121308 0.769473 0.000000 
0.643918 0.907315 0.000000 
-0.137569 -0.971975 0.000000 
0.180277 -0.478390 0.000000 
-0.992390 0.479234 0.000000 
0.324100 0.667044 0.000000 
-0.503068 -0.159061 0.000000 
0.674495 0.937567 0.000000 
0.765007 -0.503310 0.000000 
-0.177553 -0.800498 0.000000 
0.020313 0.822038 0.000000 
-0.182855 0.685644 0.000000 
-0.870219 0.396523 0.000000 
-0.185819 -0.414228 0.000000 
0.092875 0.911029 0.000000 
-0.744800 0.801687 0.000000 
-0.201809 0.819847 0.000000 
-0.702414 -0.408752 0.000000 
-0.572427 0.921027 0.000000 
0.566231 -0.251539 0.000000 
0.032013 0.716737 0.000000 
0.148871 -0.900437 0.000000 
0.407672 0.894058 0.000000 
0.119212 0.951185 0.000000 
0.067959 0.539233 0.000000 
0.178470 -0.159003 0.000000 
0.736980 0.262469 0.000000 
0.876581 0.600212 0.000000 
-0.159405 0.357217 0.000000 
0.304228 0.957028 0.000000 
0.990395 -0.730790 0.000000 
-0.443105 -0.202826 0.000000 
-0.068088 0.524044 0.000000 
-0.465666 0.802630 0.000000 
0.549825 0.045254 0.000000 
0.674738 0.783373 0.000000 
-0.444815 0.604916 0.000000 
0.200385 0.745038 0.000000 
-0.500431 -0.591621 0.000000 
0.397907 -0.825150 0.000000 
-0.960508 -0.453260 0.000000 
-0.427899 0.227445 0.000000 
0.139714 0.785919 0.000000 
0.062169 0.907415 0.000000 
0.181483 0.972525 0.000000 
0.805273 0.253944 0.000000 
-0.207097 0.835871 0.000000 
0.048432 0.236068 0.000000 
0.754779 -0.210834 0.000000 
-0.895798 0.966415 0.000000 
0.508238 -0.858436 0.000000 
-0.017319 -0.815670 0.000000 
-0.010706 0.079088 0.000000 
-0.704306 -0.737901 0.000000 
-0.003085 -0.617604 0.000000 
-0.469153 -0.831163 0.000000 
-0.127424 -0.544959 0.000000 
0.282144 -0.580441 0.000000 
-0.253031 -0.150173 0.000000 
0.497284 -0.212581 0.000000 
0.144481 0.037000 0.000000 
-0.629567 -0.054349 0.000000 
0.865003 -0.142964 0.000000 
-0.733301 0.313898 0.000000 
-0.900038 -0.325591 0.000000 
0.985001 0.256154 0.000000 
-0.667178 0.459718 0.000000 
-0.643974 0.891855 0.000000 
0.706548 0.516629 0.000000 
-0.369974 -0.795323 0.000000 
-0.515306 -0.394504 0.000000 
0.909989 0.903149 0.000000 
-0.347655 -0.015801 0.000000 
-0.579552 0.273970 0.000000 
-0.897414 -0.390018 0.000000 
-0.511487 0.641325 0.000000 
-0.823577 0.829416 0.000000 
-0.934150 0.009456 0.000000 
-0.850354 -0.793687 0.000000 
0.773738 -0.644161 0.000000 
0.836198 0.661426 0.000000 
0.628090 -0.228434 0.000000 
0.198513 -0.198581 0.000000 
0.575670 0.973531 0.000000 
-0.050076 0.178004 0.000000 
-0.473979 0.050513 0.000000 
0.000611 -0.558162 0.000000 
-0.850396 0.294696 0.000000 
0.764207 0.081877 0.000000 
-0.411707 -0.408481 0.000000 
0.370005 0.287160 0.000000 
0.098943 -0.050515 0.000000 
0.826537 -0.322493 0.000000 
-0.322945 0.013051 0.000000 
-0.538898 -0.410116 0.000000 
0.394448 -0.412443 0.000000 
-0.926392 -0.528960 0.000000 
0.984622 -0.938205 0.000000 
-0.294615 -0.747657 0.000000 
0.655983 0.907525 0.000000 
0.663657 0.524157 0.000000 
-0.597054 0.961836 0.000000 
0.395167 0.222634 0.000000 
0.512908 -0.156880 0.000000 
-0.986205 0.379466 0.000000 
0.340432 -0.507402 0.000000 
0.568676 -0.808824 0.000000 
0.926696 -0.007390 0.000000 
0.492071 0.830361 0.000000 
0.815152 0.573932 0.000000 
0.949817 -0.715766 0.000000 
0.860874 0.167997 0.000000 
-0.746468 -0.029352 0.000000 
-0.893643 0.879562 0.000000 
-0.557962 -0.415715 0.000000 
-0.138508 -0.451984 0.000000 
-0.466877 0.249903 0.000000 
0.115849 -0.756012 0.000000 
0.481462 -0.684929 0.000000 
0.777317 -0.908478 0.000000 
-0.864588 -0.709160 0.000000 
-0.114263 -0.005493 0.000000 
0.681220 -0.325785 0.000000 
0.234423 0.366200 0.000000 
0.794327 -0.770238 0.000000 
-0.725712 -0.561405 0.000000 
-0.577067 0.655172 0.000000 
-0.872050 -0.266360 0.000000 
0.218639 -0.710631 0.000000 
-0.571587 0.747624 0.000000 
0.792040 0.209631 0.000000 
0.229934 -0.988307 0.000000 
-0.462292 0.589976 0.000000 
0.891739 0.409586 0.000000 
-0.051656 0.609874 0.000000 
0.142025 0.997150 0.000000 
0.443037 -0.743179 0.000000 
0.375974 -0.335993 0.000000 
-0.134887 -0.757594 0.000000 
0.467282 0.042441 0.000000 
-0.007601 -0.385883 0.000000 
0.171530 0.335385 0.000000 
-0.488533 -0.986535 0.000000 
0.046504 0.709151 0.000000 
-0.154087 0.158158 0.000000 
-0.496077 0.331694 0.000000 
-0.242456 -0.187118 0.000000 
-0.651392 -0.293750 0.000000 
-0.785688 0.057008 0.000000 
-0.770615 -0.719725 0.000000 
0.787038 0.782185 0.000000 
0.577302 0.041930 0.000000 
-0.398751 0.709091 0.000000 
0.935259 -0.827799 0.000000 
0.651792 -0.500146 0.000000 
0.639301 -0.134371 0.000000 
0.338789 -0.690372 0.000000 
0.924485 0.149837 0.000000 
0.811060 0.525092 0.000000 
0.882221 0.875985 0.000000 
0.476735 -0.968950 0.000000 
0.440217 0.519695 0.000000 
0.207051 0.763303 0.000000 
-0.206073 0.582484 0.000000 
0.336106 0.144220 0.000000 
-0.113736 -0.619424 0.000000 
0.406595 0.917843 0.000000 
-0.086302 0.156000 0.000000 
-0.285304 0.997509 0.000000 
0.112783 0.708169 0.000000 
0.178934 0.202321 0.000000 
-0.721034 0.974171 0.000000 
-0.329609 -0.222331 0.000000 
CELL_DATA 184 
SCALARS MASS float 
LOOKUP_TABLE default 
0.051252 
0.046008 
0.051531 
0.046188 
0.052854 
0.051531 
0.052854 
0.052854 
0.051531 
0.050859 
0.052854 
0.047395 
0.052854 
0.052854 
0.051434 
0.045995 
0.052854 
0.051281 
0.051530 
0.046441 
0.052854 
0.052854 
0.050612 
0.049065 
0.052975 
0.049197 
0.049245 
0.052975 
0.052990 
0.055938 
0.049713 
0.052094 
0.055938 
0.050456 
0.055938 
0.053198 
0.052878 
0.049051 
0.052807 
0.049481 
0.052974 
0.049465 
0.049257 
0.055938 
0.105225 
0.104629 
0.082126 
0.094264 
0.094771 
0.094259 
0.094771 
0.083366 
0.104047 
0.083092 
0.081316 
0.081315 
0.092719 
0.079469 
0.108073 
0.092710 
0.108073 
0.093129 
0.104035 
0.094961 
0.104398 
0.081316 
0.125285 
0.099128 
0.098320 
0.087841 
0.082650 
0.097481 
0.086914 
0.081921 
0.086680 
0.086680 
0.081485 
0.107769 
0.088711 
0.084874 
0.107874 
0.082612 
0.095190 
0.095229 
0.083942 
0.085089 
0.079923 
0.081132 
0.095301 
0.097917 
0.090576 
0.085268 
0.095896 
0.081062 
0.095454 
0.090083 
0.081027 
0.085251 
0.101961 
0.083022 
0.095445 
0.080604 
0.081018 
0.085240 
0.097826 
0.090495 
0.095435 
0.095845 
0.081023 
0.085241 
0.090072 
0.081024 
0.095436 
0.101966 
0.083028 
0.085242 
0.080610 
0.081024 
0.095437 
0.082345 
0.082694 
0.085242 
0.109264 
0.089885 
0.095437 
0.108636 
0.083028 
0.085242 
0.080610 
0.074817 
0.073569 
0.082490 
0.095437 
0.095617 
0.133784 
0.138292 
0.139667 
0.139695 
0.139694 
0.139689 
0.139693 
0.140105 
0.139774 
0.086622 
0.086622 
0.089038 
0.077179 
0.079159 
0.072465 
0.084345 
0.092656 
0.093083 
0.084037 
0.098826 
0.101847 
0.085968 
0.086444 
0.074619 
0.064825 
0.094138 
0.124406 
0.086607 
0.131576 
0.102571 
0.084703 
0.076503 
0.084191 
0.084191 
0.086793 
0.075696 
0.084714 
0.090949 
0.084009 
0.076569 
0.086383 
0.098391 
0.110757 
0.093222 
0.143196 
0.101090 
0.091038 
0.150913 
0.178131 
0.206980 
SCALARS MASS float 
LOOKUP_TABLE default 
0.051252 
0.046008 
0.051531 
0.046188 
0.052854 
0.051531 
0.052854 
0.052854 
0.051531 
0.050859 
0.052854 
0.047395 
0.052854 
0.052854 
0.051434 
0.045995 
0.052854 
0.051281 
0.051530 
0.046441 
0.052854 
0.052854 
0.050612 
0.049065 
0.052975 
0.049197 
0.049245 
0.052975 
0.052990 
0.055938 
0.049713 
0.052094 
0.055938 
0.050456 
0.055938 
0.053198 
0.052878 
0.049051 
0.052807 
0.049481 
0.052974 
0.049465 
0.049257 
0.055938 
0.105225 
0.104629 
0.082126 
0.094264 
0.094771 
0.094259 
0.094771 
0.083366 
0.104047 
0.083092 
0.081316 
0.081315 
0.092719 
0.079469 
0.108073 
0.092710 
0.108073 
0.093129 
0.104035 
0.094961 
0.104398 
0.081316 
0.125285 
0.099128 
0.098320 
0.087841 
0.082650 
0.097481 
0.086914 
0.081921 
0.086680 
0.086680 
0.081485 
0.107769 
0.088711 
0.084874 
0.107874 
0.082612 
0.095190 
0.095229 
0.083942 
0.085089 
0.079923 
0.081132 
0.095301 
0.097917 
0.090576 
0.085268 
0.095896 
0.081062 
0.095454 
0.090083 
0.081027 
0.085251 
0.101961 
0.083022 
0.095445 
0.080604 
0.081018 
0.085240 
0.097826 
0.090495 
0.095435 
0.095845 
0.081023 
0.085241 
0.090072 
0.081024 
0.095436 
0.101966 
0.083028 
0.085242 
0.080610 
0.081024 
0.095437 
0.082345 
0.082694 
0.085242 
0.109264 
0.089885 
0.095437 
0.108636 
0.083028 
0.085242 
0.080610 
0.074817 
0.073569 
0.082490 
0.095437 
0.095617 
0.133784 
0.138292 
0.139667 
0.139695 
0.139694 
0.139689 
0.139693 
0.140105 
0.139774 
0.086622 
0.086622 
0.089038 
0.077179 
0.079159 
0.072465 
0.084345 
0.092656 
0.093083 
0.084037 
0.098826 
0.101847 
0.085968 
0.086444 
0.074619 
0.064825 
0.094138 
0.124406 
0.086607 
0.131576 
0.102571 
0.084703 
0.076503 
0.084191 
0.084191 
0.086793 
0.075696 
0.084714 
0.090949 
0.084009 
0.076569 
0.086383 
0.098391 
0.110757 
0.093222 
0.143196 
0.101090 
0.091038 
0.150913 
0.178131 
0.206980 
SCALARS DENSITY float 
LOOKUP_TABLE default 
21.561180 
26175.963903 
26.543430 
22.088176 
19405994325.927868 
20.894279 
21.342836 
82399998257.529861 
21.396044 
27.809792 
407.813420 
21.217370 
187680441.078878 
21.672838 
28.103942 
1690675.756237 
21.529109 
20.621395 
2375047927679.219727 
18.195547 
38.076799 
26.122246 
21.371858 
1652431.087082 
28.548068 
22.189405 
43117134.662295 
21.159569 
18.324113 
1400412186964.821289 
18.737320 
27.105434 
29.627788 
20.997924 
8502914156.117394 
21.553733 
29.004146 
121065.227446 
21.740147 
21.850077 
3899368327775.475586 
20.330573 
1388.590637 
26.660017 
21.194845 
21.437094 
21.368873 
7459728.332626 
23835748.690756 
106.005829 
33.634243 
18.900725 
22.319559 
22.074677 
21.048683 
2380930683.207417 
568614.186470 
24.917771 
23.574475 
3872.127452 
20718694207.170959 
20.443388 
20.605505 
23.659925 
21.485080 
23.772355 
19.889915 
20.899229 
21.016515 
22.144368 
22.172969 
22.562999 
21.741628 
23.074356 
20.054779 
21.342909 
23.161562 
22.882592 
23.576930 
22.723334 
22.379542 
26.447473 
22.461230 
21.079509 
22.410229 
24.003607 
23.563982 
21.039318 
16.586705 
33.455610 
83.778541 
20.079421 
2892.975273 
6520.258912 
18.164736 
94517.689250 
27894.766865 
160.676978 
695016.774211 
76647.154818 
470.643867 
1227682.582718 
14858.118635 
833.391239 
52905.864861 
695.980683 
474.839999 
194.450239 
18.959914 
46.531026 
22.794029 
23.541850 
18.154066 
21.693249 
22.666610 
20.399182 
26.017172 
22.590047 
17.356207 
22.680888 
22.710121 
25.157980 
22.270763 
23.285284 
22.242462 
21.411567 
21.149254 
22.054126 
20.576518 
20.878733 
20.077928 
20.260080 
22.436945 
21.514583 
21.739925 
22.154769 
203.208667 
20.050540 
19.456849 
71.719512 
22.279325 
20.143854 
17.929525 
21.764726 
20.671452 
22.087659 
21.639567 
21.633353 
19.371395 
20.679254 
19.309648 
18.562690 
24.458179 
21.120925 
19.710985 
25.098981 
28.778512 
20.172082 
18.702763 
28.079138 
18.612479 
21.465895 
21.491096 
19.682032 
20.789906 
15.846486 
22.446961 
19.493731 
31.174881 
24.025081 
18.275357 
18.021867 
23.262523 
19.068338 
20.935405 
25.889995 
19.101797 
21.380627 
22.633600 
21.607935 
21.941062 
21.183858 
18.106633 
19.563656 
SCALARS ELEM_i float 
LOOKUP_TABLE default 
203 
220 
161 
222 
180 
183 
202 
200 
162 
221 
160 
203 
200 
161 
221 
180 
183 
222 
180 
162 
220 
161 
203 
220 
161 
222 
180 
183 
222 
200 
162 
221 
160 
203 
200 
162 
221 
160 
183 
222 
180 
162 
220 
161 
203 
162 
183 
180 
200 
220 
160 
222 
222 
162 
183 
180 
200 
221 
161 
160 
200 
202 
221 
221 
182 
161 
202 
202 
202 
202 
202 
202 
202 
202 
202 
202 
202 
222 
222 
202 
221 
221 
202 
221 
221 
221 
221 
221 
221 
220 
200 
201 
200 
200 
201 
200 
200 
200 
200 
180 
200 
180 
180 
180 
180 
180 
180 
180 
160 
180 
161 
161 
181 
161 
161 
181 
161 
161 
161 
162 
162 
161 
162 
182 
182 
182 
182 
182 
182 
182 
182 
202 
182 
182 
202 
201 
200 
181 
181 
180 
182 
201 
200 
202 
182 
202 
202 
201 
201 
201 
201 
201 
201 
201 
201 
201 
201 
201 
201 
201 
201 
182 
182 
201 
181 
181 
181 
181 
181 
181 
181 
180 
181 
181 
181 
181 
181 
182 
181 
182 
182 
182 
201 
181 
VECTORS VELOCITY float 
-0.284455 -2.065944 0.000000 
-2.036349 -34.576869 0.000000 
-0.022455 -1.287186 0.000000 
0.327250 -2.307172 0.000000 
0.970231 -122.490887 0.000000 
0.477160 -0.789113 0.000000 
-0.398843 0.123010 0.000000 
-2.168917 -147.165134 0.000000 
-1.462526 -3.349338 0.000000 
0.320671 -1.465117 0.000000 
0.135128 -11.623863 0.000000 
-0.741392 -1.287880 0.000000 
0.884001 -84.760371 0.000000 
2.202294 -0.132349 0.000000 
-0.540055 -0.583850 0.000000 
-1.996595 -52.156446 0.000000 
0.519260 -1.922279 0.000000 
1.512805 -3.028462 0.000000 
1.706558 -165.845407 0.000000 
-0.940613 -1.687271 0.000000 
0.411072 -1.409694 0.000000 
-1.156883 -1.708039 0.000000 
-0.679707 -1.629049 0.000000 
0.095292 -48.292764 0.000000 
0.707761 -0.609141 0.000000 
-0.814257 -1.081993 0.000000 
-1.495871 -76.287135 0.000000 
0.657822 -1.347724 0.000000 
0.893317 -1.961046 0.000000 
-1.592805 -155.538766 0.000000 
-1.761418 -2.917429 0.000000 
0.399779 -1.196750 0.000000 
-1.403567 -1.401937 0.000000 
-0.631454 -0.809836 0.000000 
-1.580330 -127.795135 0.000000 
-0.451157 -2.552146 0.000000 
0.129459 -1.206136 0.000000 
1.341503 -41.034755 0.000000 
0.011378 -2.137754 0.000000 
1.149610 -3.125371 0.000000 
2.304295 -154.668251 0.000000 
0.323788 0.151136 0.000000 
-1.144701 -17.800250 0.000000 
-0.825193 -1.875886 0.000000 
-0.364921 -1.609425 0.000000 
-1.249235 -2.744846 0.000000 
0.150446 -1.839816 0.000000 
-1.331379 -58.407022 0.000000 
0.704698 -68.358975 0.000000 
0.175508 -2.378679 0.000000 
-1.077038 0.380137 0.000000 
-0.321034 -0.433526 0.000000 
0.969934 -2.844418 0.000000 
0.694932 -1.551391 0.000000 
0.358510 -1.265672 0.000000 
0.209260 -86.763253 0.000000 
1.771612 -35.400891 0.000000 
0.388027 0.349425 0.000000 
-0.319564 -1.104027 0.000000 
0.212126 -13.177196 0.000000 
0.066908 -83.880982 0.000000 
-0.290424 -0.168657 0.000000 
-1.404019 -0.315911 0.000000 
0.166085 -1.036809 0.000000 
0.288564 -0.025189 0.000000 
1.357011 -0.271225 0.000000 
-0.097167 -0.979568 0.000000 
-0.180802 -0.973714 0.000000 
-0.289064 -0.631055 0.000000 
-0.042665 -1.296470 0.000000 
-0.180692 -0.991099 0.000000 
-0.074923 -1.285797 0.000000 
0.032000 -1.365413 0.000000 
-0.215798 -0.980833 0.000000 
0.100364 -1.149118 0.000000 
0.030831 -1.577900 0.000000 
-0.240451 -1.549475 0.000000 
0.105164 -2.153931 0.000000 
-0.391967 -2.079467 0.000000 
-0.190643 -1.805330 0.000000 
-0.913007 -1.263726 0.000000 
-0.216997 -1.637278 0.000000 
-0.165167 -2.530657 0.000000 
0.013994 -0.718016 0.000000 
0.110823 0.607664 0.000000 
-0.169519 -2.091261 0.000000 
0.336424 1.661274 0.000000 
0.364621 4.531735 0.000000 
-0.182697 0.113215 0.000000 
0.444182 5.601915 0.000000 
0.377357 5.542720 0.000000 
0.272921 4.561008 0.000000 
0.822449 -7.610674 0.000000 
0.571585 -7.665796 0.000000 
0.203975 6.750445 0.000000 
0.809439 -25.551539 0.000000 
0.307163 -16.197544 0.000000 
0.125952 3.517646 0.000000 
0.078262 -27.570089 0.000000 
-0.311080 -16.182465 0.000000 
0.033182 0.243307 0.000000 
-0.613087 -30.243137 0.000000 
-0.677959 -13.132784 0.000000 
-0.258480 -1.411642 0.000000 
-1.002372 -18.157343 0.000000 
-0.380316 -0.548915 0.000000 
-0.280527 0.295713 0.000000 
-0.174228 2.951983 0.000000 
-0.038884 7.515270 0.000000 
-0.053545 6.791691 0.000000 
-0.437650 3.528363 0.000000 
-0.237342 1.920272 0.000000 
-0.021108 6.791945 0.000000 
-0.104739 -0.089275 0.000000 
0.210311 -0.920947 0.000000 
0.102641 2.882795 0.000000 
0.647683 -1.172132 0.000000 
0.971106 -1.470717 0.000000 
0.294048 0.191698 0.000000 
0.625149 -1.683557 0.000000 
0.171893 -1.842109 0.000000 
0.127694 -2.539746 0.000000 
-0.122198 -1.611094 0.000000 
0.167277 -1.033816 0.000000 
0.208380 -2.193493 0.000000 
0.278416 -0.596339 0.000000 
0.224831 -0.838206 0.000000 
0.199494 -1.285436 0.000000 
0.149273 -0.696356 0.000000 
0.119595 -1.079878 0.000000 
0.024953 -1.353615 0.000000 
-0.008881 -1.384386 0.000000 
0.141215 -1.173083 0.000000 
0.087641 -1.445270 0.000000 
-0.096336 -1.461303 0.000000 
-0.028538 -2.858249 0.000000 
-0.167285 3.441329 0.000000 
-0.034726 4.283363 0.000000 
0.249838 -1.319011 0.000000 
-0.144589 5.969488 0.000000 
0.223939 -1.864281 0.000000 
-0.031800 1.301406 0.000000 
0.086905 6.691320 0.000000 
0.074980 -1.372314 0.000000 
0.172846 -1.083363 0.000000 
-0.012237 -1.586592 0.000000 
0.011630 -2.172568 0.000000 
0.023343 -2.583434 0.000000 
-0.086114 -1.602764 0.000000 
0.086254 -2.136554 0.000000 
-0.131377 0.055209 0.000000 
-0.017239 -1.478937 0.000000 
0.011575 1.200883 0.000000 
0.145417 -1.754417 0.000000 
0.054704 3.852209 0.000000 
-0.063335 -0.043737 0.000000 
-0.066661 0.237475 0.000000 
-0.029287 -0.968267 0.000000 
0.056415 -0.966740 0.000000 
-0.012855 -0.843746 0.000000 
0.153130 -1.564389 0.000000 
0.221543 -1.329273 0.000000 
0.120216 -1.267081 0.000000 
-0.070748 3.229788 0.000000 
0.211516 -1.547114 0.000000 
0.130135 -1.107718 0.000000 