# vtk DataFile Version 3.0 
vtk output 
ASCII 
DATASET UNSTRUCTURED_GRID 
POINTS 175 float 
-0.026061 -2.369974 0.000000 
-0.106992 -2.301918 0.000000 
-0.054870 -2.310151 0.000000 
-0.028809 -2.264267 0.000000 
-0.186430 -2.237843 0.000000 
-0.137056 -2.240369 0.000000 
-0.114311 -2.186722 0.000000 
-0.058186 -2.202387 0.000000 
-0.029377 -2.162210 0.000000 
-0.265318 -2.174687 0.000000 
-0.217198 -2.175487 0.000000 
-0.196633 -2.118190 0.000000 
-0.143120 -2.126899 0.000000 
-0.116563 -2.079631 0.000000 
-0.058945 -2.099276 0.000000 
-0.029568 -2.061156 0.000000 
-0.344206 -2.111531 0.000000 
-0.296791 -2.111524 0.000000 
-0.278030 -2.051581 0.000000 
-0.225992 -2.057448 0.000000 
-0.201664 -2.005331 0.000000 
-0.145749 -2.018805 0.000000 
-0.117890 -1.974462 0.000000 
-0.059328 -1.997168 0.000000 
-0.029759 -1.960102 0.000000 
-0.058559 -2.410725 0.000000 
-0.162231 -2.431556 0.000000 
-0.123292 -2.395950 0.000000 
-0.142917 -2.346966 0.000000 
-0.261857 -2.453696 0.000000 
-0.229092 -2.416697 0.000000 
-0.256854 -2.365465 0.000000 
-0.209613 -2.331352 0.000000 
-0.223062 -2.283779 0.000000 
-0.360436 -2.475982 0.000000 
-0.329793 -2.438887 0.000000 
-0.361761 -2.387099 0.000000 
-0.321587 -2.350690 0.000000 
-0.341985 -2.300456 0.000000 
-0.290702 -2.267657 0.000000 
-0.302189 -2.220922 0.000000 
-0.459003 -2.498291 0.000000 
-0.429435 -2.461227 0.000000 
-0.464588 -2.409208 0.000000 
-0.427556 -2.372180 0.000000 
-0.453135 -2.320665 0.000000 
-0.407738 -2.285350 0.000000 
-0.425037 -2.235922 0.000000 
-0.370772 -2.204293 0.000000 
-0.381315 -2.158065 0.000000 
-0.046979 -2.461486 0.000000 
-0.095393 -2.555414 0.000000 
-0.098928 -2.502835 0.000000 
-0.149436 -2.487666 0.000000 
-0.140098 -2.647428 0.000000 
-0.148656 -2.598529 0.000000 
-0.205978 -2.588228 0.000000 
-0.203222 -2.530045 0.000000 
-0.248791 -2.510926 0.000000 
-0.184560 -2.737947 0.000000 
-0.193871 -2.691190 0.000000 
-0.254370 -2.683705 0.000000 
-0.257860 -2.629609 0.000000 
-0.309997 -2.614251 0.000000 
-0.303591 -2.553727 0.000000 
-0.347297 -2.533590 0.000000 
-0.234560 -2.828382 0.000000 
-0.242189 -2.782542 0.000000 
-0.304402 -2.778078 0.000000 
-0.307718 -2.725890 0.000000 
-0.364037 -2.713744 0.000000 
-0.363105 -2.656243 0.000000 
-0.412486 -2.638981 0.000000 
-0.403114 -2.576831 0.000000 
-0.445780 -2.556286 0.000000 
-0.000000 -2.484071 0.000000 
0.043453 -2.580467 0.000000 
-0.000000 -2.550382 0.000000 
-0.043453 -2.580467 0.000000 
0.087256 -2.673255 0.000000 
0.043837 -2.649438 0.000000 
-0.000000 -2.688170 0.000000 
-0.043837 -2.649438 0.000000 
-0.087256 -2.673255 0.000000 
0.131551 -2.762240 0.000000 
0.087887 -2.741632 0.000000 
0.044302 -2.781076 0.000000 
-0.000000 -2.752358 0.000000 
-0.044302 -2.781076 0.000000 
-0.087887 -2.741632 0.000000 
-0.131551 -2.762240 0.000000 
0.179487 -2.851109 0.000000 
0.133895 -2.829245 0.000000 
0.091532 -2.882674 0.000000 
0.044185 -2.843444 0.000000 
-0.000000 -2.927670 0.000000 
-0.044185 -2.843444 0.000000 
-0.091532 -2.882674 0.000000 
-0.133895 -2.829245 0.000000 
-0.179487 -2.851109 0.000000 
0.046979 -2.461486 0.000000 
0.149436 -2.487666 0.000000 
0.098928 -2.502835 0.000000 
0.095393 -2.555414 0.000000 
0.248791 -2.510926 0.000000 
0.203222 -2.530045 0.000000 
0.205978 -2.588228 0.000000 
0.148656 -2.598529 0.000000 
0.140098 -2.647428 0.000000 
0.347297 -2.533590 0.000000 
0.303591 -2.553727 0.000000 
0.309997 -2.614251 0.000000 
0.257860 -2.629609 0.000000 
0.254370 -2.683705 0.000000 
0.193871 -2.691190 0.000000 
0.184560 -2.737947 0.000000 
0.445780 -2.556286 0.000000 
0.403114 -2.576831 0.000000 
0.412486 -2.638981 0.000000 
0.363105 -2.656243 0.000000 
0.364037 -2.713744 0.000000 
0.307718 -2.725890 0.000000 
0.304402 -2.778078 0.000000 
0.242189 -2.782542 0.000000 
0.234560 -2.828382 0.000000 
0.058559 -2.410725 0.000000 
0.142917 -2.346966 0.000000 
0.123292 -2.395950 0.000000 
0.162231 -2.431556 0.000000 
0.223062 -2.283779 0.000000 
0.209613 -2.331352 0.000000 
0.256854 -2.365465 0.000000 
0.229092 -2.416697 0.000000 
0.261857 -2.453696 0.000000 
0.302189 -2.220922 0.000000 
0.290702 -2.267657 0.000000 
0.341985 -2.300456 0.000000 
0.321587 -2.350690 0.000000 
0.361761 -2.387099 0.000000 
0.329793 -2.438887 0.000000 
0.360436 -2.475982 0.000000 
0.381315 -2.158065 0.000000 
0.370772 -2.204293 0.000000 
0.425037 -2.235922 0.000000 
0.407738 -2.285350 0.000000 
0.453135 -2.320665 0.000000 
0.427556 -2.372180 0.000000 
0.464588 -2.409208 0.000000 
0.429435 -2.461227 0.000000 
0.459003 -2.498291 0.000000 
0.026061 -2.369974 0.000000 
0.028809 -2.264267 0.000000 
0.054870 -2.310151 0.000000 
0.106992 -2.301918 0.000000 
0.029377 -2.162210 0.000000 
0.058186 -2.202387 0.000000 
0.114311 -2.186722 0.000000 
0.137056 -2.240369 0.000000 
0.186430 -2.237843 0.000000 
0.029568 -2.061156 0.000000 
0.058945 -2.099276 0.000000 
0.116563 -2.079631 0.000000 
0.143120 -2.126899 0.000000 
0.196633 -2.118190 0.000000 
0.217198 -2.175487 0.000000 
0.265318 -2.174687 0.000000 
0.029759 -1.960102 0.000000 
0.059328 -1.997168 0.000000 
0.117890 -1.974462 0.000000 
0.145749 -2.018805 0.000000 
0.201664 -2.005331 0.000000 
0.225992 -2.057448 0.000000 
0.278030 -2.051581 0.000000 
0.296791 -2.111524 0.000000 
0.344206 -2.111531 0.000000 
CELLS 175 350 
1 0 
1 1 
1 2 
1 3 
1 4 
1 5 
1 6 
1 7 
1 8 
1 9 
1 10 
1 11 
1 12 
1 13 
1 14 
1 15 
1 16 
1 17 
1 18 
1 19 
1 20 
1 21 
1 22 
1 23 
1 24 
1 25 
1 26 
1 27 
1 28 
1 29 
1 30 
1 31 
1 32 
1 33 
1 34 
1 35 
1 36 
1 37 
1 38 
1 39 
1 40 
1 41 
1 42 
1 43 
1 44 
1 45 
1 46 
1 47 
1 48 
1 49 
1 50 
1 51 
1 52 
1 53 
1 54 
1 55 
1 56 
1 57 
1 58 
1 59 
1 60 
1 61 
1 62 
1 63 
1 64 
1 65 
1 66 
1 67 
1 68 
1 69 
1 70 
1 71 
1 72 
1 73 
1 74 
1 75 
1 76 
1 77 
1 78 
1 79 
1 80 
1 81 
1 82 
1 83 
1 84 
1 85 
1 86 
1 87 
1 88 
1 89 
1 90 
1 91 
1 92 
1 93 
1 94 
1 95 
1 96 
1 97 
1 98 
1 99 
1 100 
1 101 
1 102 
1 103 
1 104 
1 105 
1 106 
1 107 
1 108 
1 109 
1 110 
1 111 
1 112 
1 113 
1 114 
1 115 
1 116 
1 117 
1 118 
1 119 
1 120 
1 121 
1 122 
1 123 
1 124 
1 125 
1 126 
1 127 
1 128 
1 129 
1 130 
1 131 
1 132 
1 133 
1 134 
1 135 
1 136 
1 137 
1 138 
1 139 
1 140 
1 141 
1 142 
1 143 
1 144 
1 145 
1 146 
1 147 
1 148 
1 149 
1 150 
1 151 
1 152 
1 153 
1 154 
1 155 
1 156 
1 157 
1 158 
1 159 
1 160 
1 161 
1 162 
1 163 
1 164 
1 165 
1 166 
1 167 
1 168 
1 169 
1 170 
1 171 
1 172 
1 173 
1 174 
CELL_TYPES 175 
1 
1 
1 
1 
1 
1 
1 
1 
1 
1 
1 
1 
1 
1 
1 
1 
1 
1 
1 
1 
1 
1 
1 
1 
1 
1 
1 
1 
1 
1 
1 
1 
1 
1 
1 
1 
1 
1 
1 
1 
1 
1 
1 
1 
1 
1 
1 
1 
1 
1 
1 
1 
1 
1 
1 
1 
1 
1 
1 
1 
1 
1 
1 
1 
1 
1 
1 
1 
1 
1 
1 
1 
1 
1 
1 
1 
1 
1 
1 
1 
1 
1 
1 
1 
1 
1 
1 
1 
1 
1 
1 
1 
1 
1 
1 
1 
1 
1 
1 
1 
1 
1 
1 
1 
1 
1 
1 
1 
1 
1 
1 
1 
1 
1 
1 
1 
1 
1 
1 
1 
1 
1 
1 
1 
1 
1 
1 
1 
1 
1 
1 
1 
1 
1 
1 
1 
1 
1 
1 
1 
1 
1 
1 
1 
1 
1 
1 
1 
1 
1 
1 
1 
1 
1 
1 
1 
1 
1 
1 
1 
1 
1 
1 
1 
1 
1 
1 
1 
1 
1 
1 
1 
1 
1 
1 
POINT_DATA 175 
VECTORS X_GC float 
-0.026061 -2.369974 0.000000 
-0.106992 -2.301918 0.000000 
-0.054870 -2.310151 0.000000 
-0.028809 -2.264267 0.000000 
-0.186430 -2.237843 0.000000 
-0.137056 -2.240369 0.000000 
-0.114311 -2.186722 0.000000 
-0.058186 -2.202387 0.000000 
-0.029377 -2.162210 0.000000 
-0.265318 -2.174687 0.000000 
-0.217198 -2.175487 0.000000 
-0.196633 -2.118190 0.000000 
-0.143120 -2.126899 0.000000 
-0.116563 -2.079631 0.000000 
-0.058945 -2.099276 0.000000 
-0.029568 -2.061156 0.000000 
-0.344206 -2.111531 0.000000 
-0.296791 -2.111524 0.000000 
-0.278030 -2.051581 0.000000 
-0.225992 -2.057448 0.000000 
-0.201664 -2.005331 0.000000 
-0.145749 -2.018805 0.000000 
-0.117890 -1.974462 0.000000 
-0.059328 -1.997168 0.000000 
-0.029759 -1.960102 0.000000 
-0.058559 -2.410725 0.000000 
-0.162231 -2.431556 0.000000 
-0.123292 -2.395950 0.000000 
-0.142917 -2.346966 0.000000 
-0.261857 -2.453696 0.000000 
-0.229092 -2.416697 0.000000 
-0.256854 -2.365465 0.000000 
-0.209613 -2.331352 0.000000 
-0.223062 -2.283779 0.000000 
-0.360436 -2.475982 0.000000 
-0.329793 -2.438887 0.000000 
-0.361761 -2.387099 0.000000 
-0.321587 -2.350690 0.000000 
-0.341985 -2.300456 0.000000 
-0.290702 -2.267657 0.000000 
-0.302189 -2.220922 0.000000 
-0.459003 -2.498291 0.000000 
-0.429435 -2.461227 0.000000 
-0.464588 -2.409208 0.000000 
-0.427556 -2.372180 0.000000 
-0.453135 -2.320665 0.000000 
-0.407738 -2.285350 0.000000 
-0.425037 -2.235922 0.000000 
-0.370772 -2.204293 0.000000 
-0.381315 -2.158065 0.000000 
-0.046979 -2.461486 0.000000 
-0.095393 -2.555414 0.000000 
-0.098928 -2.502835 0.000000 
-0.149436 -2.487666 0.000000 
-0.140098 -2.647428 0.000000 
-0.148656 -2.598529 0.000000 
-0.205978 -2.588228 0.000000 
-0.203222 -2.530045 0.000000 
-0.248791 -2.510926 0.000000 
-0.184560 -2.737947 0.000000 
-0.193871 -2.691190 0.000000 
-0.254370 -2.683705 0.000000 
-0.257860 -2.629609 0.000000 
-0.309997 -2.614251 0.000000 
-0.303591 -2.553727 0.000000 
-0.347297 -2.533590 0.000000 
-0.234560 -2.828382 0.000000 
-0.242189 -2.782542 0.000000 
-0.304402 -2.778078 0.000000 
-0.307718 -2.725890 0.000000 
-0.364037 -2.713744 0.000000 
-0.363105 -2.656243 0.000000 
-0.412486 -2.638981 0.000000 
-0.403114 -2.576831 0.000000 
-0.445780 -2.556286 0.000000 
-0.000000 -2.484071 0.000000 
0.043453 -2.580467 0.000000 
-0.000000 -2.550382 0.000000 
-0.043453 -2.580467 0.000000 
0.087256 -2.673255 0.000000 
0.043837 -2.649438 0.000000 
-0.000000 -2.688170 0.000000 
-0.043837 -2.649438 0.000000 
-0.087256 -2.673255 0.000000 
0.131551 -2.762240 0.000000 
0.087887 -2.741632 0.000000 
0.044302 -2.781076 0.000000 
-0.000000 -2.752358 0.000000 
-0.044302 -2.781076 0.000000 
-0.087887 -2.741632 0.000000 
-0.131551 -2.762240 0.000000 
0.179487 -2.851109 0.000000 
0.133895 -2.829245 0.000000 
0.091532 -2.882674 0.000000 
0.044185 -2.843444 0.000000 
-0.000000 -2.927670 0.000000 
-0.044185 -2.843444 0.000000 
-0.091532 -2.882674 0.000000 
-0.133895 -2.829245 0.000000 
-0.179487 -2.851109 0.000000 
0.046979 -2.461486 0.000000 
0.149436 -2.487666 0.000000 
0.098928 -2.502835 0.000000 
0.095393 -2.555414 0.000000 
0.248791 -2.510926 0.000000 
0.203222 -2.530045 0.000000 
0.205978 -2.588228 0.000000 
0.148656 -2.598529 0.000000 
0.140098 -2.647428 0.000000 
0.347297 -2.533590 0.000000 
0.303591 -2.553727 0.000000 
0.309997 -2.614251 0.000000 
0.257860 -2.629609 0.000000 
0.254370 -2.683705 0.000000 
0.193871 -2.691190 0.000000 
0.184560 -2.737947 0.000000 
0.445780 -2.556286 0.000000 
0.403114 -2.576831 0.000000 
0.412486 -2.638981 0.000000 
0.363105 -2.656243 0.000000 
0.364037 -2.713744 0.000000 
0.307718 -2.725890 0.000000 
0.304402 -2.778078 0.000000 
0.242189 -2.782542 0.000000 
0.234560 -2.828382 0.000000 
0.058559 -2.410725 0.000000 
0.142917 -2.346966 0.000000 
0.123292 -2.395950 0.000000 
0.162231 -2.431556 0.000000 
0.223062 -2.283779 0.000000 
0.209613 -2.331352 0.000000 
0.256854 -2.365465 0.000000 
0.229092 -2.416697 0.000000 
0.261857 -2.453696 0.000000 
0.302189 -2.220922 0.000000 
0.290702 -2.267657 0.000000 
0.341985 -2.300456 0.000000 
0.321587 -2.350690 0.000000 
0.361761 -2.387099 0.000000 
0.329793 -2.438887 0.000000 
0.360436 -2.475982 0.000000 
0.381315 -2.158065 0.000000 
0.370772 -2.204293 0.000000 
0.425037 -2.235922 0.000000 
0.407738 -2.285350 0.000000 
0.453135 -2.320665 0.000000 
0.427556 -2.372180 0.000000 
0.464588 -2.409208 0.000000 
0.429435 -2.461227 0.000000 
0.459003 -2.498291 0.000000 
0.026061 -2.369974 0.000000 
0.028809 -2.264267 0.000000 
0.054870 -2.310151 0.000000 
0.106992 -2.301918 0.000000 
0.029377 -2.162210 0.000000 
0.058186 -2.202387 0.000000 
0.114311 -2.186722 0.000000 
0.137056 -2.240369 0.000000 
0.186430 -2.237843 0.000000 
0.029568 -2.061156 0.000000 
0.058945 -2.099276 0.000000 
0.116563 -2.079631 0.000000 
0.143120 -2.126899 0.000000 
0.196633 -2.118190 0.000000 
0.217198 -2.175487 0.000000 
0.265318 -2.174687 0.000000 
0.029759 -1.960102 0.000000 
0.059328 -1.997168 0.000000 
0.117890 -1.974462 0.000000 
0.145749 -2.018805 0.000000 
0.201664 -2.005331 0.000000 
0.225992 -2.057448 0.000000 
0.278030 -2.051581 0.000000 
0.296791 -2.111524 0.000000 
0.344206 -2.111531 0.000000 
VECTORS X_EC float 
0.338794 0.494648 0.000000 
-0.609100 -0.424101 0.000000 
0.713312 -0.312960 0.000000 
0.374519 -0.932389 0.000000 
0.423588 0.710880 0.000000 
-0.218274 0.744984 0.000000 
-0.513962 0.020745 0.000000 
0.756418 0.232231 0.000000 
0.381900 -0.310161 0.000000 
-0.550868 -0.141723 0.000000 
0.823577 -0.130927 0.000000 
0.556234 -0.904432 0.000000 
-0.139443 -0.786863 0.000000 
-0.484677 0.575013 0.000000 
0.766286 0.840228 0.000000 
0.384386 0.325608 0.000000 
0.474677 -0.994326 0.000000 
-0.141715 -0.994423 0.000000 
-0.385608 0.196349 0.000000 
0.937896 0.275545 0.000000 
0.621631 -0.428035 0.000000 
-0.105264 -0.246136 0.000000 
-0.467428 -0.844762 0.000000 
0.771260 -0.538234 0.000000 
0.386873 0.961377 0.000000 
0.761262 -0.955218 0.000000 
0.108997 -0.673994 0.000000 
-0.397202 0.845320 0.000000 
-0.142083 0.184044 0.000000 
-0.595857 -0.375110 0.000000 
0.978194 -0.874596 0.000000 
-0.660903 0.433779 0.000000 
0.724964 -0.026741 0.000000 
0.899809 -0.668990 0.000000 
0.685670 -0.074241 0.000000 
0.287306 -0.575026 0.000000 
0.702895 0.725835 0.000000 
0.180633 0.234316 0.000000 
0.445811 -0.443844 0.000000 
-0.220880 -0.886630 0.000000 
-0.071546 0.482445 0.000000 
-0.032967 0.226929 0.000000 
-0.417340 -0.273433 0.000000 
0.039645 -0.975698 0.000000 
-0.441768 0.524431 0.000000 
-0.109248 -0.171020 0.000000 
-0.699407 -0.647776 0.000000 
-0.474522 0.684945 0.000000 
0.820030 0.257952 0.000000 
0.957100 -0.366120 0.000000 
0.610730 -0.269934 0.000000 
-0.759888 0.998094 0.000000 
-0.713939 0.288274 0.000000 
-0.057335 0.083494 0.000000 
-0.178729 0.240281 0.000000 
-0.067472 -0.419858 0.000000 
0.677710 -0.558920 0.000000 
0.641890 0.655606 0.000000 
-0.765711 0.397496 0.000000 
0.399280 -0.537717 0.000000 
0.520321 0.831065 0.000000 
-0.693186 0.730011 0.000000 
-0.647814 -0.000276 0.000000 
0.029964 -0.207616 0.000000 
-0.053321 0.975310 0.000000 
0.514861 0.703471 0.000000 
-0.950722 0.683157 0.000000 
-0.851548 0.064319 0.000000 
-0.042779 0.004057 0.000000 
0.000333 -0.700488 0.000000 
0.732479 -0.864450 0.000000 
0.720363 0.359274 0.000000 
-0.637685 0.126245 0.000000 
-0.759512 -0.712776 0.000000 
-0.204855 -0.990145 0.000000 
0.000000 0.034962 0.000000 
-0.564887 -0.663700 0.000000 
0.000000 0.930150 0.000000 
0.564887 -0.663700 0.000000 
0.865669 0.588945 0.000000 
-0.569884 0.267414 0.000000 
0.000000 0.790290 0.000000 
0.569885 0.267414 0.000000 
-0.865669 0.588945 0.000000 
0.289835 -0.209764 0.000000 
0.857468 -0.487968 0.000000 
-0.575922 0.044530 0.000000 
0.000000 -0.343163 0.000000 
0.575922 0.044530 0.000000 
-0.857468 -0.487968 0.000000 
-0.289835 -0.209764 0.000000 
-0.333330 0.989977 0.000000 
0.259365 0.694803 0.000000 
0.810085 -0.583897 0.000000 
-0.574410 0.886499 0.000000 
0.000000 0.023541 0.000000 
0.574410 0.886499 0.000000 
-0.810085 -0.583897 0.000000 
-0.259365 0.694803 0.000000 
0.333330 0.989977 0.000000 
-0.610730 -0.269934 0.000000 
0.057335 0.083494 0.000000 
0.713939 0.288274 0.000000 
0.759888 0.998094 0.000000 
0.765711 0.397496 0.000000 
-0.641890 0.655606 0.000000 
-0.677710 -0.558920 0.000000 
0.067472 -0.419858 0.000000 
0.178729 0.240281 0.000000 
-0.514861 0.703471 0.000000 
0.053321 0.975310 0.000000 
-0.029964 -0.207616 0.000000 
0.647814 -0.000276 0.000000 
0.693186 0.730011 0.000000 
-0.520321 0.831065 0.000000 
-0.399280 -0.537717 0.000000 
0.204855 -0.990145 0.000000 
0.759512 -0.712776 0.000000 
0.637685 0.126245 0.000000 
-0.720363 0.359274 0.000000 
-0.732479 -0.864450 0.000000 
-0.000333 -0.700488 0.000000 
0.042779 0.004057 0.000000 
0.851548 0.064319 0.000000 
0.950722 0.683157 0.000000 
-0.761262 -0.955218 0.000000 
0.142083 0.184044 0.000000 
0.397202 0.845320 0.000000 
-0.108997 -0.673994 0.000000 
-0.899809 -0.668990 0.000000 
-0.724964 -0.026741 0.000000 
0.660903 0.433779 0.000000 
-0.978194 -0.874596 0.000000 
0.595857 -0.375110 0.000000 
0.071546 0.482445 0.000000 
0.220880 -0.886630 0.000000 
-0.445811 -0.443844 0.000000 
-0.180633 0.234316 0.000000 
-0.702895 0.725835 0.000000 
-0.287306 -0.575026 0.000000 
-0.685670 -0.074241 0.000000 
-0.957100 -0.366120 0.000000 
-0.820030 0.257952 0.000000 
0.474522 0.684945 0.000000 
0.699407 -0.647776 0.000000 
0.109248 -0.171020 0.000000 
0.441768 0.524431 0.000000 
-0.039645 -0.975698 0.000000 
0.417340 -0.273433 0.000000 
0.032967 0.226929 0.000000 
-0.338794 0.494648 0.000000 
-0.374519 -0.932389 0.000000 
-0.713312 -0.312960 0.000000 
0.609100 -0.424101 0.000000 
-0.381900 -0.310161 0.000000 
-0.756418 0.232231 0.000000 
0.513962 0.020745 0.000000 
0.218274 0.744984 0.000000 
-0.423588 0.710880 0.000000 
-0.384386 0.325608 0.000000 
-0.766286 0.840228 0.000000 
0.484677 0.575013 0.000000 
0.139443 -0.786863 0.000000 
-0.556234 -0.904432 0.000000 
-0.823577 -0.130927 0.000000 
0.550868 -0.141723 0.000000 
-0.386873 0.961377 0.000000 
-0.771260 -0.538234 0.000000 
0.467428 -0.844762 0.000000 
0.105264 -0.246136 0.000000 
-0.621631 -0.428035 0.000000 
-0.937896 0.275545 0.000000 
0.385608 0.196349 0.000000 
0.141715 -0.994423 0.000000 
-0.474677 -0.994326 0.000000 
CELL_DATA 175 
SCALARS MASS float 
LOOKUP_TABLE default 
0.781831 
0.864274 
0.946717 
0.864274 
0.881307 
0.921110 
0.858535 
0.921110 
0.881307 
0.887046 
0.910001 
0.869829 
0.915556 
0.869829 
0.910001 
0.887046 
0.892784 
0.915740 
0.892784 
0.927218 
0.892784 
0.927218 
0.892784 
0.915740 
0.892784 
0.781831 
0.864274 
0.946717 
0.864274 
0.881307 
0.921110 
0.858535 
0.921110 
0.881307 
0.887046 
0.910001 
0.869829 
0.915556 
0.869829 
0.910001 
0.887046 
0.892784 
0.915740 
0.892784 
0.927218 
0.892784 
0.927218 
0.892784 
0.915740 
0.892784 
0.781831 
0.864274 
0.946717 
0.864274 
0.881307 
0.921110 
0.858535 
0.921110 
0.881307 
0.887046 
0.910001 
0.869829 
0.915556 
0.869829 
0.910001 
0.887046 
0.892784 
0.915740 
0.892784 
0.927218 
0.892784 
0.927218 
0.892784 
0.915740 
0.892784 
0.781831 
0.864274 
0.946717 
0.864274 
0.881307 
0.921110 
0.858535 
0.921110 
0.881307 
0.887046 
0.910001 
0.869829 
0.915556 
0.869829 
0.910001 
0.887046 
0.892784 
0.915740 
0.892784 
0.927218 
0.892784 
0.927218 
0.892784 
0.915740 
0.892784 
0.781831 
0.864274 
0.946717 
0.864274 
0.881307 
0.921110 
0.858535 
0.921110 
0.881307 
0.887046 
0.910001 
0.869829 
0.915556 
0.869829 
0.910001 
0.887046 
0.892784 
0.915740 
0.892784 
0.927218 
0.892784 
0.927218 
0.892784 
0.915740 
0.892784 
0.781831 
0.864274 
0.946717 
0.864274 
0.881307 
0.921110 
0.858535 
0.921110 
0.881307 
0.887046 
0.910001 
0.869829 
0.915556 
0.869829 
0.910001 
0.887046 
0.892784 
0.915740 
0.892784 
0.927218 
0.892784 
0.927218 
0.892784 
0.915740 
0.892784 
0.781831 
0.864274 
0.946717 
0.864274 
0.881307 
0.921110 
0.858535 
0.921110 
0.881307 
0.887046 
0.910001 
0.869829 
0.915556 
0.869829 
0.910001 
0.887046 
0.892784 
0.915740 
0.892784 
0.927218 
0.892784 
0.927218 
0.892784 
0.915740 
0.892784 
SCALARS MASS float 
LOOKUP_TABLE default 
0.781831 
0.864274 
0.946717 
0.864274 
0.881307 
0.921110 
0.858535 
0.921110 
0.881307 
0.887046 
0.910001 
0.869829 
0.915556 
0.869829 
0.910001 
0.887046 
0.892784 
0.915740 
0.892784 
0.927218 
0.892784 
0.927218 
0.892784 
0.915740 
0.892784 
0.781831 
0.864274 
0.946717 
0.864274 
0.881307 
0.921110 
0.858535 
0.921110 
0.881307 
0.887046 
0.910001 
0.869829 
0.915556 
0.869829 
0.910001 
0.887046 
0.892784 
0.915740 
0.892784 
0.927218 
0.892784 
0.927218 
0.892784 
0.915740 
0.892784 
0.781831 
0.864274 
0.946717 
0.864274 
0.881307 
0.921110 
0.858535 
0.921110 
0.881307 
0.887046 
0.910001 
0.869829 
0.915556 
0.869829 
0.910001 
0.887046 
0.892784 
0.915740 
0.892784 
0.927218 
0.892784 
0.927218 
0.892784 
0.915740 
0.892784 
0.781831 
0.864274 
0.946717 
0.864274 
0.881307 
0.921110 
0.858535 
0.921110 
0.881307 
0.887046 
0.910001 
0.869829 
0.915556 
0.869829 
0.910001 
0.887046 
0.892784 
0.915740 
0.892784 
0.927218 
0.892784 
0.927218 
0.892784 
0.915740 
0.892784 
0.781831 
0.864274 
0.946717 
0.864274 
0.881307 
0.921110 
0.858535 
0.921110 
0.881307 
0.887046 
0.910001 
0.869829 
0.915556 
0.869829 
0.910001 
0.887046 
0.892784 
0.915740 
0.892784 
0.927218 
0.892784 
0.927218 
0.892784 
0.915740 
0.892784 
0.781831 
0.864274 
0.946717 
0.864274 
0.881307 
0.921110 
0.858535 
0.921110 
0.881307 
0.887046 
0.910001 
0.869829 
0.915556 
0.869829 
0.910001 
0.887046 
0.892784 
0.915740 
0.892784 
0.927218 
0.892784 
0.927218 
0.892784 
0.915740 
0.892784 
0.781831 
0.864274 
0.946717 
0.864274 
0.881307 
0.921110 
0.858535 
0.921110 
0.881307 
0.887046 
0.910001 
0.869829 
0.915556 
0.869829 
0.910001 
0.887046 
0.892784 
0.915740 
0.892784 
0.927218 
0.892784 
0.927218 
0.892784 
0.915740 
0.892784 
SCALARS DENSITY float 
LOOKUP_TABLE default 
200.000000 
200.000000 
200.000000 
200.000000 
200.000000 
200.000000 
200.000000 
200.000000 
200.000000 
200.000000 
200.000000 
200.000000 
200.000000 
200.000000 
200.000000 
200.000000 
200.000000 
200.000000 
200.000000 
200.000000 
200.000000 
200.000000 
200.000000 
200.000000 
200.000000 
200.000000 
200.000000 
200.000000 
200.000000 
200.000000 
200.000000 
200.000000 
200.000000 
200.000000 
200.000000 
200.000000 
200.000000 
200.000000 
200.000000 
200.000000 
200.000000 
200.000000 
200.000000 
200.000000 
200.000000 
200.000000 
200.000000 
200.000000 
200.000000 
200.000000 
200.000000 
200.000000 
200.000000 
200.000000 
200.188105 
200.298975 
200.168462 
200.000000 
200.000000 
199.588136 
199.918145 
200.437609 
200.289174 
200.199657 
200.000000 
200.000000 
201.819766 
201.499936 
201.196476 
200.861130 
200.416884 
200.263178 
200.058001 
200.013995 
200.000000 
200.000000 
200.564353 
200.000000 
200.564353 
200.264237 
200.476586 
200.427333 
200.476586 
200.264237 
198.728106 
198.386728 
198.330344 
198.490149 
198.330344 
198.386728 
198.728106 
198.508811 
198.158583 
268.620583 
197.984171 
270.057493 
197.984171 
268.620583 
198.158583 
198.508811 
200.000000 
200.000000 
200.000000 
200.000000 
200.000000 
200.000000 
200.168462 
200.298975 
200.188105 
200.000000 
200.000000 
200.199657 
200.289174 
200.437609 
199.918144 
199.588135 
200.000000 
200.013995 
200.058001 
200.263178 
200.416884 
200.861130 
201.196476 
201.499936 
201.819766 
200.000000 
200.000000 
200.000000 
200.000000 
200.000000 
200.000000 
200.000000 
200.000000 
200.000000 
200.000000 
200.000000 
200.000000 
200.000000 
200.000000 
200.000000 
200.000000 
200.000000 
200.000000 
200.000000 
200.000000 
200.000000 
200.000000 
200.000000 
200.000000 
200.000000 
200.000000 
200.000000 
200.000000 
200.000000 
200.000000 
200.000000 
200.000000 
200.000000 
200.000000 
200.000000 
200.000000 
200.000000 
200.000000 
200.000000 
200.000000 
200.000000 
200.000000 
200.000000 
200.000000 
200.000000 
200.000000 
200.000000 
200.000000 
200.000000 
200.000000 
SCALARS ELEM_i float 
LOOKUP_TABLE default 
166 
193 
166 
166 
194 
194 
194 
167 
167 
221 
194 
194 
194 
195 
168 
168 
221 
221 
222 
195 
195 
195 
195 
168 
169 
165 
192 
193 
193 
219 
192 
220 
193 
193 
219 
219 
220 
220 
220 
220 
221 
246 
246 
246 
247 
247 
247 
248 
221 
221 
165 
192 
192 
192 
191 
191 
191 
192 
219 
190 
191 
218 
218 
218 
219 
219 
217 
217 
217 
217 
217 
218 
245 
245 
245 
165 
164 
165 
164 
137 
164 
164 
164 
191 
136 
136 
163 
163 
163 
190 
190 
136 
136 
135 
163 
162 
163 
189 
190 
190 
165 
138 
138 
138 
111 
138 
137 
137 
137 
111 
111 
110 
110 
110 
137 
136 
83 
83 
83 
110 
109 
109 
109 
109 
109 
165 
139 
139 
138 
139 
139 
112 
138 
111 
113 
112 
112 
112 
112 
111 
111 
113 
113 
86 
85 
85 
85 
84 
84 
84 
166 
166 
166 
139 
167 
167 
140 
140 
140 
168 
168 
141 
140 
140 
140 
113 
169 
168 
141 
141 
141 
141 
114 
113 
113 
VECTORS VELOCITY float 
-0.000000 -6.886620 0.000000 
-0.000000 -6.886620 0.000000 
-0.000000 -6.886620 0.000000 
-0.000000 -6.886620 0.000000 
-0.000000 -6.886620 0.000000 
-0.000000 -6.886620 0.000000 
-0.000000 -6.886620 0.000000 
-0.000000 -6.886620 0.000000 
-0.000000 -6.886620 0.000000 
0.000000 -6.886620 0.000000 
0.000000 -6.886620 0.000000 
-0.000000 -6.886620 0.000000 
-0.000000 -6.886620 0.000000 
0.000000 -6.886620 0.000000 
0.000000 -6.886620 0.000000 
0.000000 -6.886620 0.000000 
0.000000 -6.886620 0.000000 
-0.000000 -6.886620 0.000000 
0.000000 -6.886620 0.000000 
-0.000000 -6.886620 0.000000 
0.000000 -6.886620 0.000000 
0.000000 -6.886620 0.000000 
0.000000 -6.886620 0.000000 
0.000000 -6.886620 0.000000 
-0.000000 -6.886620 0.000000 
-0.000000 -6.886620 0.000000 
-0.002118 -6.880972 0.000000 
0.000000 -6.886620 0.000000 
-0.000000 -6.886620 0.000000 
-0.003052 -6.872577 0.000000 
0.000000 -6.886620 0.000000 
0.000000 -6.886620 0.000000 
0.000000 -6.886620 0.000000 
0.000000 -6.886620 0.000000 
-0.011003 -6.865779 0.000000 
-0.002967 -6.879603 0.000000 
-0.000000 -6.886620 0.000000 
-0.000000 -6.886620 0.000000 
0.000000 -6.886620 0.000000 
0.000000 -6.886620 0.000000 
0.000000 -6.886620 0.000000 
-0.012662 -6.870158 0.000000 
-0.007576 -6.875618 0.000000 
-0.000000 -6.886620 0.000000 
-0.000000 -6.886620 0.000000 
-0.000000 -6.886620 0.000000 
0.000000 -6.886620 0.000000 
-0.000000 -6.886620 0.000000 
0.000000 -6.886620 0.000000 
0.000000 -6.886620 0.000000 
-0.009435 -6.859852 0.000000 
-0.046286 -6.800935 0.000000 
-0.027543 -6.834907 0.000000 
-0.015364 -6.849231 0.000000 
0.050707 -7.034308 0.000000 
0.002135 -6.883088 0.000000 
0.023018 -6.834043 0.000000 
-0.012853 -6.833619 0.000000 
-0.007150 -6.847246 0.000000 
-0.009246 -6.846355 0.000000 
0.212312 -6.977715 0.000000 
0.183785 -6.844823 0.000000 
0.084072 -6.833967 0.000000 
-0.020886 -6.830558 0.000000 
-0.018438 -6.832268 0.000000 
-0.020966 -6.843097 0.000000 
-2.537107 -6.732673 0.000000 
-1.291202 -6.829528 0.000000 
-1.228151 -7.002873 0.000000 
-0.132965 -6.869554 0.000000 
-0.265090 -6.829043 0.000000 
-0.169673 -6.829705 0.000000 
-0.166075 -6.840425 0.000000 
-0.046945 -6.837697 0.000000 
-0.023696 -6.854069 0.000000 
0.000000 -6.844852 0.000000 
0.030673 -6.843489 0.000000 
0.000000 -6.800813 0.000000 
-0.030673 -6.843489 0.000000 
0.016552 -7.265119 0.000000 
0.022795 -7.178960 0.000000 
0.000000 -7.367347 0.000000 
-0.022795 -7.178960 0.000000 
-0.016552 -7.265119 0.000000 
0.167409 -6.154321 0.000000 
-0.046993 -6.686922 0.000000 
-0.127290 -4.943716 0.000000 
0.000000 -6.203479 0.000000 
0.127290 -4.943716 0.000000 
0.046993 -6.686922 0.000000 
-0.167409 -6.154321 0.000000 
1.919562 -5.059966 0.000000 
0.705539 -4.296471 0.000000 
1.105689 -8.602392 0.000000 
-0.272721 -2.207834 0.000000 
-0.000000 -28.545509 0.000000 
0.272721 -2.207834 0.000000 
-1.105689 -8.602392 0.000000 
-0.705539 -4.296471 0.000000 
-1.919562 -5.059966 0.000000 
0.009435 -6.859852 0.000000 
0.015364 -6.849231 0.000000 
0.027543 -6.834907 0.000000 
0.046286 -6.800935 0.000000 
0.007150 -6.847246 0.000000 
0.012853 -6.833619 0.000000 
-0.023018 -6.834043 0.000000 
-0.002135 -6.883088 0.000000 
-0.050707 -7.034308 0.000000 
0.020966 -6.843097 0.000000 
0.018438 -6.832268 0.000000 
0.020886 -6.830558 0.000000 
-0.084072 -6.833967 0.000000 
-0.183785 -6.844823 0.000000 
-0.212312 -6.977715 0.000000 
0.009246 -6.846355 0.000000 
0.023696 -6.854069 0.000000 
0.046945 -6.837697 0.000000 
0.166075 -6.840425 0.000000 
0.169673 -6.829705 0.000000 
0.265090 -6.829043 0.000000 
0.132965 -6.869554 0.000000 
1.228151 -7.002873 0.000000 
1.291202 -6.829528 0.000000 
2.537107 -6.732673 0.000000 
0.000000 -6.886620 0.000000 
0.000000 -6.886620 0.000000 
0.000000 -6.886620 0.000000 
0.002118 -6.880972 0.000000 
-0.000000 -6.886620 0.000000 
0.000000 -6.886620 0.000000 
0.000000 -6.886620 0.000000 
0.000000 -6.886620 0.000000 
0.003052 -6.872577 0.000000 
-0.000000 -6.886620 0.000000 
-0.000000 -6.886620 0.000000 
0.000000 -6.886620 0.000000 
0.000000 -6.886620 0.000000 
0.000000 -6.886620 0.000000 
0.002967 -6.879602 0.000000 
0.011003 -6.865779 0.000000 
-0.000000 -6.886620 0.000000 
0.000000 -6.886620 0.000000 
-0.000000 -6.886620 0.000000 
0.000000 -6.886620 0.000000 
-0.000000 -6.886620 0.000000 
-0.000000 -6.886620 0.000000 
-0.000000 -6.886620 0.000000 
0.007576 -6.875618 0.000000 
0.012662 -6.870158 0.000000 
0.000000 -6.886620 0.000000 
0.000000 -6.886620 0.000000 
0.000000 -6.886620 0.000000 
0.000000 -6.886620 0.000000 
0.000000 -6.886620 0.000000 
0.000000 -6.886620 0.000000 
0.000000 -6.886620 0.000000 
0.000000 -6.886620 0.000000 
-0.000000 -6.886620 0.000000 
-0.000000 -6.886620 0.000000 
-0.000000 -6.886620 0.000000 
-0.000000 -6.886620 0.000000 
0.000000 -6.886620 0.000000 
0.000000 -6.886620 0.000000 
-0.000000 -6.886620 0.000000 
-0.000000 -6.886620 0.000000 
-0.000000 -6.886620 0.000000 
-0.000000 -6.886620 0.000000 
-0.000000 -6.886620 0.000000 
-0.000000 -6.886620 0.000000 
-0.000000 -6.886620 0.000000 
0.000000 -6.886620 0.000000 
0.000000 -6.886620 0.000000 
0.000000 -6.886620 0.000000 
0.000000 -6.886620 0.000000 
TENSORS STRESS float 
0.000000 -0.000000 0.000000 
0.000000 0.000000 0.000000 
0.000000 0.000000 0.000000 

-0.000000 -0.000000 0.000000 
0.000000 -0.000000 0.000000 
0.000000 0.000000 0.000000 

-0.000000 0.000000 0.000000 
0.000000 -0.000000 0.000000 
0.000000 0.000000 0.000000 

-0.000000 -0.000000 0.000000 
0.000000 -0.000000 0.000000 
0.000000 0.000000 0.000000 

-0.000000 -0.000000 0.000000 
0.000000 -0.000000 0.000000 
0.000000 0.000000 0.000000 

-0.000000 0.000000 0.000000 
0.000000 -0.000000 0.000000 
0.000000 0.000000 0.000000 

0.000000 0.000000 0.000000 
0.000000 0.000000 0.000000 
0.000000 0.000000 0.000000 

0.000000 0.000000 0.000000 
0.000000 0.000000 0.000000 
0.000000 0.000000 0.000000 

-0.000000 0.000000 0.000000 
0.000000 -0.000000 0.000000 
0.000000 0.000000 0.000000 

0.000000 -0.000000 0.000000 
0.000000 0.000000 0.000000 
0.000000 0.000000 0.000000 

0.000000 -0.000000 0.000000 