# vtk DataFile Version 3.0 
vtk output 
ASCII 
DATASET UNSTRUCTURED_GRID 
POINTS 4411 float 
0.024749 0.000246 0.000000 
0.024744 0.000739 0.000000 
0.024728 0.001232 0.000000 
0.024703 0.001724 0.000000 
0.024665 0.002217 0.000000 
0.024615 0.002710 0.000000 
0.024556 0.003204 0.000000 
0.024487 0.003695 0.000000 
0.024411 0.004183 0.000000 
0.024326 0.004667 0.000000 
0.024231 0.005150 0.000000 
0.024127 0.005629 0.000000 
0.024012 0.006108 0.000000 
0.023887 0.006584 0.000000 
0.023752 0.007058 0.000000 
0.023606 0.007529 0.000000 
0.023450 0.007997 0.000000 
0.023286 0.008462 0.000000 
0.023113 0.008925 0.000000 
0.022931 0.009384 0.000000 
0.022740 0.009839 0.000000 
0.022540 0.010290 0.000000 
0.022333 0.010734 0.000000 
0.022116 0.011170 0.000000 
0.021891 0.011601 0.000000 
0.021656 0.012026 0.000000 
0.021412 0.012448 0.000000 
0.021159 0.012868 0.000000 
0.020898 0.013286 0.000000 
0.020630 0.013700 0.000000 
0.020352 0.014107 0.000000 
0.020065 0.014508 0.000000 
0.019772 0.014903 0.000000 
0.019471 0.015295 0.000000 
0.019162 0.015680 0.000000 
0.018846 0.016061 0.000000 
-0.024750 0.000247 0.000000 
-0.024743 0.000742 0.000000 
-0.024728 0.001234 0.000000 
-0.024702 0.001724 0.000000 
-0.024663 0.002213 0.000000 
-0.024614 0.002702 0.000000 
-0.024557 0.003190 0.000000 
-0.024489 0.003677 0.000000 
-0.024410 0.004164 0.000000 
-0.024322 0.004649 0.000000 
-0.024224 0.005132 0.000000 
-0.024116 0.005612 0.000000 
-0.023999 0.006090 0.000000 
-0.023872 0.006567 0.000000 
-0.023738 0.007041 0.000000 
-0.023594 0.007511 0.000000 
-0.023442 0.007978 0.000000 
-0.023280 0.008441 0.000000 
-0.023108 0.008901 0.000000 
-0.022927 0.009357 0.000000 
-0.022738 0.009810 0.000000 
-0.022540 0.010258 0.000000 
-0.022333 0.010704 0.000000 
-0.022116 0.011145 0.000000 
-0.021892 0.011581 0.000000 
-0.021658 0.012012 0.000000 
-0.021416 0.012440 0.000000 
-0.021165 0.012861 0.000000 
-0.020906 0.013279 0.000000 
-0.020639 0.013690 0.000000 
-0.020363 0.014097 0.000000 
-0.020079 0.014499 0.000000 
-0.019786 0.014896 0.000000 
-0.019485 0.015286 0.000000 
-0.019175 0.015670 0.000000 
-0.018858 0.016049 0.000000 
-0.018533 0.016421 0.000000 
-0.018202 0.016787 0.000000 
-0.017863 0.017146 0.000000 
-0.017516 0.017499 0.000000 
-0.017162 0.017845 0.000000 
-0.016802 0.018184 0.000000 
-0.016437 0.018516 0.000000 
-0.016065 0.018840 0.000000 
-0.015689 0.019157 0.000000 
-0.015306 0.019466 0.000000 
-0.014918 0.019766 0.000000 
-0.014523 0.020059 0.000000 
-0.014122 0.020343 0.000000 
-0.013716 0.020618 0.000000 
-0.013304 0.020886 0.000000 
-0.012886 0.021145 0.000000 
-0.012462 0.021397 0.000000 
-0.012032 0.021639 0.000000 
-0.011598 0.021873 0.000000 
-0.011159 0.022101 0.000000 
-0.010716 0.022320 0.000000 
-0.010269 0.022531 0.000000 
-0.009818 0.022733 0.000000 
-0.009364 0.022924 0.000000 
-0.008904 0.023106 0.000000 
-0.008441 0.023277 0.000000 
-0.007976 0.023439 0.000000 
-0.007506 0.023593 0.000000 
-0.007034 0.023737 0.000000 
-0.006561 0.023874 0.000000 
-0.006085 0.024002 0.000000 
-0.005608 0.024118 0.000000 
-0.005129 0.024225 0.000000 
-0.004649 0.024322 0.000000 
-0.004168 0.024410 0.000000 
-0.003683 0.024487 0.000000 
-0.003196 0.024555 0.000000 
-0.002708 0.024612 0.000000 
-0.002217 0.024659 0.000000 
-0.001723 0.024694 0.000000 
-0.001228 0.024721 0.000000 
-0.000732 0.024740 0.000000 
-0.000235 0.024749 0.000000 
0.000260 0.024749 0.000000 
0.000754 0.024742 0.000000 
0.001244 0.024728 0.000000 
0.001734 0.024702 0.000000 
0.002224 0.024664 0.000000 
0.002712 0.024616 0.000000 
0.003199 0.024558 0.000000 
0.003686 0.024490 0.000000 
0.004172 0.024413 0.000000 
0.004656 0.024324 0.000000 
0.005138 0.024225 0.000000 
0.005617 0.024117 0.000000 
0.006097 0.023997 0.000000 
0.006575 0.023869 0.000000 
0.007048 0.023736 0.000000 
0.007519 0.023594 0.000000 
0.007986 0.023443 0.000000 
0.008448 0.023283 0.000000 
0.008906 0.023114 0.000000 
0.009360 0.022936 0.000000 
0.009809 0.022747 0.000000 
0.010255 0.022549 0.000000 
0.010696 0.022341 0.000000 
0.011135 0.022123 0.000000 
0.011569 0.021897 0.000000 
0.011999 0.021662 0.000000 
0.012427 0.021417 0.000000 
0.012851 0.021164 0.000000 
0.013270 0.020905 0.000000 
0.013684 0.020638 0.000000 
0.014091 0.020362 0.000000 
0.014493 0.020076 0.000000 
0.014890 0.019782 0.000000 
0.015282 0.019481 0.000000 
0.018523 0.016436 0.000000 
0.018193 0.016802 0.000000 
0.017854 0.017162 0.000000 
0.017508 0.017514 0.000000 
0.017155 0.017861 0.000000 
0.016794 0.018199 0.000000 
0.016425 0.018531 0.000000 
0.016050 0.018855 0.000000 
0.015669 0.019171 0.000000 
0.024252 0.000244 0.000000 
-0.024253 0.000246 0.000000 
0.023754 0.000242 0.000000 
-0.023755 0.000244 0.000000 
0.023256 0.000243 0.000000 
-0.023259 0.000245 0.000000 
0.022756 0.000246 0.000000 
-0.022761 0.000247 0.000000 
0.022251 0.000252 0.000000 
-0.022263 0.000249 0.000000 
0.021744 0.000255 0.000000 
-0.021764 0.000253 0.000000 
0.021237 0.000254 0.000000 
-0.021264 0.000256 0.000000 
0.020736 0.000250 0.000000 
-0.020761 0.000259 0.000000 
0.020239 0.000244 0.000000 
-0.020258 0.000261 0.000000 
0.019746 0.000239 0.000000 
-0.019756 0.000262 0.000000 
0.019252 0.000235 0.000000 
-0.019253 0.000261 0.000000 
0.018758 0.000234 0.000000 
-0.018750 0.000260 0.000000 
0.018262 0.000234 0.000000 
-0.018247 0.000259 0.000000 
0.017763 0.000236 0.000000 
-0.017743 0.000258 0.000000 
0.017260 0.000239 0.000000 
-0.017240 0.000258 0.000000 
0.016754 0.000240 0.000000 
-0.016738 0.000256 0.000000 
0.016249 0.000240 0.000000 
-0.016237 0.000254 0.000000 
0.015744 0.000239 0.000000 
-0.015735 0.000252 0.000000 
0.015244 0.000239 0.000000 
-0.015233 0.000251 0.000000 
0.014746 0.000242 0.000000 
-0.014733 0.000251 0.000000 
0.014247 0.000246 0.000000 
-0.014234 0.000251 0.000000 
0.013745 0.000248 0.000000 
-0.013736 0.000250 0.000000 
0.013243 0.000251 0.000000 
-0.013241 0.000249 0.000000 
0.012741 0.000254 0.000000 
-0.012744 0.000248 0.000000 
0.012236 0.000256 0.000000 
-0.012250 0.000245 0.000000 
0.011732 0.000255 0.000000 
-0.011757 0.000244 0.000000 
0.011228 0.000255 0.000000 
-0.011265 0.000244 0.000000 
0.010723 0.000252 0.000000 
-0.010774 0.000244 0.000000 
0.010218 0.000248 0.000000 
-0.010283 0.000244 0.000000 
0.009715 0.000243 0.000000 
-0.009788 0.000245 0.000000 
0.009214 0.000238 0.000000 
-0.009289 0.000248 0.000000 
0.008717 0.000230 0.000000 
-0.008790 0.000248 0.000000 
0.008225 0.000225 0.000000 
-0.008290 0.000247 0.000000 
0.007734 0.000228 0.000000 
-0.007790 0.000246 0.000000 
0.007241 0.000236 0.000000 
-0.007289 0.000245 0.000000 
0.006741 0.000243 0.000000 
-0.006789 0.000241 0.000000 
0.006237 0.000249 0.000000 
-0.006289 0.000240 0.000000 
0.005734 0.000252 0.000000 
-0.005788 0.000240 0.000000 
0.005232 0.000254 0.000000 
-0.005285 0.000241 0.000000 
0.004729 0.000256 0.000000 
-0.004779 0.000244 0.000000 
0.004226 0.000256 0.000000 
-0.004272 0.000247 0.000000 
0.003724 0.000254 0.000000 
-0.003766 0.000249 0.000000 
0.003224 0.000251 0.000000 
-0.003261 0.000249 0.000000 
0.002726 0.000250 0.000000 
-0.002757 0.000249 0.000000 
0.002230 0.000247 0.000000 
-0.002254 0.000249 0.000000 
0.001736 0.000244 0.000000 
-0.001751 0.000248 0.000000 
0.001240 0.000243 0.000000 
-0.001246 0.000246 0.000000 
0.000746 0.000241 0.000000 
-0.000745 0.000244 0.000000 
0.000250 0.000241 0.000000 
-0.000247 0.000243 0.000000 
0.024252 0.000731 0.000000 
0.023760 0.000727 0.000000 
0.023267 0.000727 0.000000 
-0.024253 0.000735 0.000000 
0.022767 0.000737 0.000000 
0.022254 0.000761 0.000000 
0.024245 0.001217 0.000000 
0.021734 0.000771 0.000000 
0.021213 0.000761 0.000000 
0.020708 0.000748 0.000000 
0.020216 0.000731 0.000000 
0.019733 0.000717 0.000000 
0.019251 0.000707 0.000000 
-0.024246 0.001220 0.000000 
-0.023763 0.000732 0.000000 
-0.023272 0.000732 0.000000 
-0.022781 0.000736 0.000000 
-0.022288 0.000744 0.000000 
-0.021794 0.000753 0.000000 
-0.021293 0.000763 0.000000 
-0.020787 0.000772 0.000000 
-0.020278 0.000780 0.000000 
-0.019770 0.000782 0.000000 
-0.019261 0.000782 0.000000 
-0.018751 0.000779 0.000000 
-0.018242 0.000775 0.000000 
-0.017732 0.000774 0.000000 
-0.017223 0.000771 0.000000 
-0.016717 0.000767 0.000000 
-0.016212 0.000760 0.000000 
-0.015708 0.000753 0.000000 
-0.015205 0.000750 0.000000 
-0.014706 0.000748 0.000000 
-0.014208 0.000749 0.000000 
-0.013712 0.000750 0.000000 
-0.013222 0.000747 0.000000 
-0.012735 0.000741 0.000000 
-0.012254 0.000735 0.000000 
-0.011776 0.000731 0.000000 
-0.011300 0.000731 0.000000 
-0.010825 0.000732 0.000000 
-0.010347 0.000733 0.000000 
-0.009862 0.000734 0.000000 
-0.009368 0.000739 0.000000 
-0.008870 0.000740 0.000000 
-0.008371 0.000739 0.000000 
-0.007872 0.000736 0.000000 
-0.007373 0.000730 0.000000 
-0.006872 0.000725 0.000000 
0.018766 0.000705 0.000000 
-0.006370 0.000721 0.000000 
-0.005866 0.000720 0.000000 
-0.005357 0.000723 0.000000 
-0.004840 0.000729 0.000000 
-0.004320 0.000737 0.000000 
-0.003804 0.000743 0.000000 
-0.003291 0.000746 0.000000 
-0.002779 0.000747 0.000000 
-0.002269 0.000747 0.000000 
-0.001757 0.000744 0.000000 
-0.001244 0.000741 0.000000 
-0.000741 0.000737 0.000000 
-0.000246 0.000733 0.000000 
0.000245 0.000730 0.000000 
0.000731 0.000730 0.000000 
0.001218 0.000732 0.000000 
0.001704 0.000735 0.000000 
0.002189 0.000743 0.000000 
0.002680 0.000748 0.000000 
0.003175 0.000752 0.000000 
0.003675 0.000758 0.000000 
0.004182 0.000763 0.000000 
0.004691 0.000763 0.000000 
0.005199 0.000761 0.000000 
0.005707 0.000754 0.000000 
0.006218 0.000744 0.000000 
0.006732 0.000728 0.000000 
0.007235 0.000710 0.000000 
0.007711 0.000677 0.000000 
0.008177 0.000661 0.000000 
0.008645 0.000682 0.000000 
0.009135 0.000708 0.000000 
0.009639 0.000727 0.000000 
0.010150 0.000740 0.000000 
0.010665 0.000750 0.000000 
0.011179 0.000758 0.000000 
0.011691 0.000763 0.000000 
0.012206 0.000762 0.000000 
0.012721 0.000759 0.000000 
0.013230 0.000751 0.000000 
0.013734 0.000742 0.000000 
[...]
POINT_DATA 4411 
VECTORS X_GC float 
0.024749 0.000246 0.000000 
0.024744 0.000739 0.000000 
0.024728 0.001232 0.000000 
0.024703 0.001724 0.000000 
0.024665 0.002217 0.000000 
0.024615 0.002710 0.000000 
0.024556 0.003204 0.000000 
0.024487 0.003695 0.000000 
0.024411 0.004183 0.000000 
0.024326 0.004667 0.000000 
0.024231 0.005150 0.000000 
0.024127 0.005629 0.000000 
0.024012 0.006108 0.000000 
0.023887 0.006584 0.000000 
0.023752 0.007058 0.000000 
0.023606 0.007529 0.000000 
0.023450 0.007997 0.000000 
0.023286 0.008462 0.000000 
0.023113 0.008925 0.000000 
0.022931 0.009384 0.000000 
0.022740 0.009839 0.000000 
0.022540 0.010290 0.000000 
0.022333 0.010734 0.000000 
0.022116 0.011170 0.000000 
0.021891 0.011601 0.000000 
0.021656 0.012026 0.000000 
0.021412 0.012448 0.000000 
0.021159 0.012868 0.000000 
0.020898 0.013286 0.000000 
0.020630 0.013700 0.000000 
0.020352 0.014107 0.000000 
0.020065 0.014508 0.000000 
0.019772 0.014903 0.000000 
0.019471 0.015295 0.000000 
0.019162 0.015680 0.000000 
0.018846 0.016061 0.000000 
-0.024750 0.000247 0.000000 
-0.024743 0.000742 0.000000 
-0.024728 0.001234 0.000000 
-0.024702 0.001724 0.000000 
-0.024663 0.002213 0.000000 
-0.024614 0.002702 0.000000 
-0.024557 0.003190 0.000000 
-0.024489 0.003677 0.000000 
-0.024410 0.004164 0.000000 
-0.024322 0.004649 0.000000 
-0.024224 0.005132 0.000000 
-0.024116 0.005612 0.000000 
-0.023999 0.006090 0.000000 
-0.023872 0.006567 0.000000 
-0.023738 0.007041 0.000000 
-0.023594 0.007511 0.000000 
-0.023442 0.007978 0.000000 
-0.023280 0.008441 0.000000 
-0.023108 0.008901 0.000000 
-0.022927 0.009357 0.000000 
-0.022738 0.009810 0.000000 
-0.022540 0.010258 0.000000 
-0.022333 0.010704 0.000000 
-0.022116 0.011145 0.000000 
-0.021892 0.011581 0.000000 
-0.021658 0.012012 0.000000 
-0.021416 0.012440 0.000000 
-0.021165 0.012861 0.000000 
-0.020906 0.013279 0.000000 
-0.020639 0.013690 0.000000 
-0.020363 0.014097 0.000000 
-0.020079 0.014499 0.000000 
-0.019786 0.014896 0.000000 
-0.019485 0.015286 0.000000 
-0.019175 0.015670 0.000000 
-0.018858 0.016049 0.000000 
-0.018533 0.016421 0.000000 
-0.018202 0.016787 0.000000 
-0.017863 0.017146 0.000000 
-0.017516 0.017499 0.000000 
-0.017162 0.017845 0.000000 
-0.016802 0.018184 0.000000 
-0.016437 0.018516 0.000000 
-0.016065 0.018840 0.000000 
-0.015689 0.019157 0.000000 
-0.015306 0.019466 0.000000 
-0.014918 0.019766 0.000000 
-0.014523 0.020059 0.000000 
-0.014122 0.020343 0.000000 
-0.013716 0.020618 0.000000 
-0.013304 0.020886 0.000000 
-0.012886 0.021145 0.000000 
-0.012462 0.021397 0.000000 
-0.012032 0.021639 0.000000 
-0.011598 0.021873 0.000000 
-0.011159 0.022101 0.000000 
-0.010716 0.022320 0.000000 
-0.010269 0.022531 0.000000 
-0.009818 0.022733 0.000000 
-0.009364 0.022924 0.000000 
-0.008904 0.023106 0.000000 
-0.008441 0.023277 0.000000 
-0.007976 0.023439 0.000000 
-0.007506 0.023593 0.000000 
-0.007034 0.023737 0.000000 
-0.006561 0.023874 0.000000 
-0.006085 0.024002 0.000000 
-0.005608 0.024118 0.000000 
-0.005129 0.024225 0.000000 
-0.004649 0.024322 0.000000 
-0.004168 0.024410 0.000000 
-0.003683 0.024487 0.000000 
-0.003196 0.024555 0.000000 
-0.002708 0.024612 0.000000 
-0.002217 0.024659 0.000000 
-0.001723 0.024694 0.000000 
-0.001228 0.024721 0.000000 
-0.000732 0.024740 0.000000 
-0.000235 0.024749 0.000000 
0.000260 0.024749 0.000000 
0.000754 0.024742 0.000000 
0.001244 0.024728 0.000000 
0.001734 0.024702 0.000000 
0.002224 0.024664 0.000000 
0.002712 0.024616 0.000000 
0.003199 0.024558 0.000000 
0.003686 0.024490 0.000000 
0.004172 0.024413 0.000000 
0.004656 0.024324 0.000000 
0.005138 0.024225 0.000000 
0.005617 0.024117 0.000000 
0.006097 0.023997 0.000000 
0.006575 0.023869 0.000000 
0.007048 0.023736 0.000000 
0.007519 0.023594 0.000000 
0.007986 0.023443 0.000000 
0.008448 0.023283 0.000000 
0.008906 0.023114 0.000000 
0.009360 0.022936 0.000000 
0.009809 0.022747 0.000000 
0.010255 0.022549 0.000000 
0.010696 0.022341 0.000000 
0.011135 0.022123 0.000000 
0.011569 0.021897 0.000000 
0.011999 0.021662 0.000000 
0.012427 0.021417 0.000000 
0.012851 0.021164 0.000000 
0.013270 0.020905 0.000000 
0.013684 0.020638 0.000000 
0.014091 0.020362 0.000000 
0.014493 0.020076 0.000000 
0.014890 0.019782 0.000000 
0.015282 0.019481 0.000000 
0.018523 0.016436 0.000000 
0.018193 0.016802 0.000000 
0.017854 0.017162 0.000000 
0.017508 0.017514 0.000000 
0.017155 0.017861 0.000000 
0.016794 0.018199 0.000000 
0.016425 0.018531 0.000000 
0.016050 0.018855 0.000000 
0.015669 0.019171 0.000000 
0.024252 0.000244 0.000000 
-0.024253 0.000246 0.000000 
0.023754 0.000242 0.000000 
-0.023755 0.000244 0.000000 
0.023256 0.000243 0.000000 
-0.023259 0.000245 0.000000 
0.022756 0.000246 0.000000 
-0.022761 0.000247 0.000000 
0.022251 0.000252 0.000000 
-0.022263 0.000249 0.000000 
0.021744 0.000255 0.000000 
-0.021764 0.000253 0.000000 
0.021237 0.000254 0.000000 
-0.021264 0.000256 0.000000 
0.020736 0.000250 0.000000 
-0.020761 0.000259 0.000000 
0.020239 0.000244 0.000000 
-0.020258 0.000261 0.000000 
0.019746 0.000239 0.000000 
-0.019756 0.000262 0.000000 
0.019252 0.000235 0.000000 
-0.019253 0.000261 0.000000 
0.018758 0.000234 0.000000 
-0.018750 0.000260 0.000000 
0.018262 0.000234 0.000000 
-0.018247 0.000259 0.000000 
0.017763 0.000236 0.000000 
-0.017743 0.000258 0.000000 
0.017260 0.000239 0.000000 
-0.017240 0.000258 0.000000 
0.016754 0.000240 0.000000 
-0.016738 0.000256 0.000000 
0.016249 0.000240 0.000000 
-0.016237 0.000254 0.000000 
0.015744 0.000239 0.000000 
-0.015735 0.000252 0.000000 
0.015244 0.000239 0.000000 
-0.015233 0.000251 0.000000 
0.014746 0.000242 0.000000 
-0.014733 0.000251 0.000000 
0.014247 0.000246 0.000000 
-0.014234 0.000251 0.000000 
0.013745 0.000248 0.000000 
-0.013736 0.000250 0.000000 
0.013243 0.000251 0.000000 
-0.013241 0.000249 0.000000 
0.012741 0.000254 0.000000 
-0.012744 0.000248 0.000000 
0.012236 0.000256 0.000000 
-0.012250 0.000245 0.000000 
0.011732 0.000255 0.000000 
-0.011757 0.000244 0.000000 
0.011228 0.000255 0.000000 
-0.011265 0.000244 0.000000 
0.010723 0.000252 0.000000 
-0.010774 0.000244 0.000000 
0.010218 0.000248 0.000000 
-0.010283 0.000244 0.000000 
0.009715 0.000243 0.000000 
-0.009788 0.000245 0.000000 
0.009214 0.000238 0.000000 
-0.009289 0.000248 0.000000 
0.008717 0.000230 0.000000 
-0.008790 0.000248 0.000000 
0.008225 0.000225 0.000000 
-0.008290 0.000247 0.000000 
0.007734 0.000228 0.000000 
-0.007790 0.000246 0.000000 
0.007241 0.000236 0.000000 
-0.007289 0.000245 0.000000 
0.006741 0.000243 0.000000 
-0.006789 0.000241 0.000000 
0.006237 0.000249 0.000000 
-0.006289 0.000240 0.000000 
0.005734 0.000252 0.000000 
-0.005788 0.000240 0.000000 
0.005232 0.000254 0.000000 
-0.005285 0.000241 0.000000 
0.004729 0.000256 0.000000 
-0.004779 0.000244 0.000000 
0.004226 0.000256 0.000000 
-0.004272 0.000247 0.000000 
0.003724 0.000254 0.000000 
-0.003766 0.000249 0.000000 
0.003224 0.000251 0.000000 
-0.003261 0.000249 0.000000 
0.002726 0.000250 0.000000 
-0.002757 0.000249 0.000000 
0.002230 0.000247 0.000000 
-0.002254 0.000249 0.000000 
0.001736 0.000244 0.000000 
-0.001751 0.000248 0.000000 
0.001240 0.000243 0.000000 
-0.001246 0.000246 0.000000 
0.000746 0.000241 0.000000 
-0.000745 0.000244 0.000000 
0.000250 0.000241 0.000000 
-0.000247 0.000243 0.000000 
0.024252 0.000731 0.000000 
0.023760 0.000727 0.000000 
0.023267 0.000727 0.000000 
-0.024253 0.000735 0.000000 
0.022767 0.000737 0.000000 
0.022254 0.000761 0.000000 
0.024245 0.001217 0.000000 
0.021734 0.000771 0.000000 
0.021213 0.000761 0.000000 
0.020708 0.000748 0.000000 
0.020216 0.000731 0.000000 
0.019733 0.000717 0.000000 
0.019251 0.000707 0.000000 
-0.024246 0.001220 0.000000 
-0.023763 0.000732 0.000000 
-0.023272 0.000732 0.000000 
-0.022781 0.000736 0.000000 
-0.022288 0.000744 0.000000 
-0.021794 0.000753 0.000000 
-0.021293 0.000763 0.000000 
-0.020787 0.000772 0.000000 
-0.020278 0.000780 0.000000 
-0.019770 0.000782 0.000000 
-0.019261 0.000782 0.000000 
-0.018751 0.000779 0.000000 
-0.018242 0.000775 0.000000 
-0.017732 0.000774 0.000000 
-0.017223 0.000771 0.000000 
-0.016717 0.000767 0.000000 
-0.016212 0.000760 0.000000 
-0.015708 0.000753 0.000000 
-0.015205 0.000750 0.000000 
-0.014706 0.000748 0.000000 
-0.014208 0.000749 0.000000 
-0.013712 0.000750 0.000000 
-0.013222 0.000747 0.000000 
-0.012735 0.000741 0.000000 
-0.012254 0.000735 0.000000 
-0.011776 0.000731 0.000000 
-0.011300 0.000731 0.000000 
-0.010825 0.000732 0.000000 
-0.010347 0.000733 0.000000 
-0.009862 0.000734 0.000000 
-0.009368 0.000739 0.000000 
-0.008870 0.000740 0.000000 
-0.008371 0.000739 0.000000 
-0.007872 0.000736 0.000000 
-0.007373 0.000730 0.000000 
-0.006872 0.000725 0.000000 
0.018766 0.000705 0.000000 
-0.006370 0.000721 0.000000 
-0.005866 0.000720 0.000000 
-0.005357 0.000723 0.000000 
-0.004840 0.000729 0.000000 
-0.004320 0.000737 0.000000 
-0.003804 0.000743 0.000000 
-0.003291 0.000746 0.000000 
-0.002779 0.000747 0.000000 
-0.002269 0.000747 0.000000 
-0.001757 0.000744 0.000000 
-0.001244 0.000741 0.000000 
-0.000741 0.000737 0.000000 
-0.000246 0.000733 0.000000 
0.000245 0.000730 0.000000 
0.000731 0.000730 0.000000 
0.001218 0.000732 0.000000 
0.001704 0.000735 0.000000 
0.002189 0.000743 0.000000 
0.002680 0.000748 0.000000 
0.003175 0.000752 0.000000 
0.003675 0.000758 0.000000 
0.004182 0.000763 0.000000 
0.004691 0.000763 0.000000 
0.005199 0.000761 0.000000 
0.005707 0.000754 0.000000 
0.006218 0.000744 0.000000 
0.006732 0.000728 0.000000 
0.007235 0.000710 0.000000 
0.007711 0.000677 0.000000 
0.008177 0.000661 0.000000 
0.008645 0.000682 0.000000 
0.009135 0.000708 0.000000 
0.009639 0.000727 0.000000 
0.010150 0.000740 0.000000 
0.010665 0.000750 0.000000 
0.011179 0.000758 0.000000 
0.011691 0.000763 0.000000 
0.012206 0.000762 0.000000 
0.012721 0.000759 0.000000 
0.013230 0.000751 0.000000 
0.013734 0.000742 0.000000 
0.014236 0.000735 0.000000 
0.014736 0.000728 0.000000 
0.015231 0.000723 0.000000 
0.015734 0.000721 0.000000 
0.016247 0.000722 0.000000 
0.018279 0.000706 0.000000 
0.016763 0.000721 0.000000 
0.017785 0.000711 0.000000 
0.017278 0.000716 0.000000 
-0.024226 0.001700 0.000000 
-0.024191 0.002177 0.000000 
-0.024145 0.002655 0.000000 
-0.024088 0.003132 0.000000 
0.024228 0.001702 0.000000 
0.024195 0.002188 0.000000 
0.024148 0.002676 0.000000 
0.024090 0.003166 0.000000 
0.024022 0.003655 0.000000 
0.023947 0.004139 0.000000 
0.023868 0.004617 0.000000 
0.023779 0.005089 0.000000 
0.023681 0.005560 0.000000 
0.023573 0.006029 0.000000 
0.023453 0.006496 0.000000 
0.023321 0.006959 0.000000 
0.023175 0.007422 0.000000 
0.023019 0.007881 0.000000 
0.022856 0.008339 0.000000 
0.022685 0.008795 0.000000 
0.022507 0.009249 0.000000 
0.022321 0.009698 0.000000 
0.022126 0.010139 0.000000 
0.021925 0.010567 0.000000 
0.021714 0.010984 0.000000 
0.021493 0.011393 0.000000 
0.021261 0.011796 0.000000 
0.021019 0.012198 0.000000 
0.020771 0.012606 0.000000 
0.020513 0.013017 0.000000 
0.020248 0.013423 0.000000 
0.019975 0.013823 0.000000 
0.019690 0.014215 0.000000 
0.019396 0.014604 0.000000 
0.019098 0.014990 0.000000 
0.018793 0.015372 0.000000 
0.018484 0.015751 0.000000 
0.018169 0.016124 0.000000 
0.017845 0.016486 0.000000 
0.017514 0.016840 0.000000 
0.017171 0.017189 0.000000 
0.016820 0.017529 0.000000 
0.016462 0.017863 0.000000 
0.016096 0.018191 0.000000 
0.015721 0.018510 0.000000 
0.015340 0.018824 0.000000 
0.014955 0.019130 0.000000 
0.014568 0.019427 0.000000 
0.014175 0.019718 0.000000 
0.013778 0.020000 0.000000 
0.013377 0.020272 0.000000 
0.012972 0.020534 0.000000 
0.012561 0.020787 0.000000 
0.012145 0.021036 0.000000 
0.011726 0.021278 0.000000 
0.011307 0.021510 0.000000 
0.010888 0.021732 0.000000 
0.010466 0.021946 0.000000 
0.010043 0.022149 0.000000 
0.009617 0.022339 0.000000 
0.009185 0.022516 0.000000 
0.008747 0.022685 0.000000 
0.008303 0.022843 0.000000 
0.007854 0.022994 0.000000 
0.007398 0.023137 0.000000 
0.006935 0.023273 0.000000 
0.006468 0.023404 0.000000 
0.005996 0.023532 0.000000 
0.005525 0.023653 0.000000 
0.005056 0.023762 0.000000 
0.004584 0.023862 0.000000 
0.004110 0.023950 0.000000 
0.003635 0.024027 0.000000 
0.003159 0.024094 0.000000 
0.002685 0.024149 0.000000 
0.002211 0.024192 0.000000 
0.001735 0.024226 0.000000 
0.001258 0.024244 0.000000 
0.000776 0.024252 0.000000 
0.000287 0.024254 0.000000 
-0.000206 0.024250 0.000000 
-0.000702 0.024241 0.000000 
-0.001197 0.024226 0.000000 
-0.001691 0.024205 0.000000 
-0.002179 0.024176 0.000000 
-0.002662 0.024136 0.000000 
-0.003140 0.024085 0.000000 
-0.003615 0.024023 0.000000 
-0.004087 0.023948 0.000000 
-0.004555 0.023861 0.000000 
-0.005020 0.023766 0.000000 
-0.005485 0.023659 0.000000 
-0.005951 0.023542 0.000000 
-0.006417 0.023412 0.000000 
-0.006885 0.023277 0.000000 
-0.007353 0.023137 0.000000 
-0.007816 0.022990 0.000000 
-0.008276 0.022832 0.000000 
-0.008731 0.022664 0.000000 
-0.009183 0.022486 0.000000 
-0.009629 0.022296 0.000000 
-0.010073 0.022096 0.000000 
-0.010513 0.021885 0.000000 
-0.010950 0.021667 0.000000 
-0.011384 0.021443 0.000000 
-0.011814 0.021213 0.000000 
-0.012238 0.020976 0.000000 
-0.012655 0.020732 0.000000 
-0.013066 0.020479 0.000000 
-0.013467 0.020218 0.000000 
-0.013864 0.019949 0.000000 
-0.014256 0.019671 0.000000 
-0.014639 0.019384 0.000000 
-0.015018 0.019087 0.000000 
-0.015392 0.018783 0.000000 
-0.015761 0.018469 0.000000 
-0.016126 0.018148 0.000000 
-0.016487 0.017820 0.000000 
-0.016845 0.017484 0.000000 
-0.017195 0.017142 0.000000 
-0.017538 0.016793 0.000000 
-0.017875 0.016439 0.000000 
-0.018203 0.016079 0.000000 
-0.018525 0.015711 0.000000 
-0.018839 0.015339 0.000000 
-0.019145 0.014962 0.000000 
-0.019442 0.014581 0.000000 
-0.019729 0.014194 0.000000 
-0.020007 0.013801 0.000000 
-0.020275 0.013403 0.000000 
-0.020535 0.013002 0.000000 
-0.020786 0.012595 0.000000 
-0.021029 0.012183 0.000000 
-0.021264 0.011767 0.000000 
-0.021491 0.011345 0.000000 
-0.021710 0.010919 0.000000 
-0.021921 0.010488 0.000000 
-0.022122 0.010054 0.000000 
-0.022312 0.009617 0.000000 
-0.022495 0.009175 0.000000 
-0.022670 0.008729 0.000000 
-0.022837 0.008282 0.000000 
-0.022994 0.007832 0.000000 
-0.023142 0.007377 0.000000 
-0.023279 0.006917 0.000000 
-0.023409 0.006450 0.000000 
-0.023533 0.005981 0.000000 
-0.023650 0.005510 0.000000 
-0.023757 0.005038 0.000000 
-0.023856 0.004564 0.000000 
-0.024023 0.003609 0.000000 
-0.023946 0.004087 0.000000 
-0.023763 0.001211 0.000000 
-0.023750 0.001684 0.000000 
-0.023721 0.002153 0.000000 
-0.023280 0.001210 0.000000 
-0.023680 0.002617 0.000000 
0.023759 0.001209 0.000000 
-0.023624 0.003082 0.000000 
-0.022797 0.001216 0.000000 
-0.022314 0.001228 0.000000 
-0.021827 0.001245 0.000000 
-0.021330 0.001262 0.000000 
-0.020822 0.001278 0.000000 
-0.020307 0.001293 0.000000 
-0.019790 0.001301 0.000000 
-0.019274 0.001302 0.000000 
-0.018758 0.001298 0.000000 
-0.018242 0.001292 0.000000 
-0.017727 0.001288 0.000000 
-0.017213 0.001282 0.000000 
-0.016702 0.001273 0.000000 
-0.023553 0.003550 0.000000 
-0.023474 0.004020 0.000000 
-0.023385 0.004491 0.000000 
-0.023285 0.004962 0.000000 
-0.023180 0.005428 0.000000 
-0.016193 0.001262 0.000000 
-0.015689 0.001251 0.000000 
-0.015187 0.001244 0.000000 
-0.014687 0.001240 0.000000 
-0.014190 0.001241 0.000000 
-0.013695 0.001244 0.000000 
-0.013208 0.001240 0.000000 
-0.012731 0.001229 0.000000 
-0.012264 0.001215 0.000000 
-0.011802 0.001208 0.000000 
-0.011341 0.001209 0.000000 
-0.010880 0.001212 0.000000 
-0.010413 0.001214 0.000000 
-0.009936 0.001218 0.000000 
-0.009447 0.001222 0.000000 
-0.008953 0.001223 0.000000 
-0.008457 0.001223 0.000000 
-0.007963 0.001220 0.000000 
-0.007468 0.001212 0.000000 
-0.006967 0.001208 0.000000 
-0.006460 0.001207 0.000000 
-0.023067 0.005893 0.000000 
-0.022948 0.006357 0.000000 
-0.005947 0.001206 0.000000 
0.023272 0.001209 0.000000 
-0.005431 0.001208 0.000000 
-0.004906 0.001214 0.000000 
-0.022823 0.006814 0.000000 
-0.022691 0.007262 0.000000 
-0.022548 0.007704 0.000000 
-0.022396 0.008142 0.000000 
-0.022234 0.008577 0.000000 
-0.022065 0.009011 0.000000 
-0.021887 0.009442 0.000000 
-0.021703 0.009868 0.000000 
-0.021509 0.010290 0.000000 
-0.021304 0.010709 0.000000 
-0.021090 0.011126 0.000000 
-0.020870 0.011537 0.000000 
-0.020642 0.011943 0.000000 
0.023750 0.001688 0.000000 
0.023727 0.002165 0.000000 
-0.020407 0.012345 0.000000 
-0.020163 0.012741 0.000000 
0.023685 0.002644 0.000000 
0.023628 0.003128 0.000000 
-0.004378 0.001225 0.000000 
-0.003854 0.001236 0.000000 
-0.003334 0.001242 0.000000 
-0.002813 0.001245 0.000000 
-0.002294 0.001246 0.000000 
-0.001775 0.001243 0.000000 
-0.001258 0.001239 0.000000 
-0.000752 0.001234 0.000000 
-0.000259 0.001231 0.000000 
0.000226 0.001227 0.000000 
0.000708 0.001225 0.000000 
0.001189 0.001225 0.000000 
0.001667 0.001230 0.000000 
0.002147 0.001240 0.000000 
0.002636 0.001245 0.000000 
0.003132 0.001251 0.000000 
0.003634 0.001258 0.000000 
0.004145 0.001266 0.000000 
0.004659 0.001270 0.000000 
0.005176 0.001266 0.000000 
0.005690 0.001253 0.000000 
0.006214 0.001235 0.000000 
0.006743 0.001211 0.000000 
0.007269 0.001186 0.000000 
0.007714 0.001093 0.000000 
0.008126 0.001047 0.000000 
0.008551 0.001110 0.000000 
0.009038 0.001167 0.000000 
0.009553 0.001205 0.000000 
0.010078 0.001228 0.000000 
0.010603 0.001242 0.000000 
0.011125 0.001254 0.000000 
0.011647 0.001262 0.000000 
0.012169 0.001264 0.000000 
0.012692 0.001259 0.000000 
0.013210 0.001247 0.000000 
0.013717 0.001234 0.000000 
0.014218 0.001222 0.000000 
0.014717 0.001214 0.000000 
0.015217 0.001211 0.000000 
0.015725 0.001209 0.000000 
-0.019912 0.013132 0.000000 
-0.019651 0.013518 0.000000 
-0.019379 0.013899 0.000000 
-0.019097 0.014274 0.000000 
-0.018804 0.014645 0.000000 
-0.018500 0.015012 0.000000 
-0.018189 0.015377 0.000000 
-0.017870 0.015736 0.000000 
-0.017542 0.016092 0.000000 
-0.017210 0.016443 0.000000 
-0.016869 0.016789 0.000000 
-0.016523 0.017127 0.000000 
-0.016170 0.017459 0.000000 
-0.015813 0.017784 0.000000 
-0.015453 0.018104 0.000000 
-0.015090 0.018414 0.000000 
-0.014723 0.018715 0.000000 
-0.014351 0.019009 0.000000 
-0.013977 0.019292 0.000000 
-0.013597 0.019566 0.000000 
-0.013209 0.019830 0.000000 
-0.012816 0.020085 0.000000 
-0.012416 0.020329 0.000000 
-0.012005 0.020566 0.000000 
-0.011587 0.020797 0.000000 
-0.011163 0.021020 0.000000 
-0.010736 0.021239 0.000000 
-0.010304 0.021454 0.000000 
-0.009871 0.021663 0.000000 
-0.009435 0.021862 0.000000 
-0.008997 0.022049 0.000000 
-0.008555 0.022226 0.000000 
-0.008109 0.022391 0.000000 
-0.007658 0.022545 0.000000 
-0.007198 0.022686 0.000000 
-0.006734 0.022820 0.000000 
-0.006270 0.022953 0.000000 
-0.005810 0.023085 0.000000 
-0.005355 0.023204 0.000000 
-0.004902 0.023312 0.000000 
-0.004449 0.023409 0.000000 
-0.003996 0.023495 0.000000 
-0.003538 0.023567 0.000000 
-0.003076 0.023621 0.000000 
-0.002609 0.023663 0.000000 
-0.002134 0.023693 0.000000 
-0.001652 0.023715 0.000000 
-0.001164 0.023730 0.000000 
-0.000669 0.023740 0.000000 
-0.000174 0.023749 0.000000 
0.000318 0.023757 0.000000 
0.000802 0.023762 0.000000 
0.001278 0.023760 0.000000 
0.001747 0.023746 0.000000 
0.002209 0.023719 0.000000 
0.002669 0.023681 0.000000 
0.003130 0.023629 0.000000 
0.003593 0.023564 0.000000 
0.004058 0.023488 0.000000 
0.004522 0.023401 0.000000 
0.004985 0.023302 0.000000 
0.005446 0.023192 0.000000 
0.005909 0.023070 0.000000 
0.006374 0.022941 0.000000 
0.006834 0.022812 0.000000 
0.007288 0.022681 0.000000 
0.007735 0.022544 0.000000 
0.008175 0.022401 0.000000 
0.008607 0.022253 0.000000 
0.009031 0.022097 0.000000 
0.009445 0.021931 0.000000 
0.009852 0.021752 0.000000 
0.010254 0.021557 0.000000 
0.010657 0.021347 0.000000 
0.011061 0.021126 0.000000 
0.011466 0.020897 0.000000 
0.011874 0.020657 0.000000 
0.012279 0.020412 0.000000 
0.012681 0.020163 0.000000 