# vtk DataFile Version 3.0 
vtk output 
ASCII 
DATASET UNSTRUCTURED_GRID 
POINTS 175 float 
-0.026061 -0.848184 0.000000 
-0.106992 -0.780128 0.000000 
-0.054870 -0.788361 0.000000 
-0.028809 -0.742477 0.000000 
-0.186430 -0.716053 0.000000 
-0.137056 -0.718579 0.000000 
-0.114311 -0.664932 0.000000 
-0.058186 -0.680597 0.000000 
-0.029377 -0.640420 0.000000 
-0.265318 -0.652897 0.000000 
-0.217198 -0.653697 0.000000 
-0.196633 -0.596400 0.000000 
-0.143120 -0.605109 0.000000 
-0.116563 -0.557841 0.000000 
-0.058945 -0.577486 0.000000 
-0.029568 -0.539366 0.000000 
-0.344206 -0.589741 0.000000 
-0.296791 -0.589734 0.000000 
-0.278030 -0.529791 0.000000 
-0.225992 -0.535658 0.000000 
-0.201664 -0.483541 0.000000 
-0.145749 -0.497015 0.000000 
-0.117890 -0.452672 0.000000 
-0.059328 -0.475378 0.000000 
-0.029759 -0.438312 0.000000 
-0.058559 -0.888935 0.000000 
-0.162226 -0.909777 0.000000 
-0.123292 -0.874160 0.000000 
-0.142917 -0.825176 0.000000 
-0.261851 -0.931934 0.000000 
-0.229092 -0.894907 0.000000 
-0.256854 -0.843675 0.000000 
-0.209613 -0.809563 0.000000 
-0.223062 -0.761989 0.000000 
-0.360414 -0.954234 0.000000 
-0.329787 -0.917111 0.000000 
-0.361761 -0.865309 0.000000 
-0.321587 -0.828900 0.000000 
-0.341985 -0.778666 0.000000 
-0.290702 -0.745867 0.000000 
-0.302189 -0.699132 0.000000 
-0.458977 -0.976534 0.000000 
-0.429420 -0.939459 0.000000 
-0.464588 -0.887418 0.000000 
-0.427556 -0.850390 0.000000 
-0.453135 -0.798875 0.000000 
-0.407738 -0.763560 0.000000 
-0.425037 -0.714132 0.000000 
-0.370772 -0.682503 0.000000 
-0.381315 -0.636275 0.000000 
-0.046960 -0.939750 0.000000 
-0.095301 -1.033796 0.000000 
-0.098873 -0.981149 0.000000 
-0.149405 -0.965951 0.000000 
-0.140093 -1.125500 0.000000 
-0.148617 -1.076802 0.000000 
-0.205981 -1.066564 0.000000 
-0.203197 -1.008361 0.000000 
-0.248777 -0.989214 0.000000 
-0.184111 -1.216463 0.000000 
-0.194039 -1.169372 0.000000 
-0.254475 -1.162073 0.000000 
-0.257893 -1.107963 0.000000 
-0.309886 -1.092591 0.000000 
-0.303554 -1.032045 0.000000 
-0.347255 -1.011888 0.000000 
-0.228129 -1.307427 0.000000 
-0.238687 -1.261203 0.000000 
-0.301302 -1.256251 0.000000 
-0.307162 -1.204212 0.000000 
-0.363386 -1.192091 0.000000 
-0.362692 -1.134579 0.000000 
-0.412122 -1.117286 0.000000 
-0.403017 -1.055140 0.000000 
-0.445733 -1.034561 0.000000 
-0.000000 -0.962365 0.000000 
0.043388 -1.058795 0.000000 
-0.000000 -1.028763 0.000000 
-0.043388 -1.058795 0.000000 
0.087158 -1.150992 0.000000 
0.043769 -1.127294 0.000000 
-0.000000 -1.165759 0.000000 
-0.043769 -1.127294 0.000000 
-0.087158 -1.150992 0.000000 
0.130831 -1.242122 0.000000 
0.087824 -1.220523 0.000000 
0.044436 -1.263223 0.000000 
-0.000000 -1.232158 0.000000 
-0.044436 -1.263223 0.000000 
-0.087824 -1.220523 0.000000 
-0.130831 -1.242122 0.000000 
0.174505 -1.333251 0.000000 
0.131782 -1.312685 0.000000 
0.088871 -1.358552 0.000000 
0.044532 -1.330688 0.000000 
-0.000000 -1.367088 0.000000 
-0.044532 -1.330688 0.000000 
-0.088871 -1.358552 0.000000 
-0.131782 -1.312685 0.000000 
-0.174505 -1.333251 0.000000 
0.046960 -0.939750 0.000000 
0.149405 -0.965951 0.000000 
0.098873 -0.981149 0.000000 
0.095301 -1.033796 0.000000 
0.248777 -0.989214 0.000000 
0.203197 -1.008361 0.000000 
0.205981 -1.066564 0.000000 
0.148617 -1.076802 0.000000 
0.140093 -1.125500 0.000000 
0.347255 -1.011888 0.000000 
0.303554 -1.032045 0.000000 
0.309886 -1.092591 0.000000 
0.257893 -1.107963 0.000000 
0.254475 -1.162073 0.000000 
0.194039 -1.169372 0.000000 
0.184111 -1.216463 0.000000 
0.445733 -1.034561 0.000000 
0.403017 -1.055140 0.000000 
0.412122 -1.117286 0.000000 
0.362692 -1.134579 0.000000 
0.363386 -1.192091 0.000000 
0.307162 -1.204212 0.000000 
0.301302 -1.256251 0.000000 
0.238687 -1.261203 0.000000 
0.228129 -1.307427 0.000000 
0.058559 -0.888935 0.000000 
0.142917 -0.825176 0.000000 
0.123292 -0.874160 0.000000 
0.162226 -0.909777 0.000000 
0.223062 -0.761989 0.000000 
0.209613 -0.809563 0.000000 
0.256854 -0.843675 0.000000 
0.229092 -0.894907 0.000000 
0.261851 -0.931934 0.000000 
0.302189 -0.699132 0.000000 
0.290702 -0.745867 0.000000 
0.341985 -0.778666 0.000000 
0.321587 -0.828900 0.000000 
0.361761 -0.865309 0.000000 
0.329787 -0.917111 0.000000 
0.360414 -0.954234 0.000000 
0.381315 -0.636275 0.000000 
0.370772 -0.682503 0.000000 
0.425037 -0.714132 0.000000 
0.407738 -0.763560 0.000000 
0.453135 -0.798875 0.000000 
0.427556 -0.850390 0.000000 
0.464588 -0.887418 0.000000 
0.429420 -0.939459 0.000000 
0.458977 -0.976534 0.000000 
0.026061 -0.848184 0.000000 
0.028809 -0.742477 0.000000 
0.054870 -0.788361 0.000000 
0.106992 -0.780128 0.000000 
0.029377 -0.640420 0.000000 
0.058186 -0.680597 0.000000 
0.114311 -0.664932 0.000000 
0.137056 -0.718579 0.000000 
0.186430 -0.716053 0.000000 
0.029568 -0.539366 0.000000 
0.058945 -0.577486 0.000000 
0.116563 -0.557841 0.000000 
0.143120 -0.605109 0.000000 
0.196633 -0.596400 0.000000 
0.217198 -0.653697 0.000000 
0.265318 -0.652897 0.000000 
0.029759 -0.438312 0.000000 
0.059328 -0.475378 0.000000 
0.117890 -0.452672 0.000000 
0.145749 -0.497015 0.000000 
0.201664 -0.483541 0.000000 
0.225992 -0.535658 0.000000 
0.278030 -0.529791 0.000000 
0.296791 -0.589734 0.000000 
0.344206 -0.589741 0.000000 
CELLS 175 350 
1 0 
1 1 
1 2 
1 3 
1 4 
1 5 
1 6 
1 7 
1 8 
1 9 
1 10 
1 11 
1 12 
1 13 
1 14 
1 15 
1 16 
1 17 
1 18 
1 19 
1 20 
1 21 
1 22 
1 23 
1 24 
1 25 
1 26 
1 27 
1 28 
1 29 
1 30 
1 31 
1 32 
1 33 
1 34 
1 35 
1 36 
1 37 
1 38 
1 39 
1 40 
1 41 
1 42 
1 43 
1 44 
1 45 
1 46 
1 47 
1 48 
1 49 
1 50 
1 51 
1 52 
1 53 
1 54 
1 55 
1 56 
1 57 
1 58 
1 59 
1 60 
1 61 
1 62 
1 63 
1 64 
1 65 
1 66 
1 67 
1 68 
1 69 
1 70 
1 71 
1 72 
1 73 
1 74 
1 75 
1 76 
1 77 
1 78 
1 79 
1 80 
1 81 
1 82 
1 83 
1 84 
1 85 
1 86 
1 87 
1 88 
1 89 
1 90 
1 91 
1 92 
1 93 
1 94 
1 95 
1 96 
1 97 
1 98 
1 99 
1 100 
1 101 
1 102 
1 103 
1 104 
1 105 
1 106 
1 107 
1 108 
1 109 
1 110 
1 111 
1 112 
1 113 
1 114 
1 115 
1 116 
1 117 
1 118 
1 119 
1 120 
1 121 
1 122 
1 123 
1 124 
1 125 
1 126 
1 127 
1 128 
1 129 
1 130 
1 131 
1 132 
1 133 
1 134 
1 135 
1 136 
1 137 
1 138 
1 139 
1 140 
1 141 
1 142 
1 143 
1 144 
1 145 
1 146 
1 147 
1 148 
1 149 
1 150 
1 151 
1 152 
1 153 
1 154 
1 155 
1 156 
1 157 
1 158 
1 159 
1 160 
1 161 
1 162 
1 163 
1 164 
1 165 
1 166 
1 167 
1 168 
1 169 
1 170 
1 171 
1 172 
1 173 
1 174 
CELL_TYPES 175 
1 
1 
1 
1 
1 
1 
1 
1 
1 
1 
1 
1 
1 
1 
1 
1 
1 
1 
1 
1 
1 
1 
1 
1 
1 
1 
1 
1 
1 
1 
1 
1 
1 
1 
1 
1 
1 
1 
1 
1 
1 
1 
1 
1 
1 
1 
1 
1 
1 
1 
1 
1 
1 
1 
1 
1 
1 
1 
1 
1 
1 
1 
1 
1 
1 
1 
1 
1 
1 
1 
1 
1 
1 
1 
1 
1 
1 
1 
1 
1 
1 
1 
1 
1 
1 
1 
1 
1 
1 
1 
1 
1 
1 
1 
1 
1 
1 
1 
1 
1 
1 
1 
1 
1 
1 
1 
1 
1 
1 
1 
1 
1 
1 
1 
1 
1 
1 
1 
1 
1 
1 
1 
1 
1 
1 
1 
1 
1 
1 
1 
1 
1 
1 
1 
1 
1 
1 
1 
1 
1 
1 
1 
1 
1 
1 
1 
1 
1 
1 
1 
1 
1 
1 
1 
1 
1 
1 
1 
1 
1 
1 
1 
1 
1 
1 
1 
1 
1 
1 
1 
1 
1 
1 
1 
1 
POINT_DATA 175 
VECTORS X_GC float 
-0.026061 -0.848184 0.000000 
-0.106992 -0.780128 0.000000 
-0.054870 -0.788361 0.000000 
-0.028809 -0.742477 0.000000 
-0.186430 -0.716053 0.000000 
-0.137056 -0.718579 0.000000 
-0.114311 -0.664932 0.000000 
-0.058186 -0.680597 0.000000 
-0.029377 -0.640420 0.000000 
-0.265318 -0.652897 0.000000 
-0.217198 -0.653697 0.000000 
-0.196633 -0.596400 0.000000 
-0.143120 -0.605109 0.000000 
-0.116563 -0.557841 0.000000 
-0.058945 -0.577486 0.000000 
-0.029568 -0.539366 0.000000 
-0.344206 -0.589741 0.000000 
-0.296791 -0.589734 0.000000 
-0.278030 -0.529791 0.000000 
-0.225992 -0.535658 0.000000 
-0.201664 -0.483541 0.000000 
-0.145749 -0.497015 0.000000 
-0.117890 -0.452672 0.000000 
-0.059328 -0.475378 0.000000 
-0.029759 -0.438312 0.000000 
-0.058559 -0.888935 0.000000 
-0.162226 -0.909777 0.000000 
-0.123292 -0.874160 0.000000 
-0.142917 -0.825176 0.000000 
-0.261851 -0.931934 0.000000 
-0.229092 -0.894907 0.000000 
-0.256854 -0.843675 0.000000 
-0.209613 -0.809563 0.000000 
-0.223062 -0.761989 0.000000 
-0.360414 -0.954234 0.000000 
-0.329787 -0.917111 0.000000 
-0.361761 -0.865309 0.000000 
-0.321587 -0.828900 0.000000 
-0.341985 -0.778666 0.000000 
-0.290702 -0.745867 0.000000 
-0.302189 -0.699132 0.000000 
-0.458977 -0.976534 0.000000 
-0.429420 -0.939459 0.000000 
-0.464588 -0.887418 0.000000 
-0.427556 -0.850390 0.000000 
-0.453135 -0.798875 0.000000 
-0.407738 -0.763560 0.000000 
-0.425037 -0.714132 0.000000 
-0.370772 -0.682503 0.000000 
-0.381315 -0.636275 0.000000 
-0.046960 -0.939750 0.000000 
-0.095301 -1.033796 0.000000 
-0.098873 -0.981149 0.000000 
-0.149405 -0.965951 0.000000 
-0.140093 -1.125500 0.000000 
-0.148617 -1.076802 0.000000 
-0.205981 -1.066564 0.000000 
-0.203197 -1.008361 0.000000 
-0.248777 -0.989214 0.000000 
-0.184111 -1.216463 0.000000 
-0.194039 -1.169372 0.000000 
-0.254475 -1.162073 0.000000 
-0.257893 -1.107963 0.000000 
-0.309886 -1.092591 0.000000 
-0.303554 -1.032045 0.000000 
-0.347255 -1.011888 0.000000 
-0.228129 -1.307427 0.000000 
-0.238687 -1.261203 0.000000 
-0.301302 -1.256251 0.000000 
-0.307162 -1.204212 0.000000 
-0.363386 -1.192091 0.000000 
-0.362692 -1.134579 0.000000 
-0.412122 -1.117286 0.000000 
-0.403017 -1.055140 0.000000 
-0.445733 -1.034561 0.000000 
-0.000000 -0.962365 0.000000 
0.043388 -1.058795 0.000000 
-0.000000 -1.028763 0.000000 
-0.043388 -1.058795 0.000000 
0.087158 -1.150992 0.000000 
0.043769 -1.127294 0.000000 
-0.000000 -1.165759 0.000000 
-0.043769 -1.127294 0.000000 
-0.087158 -1.150992 0.000000 
0.130831 -1.242122 0.000000 
0.087824 -1.220523 0.000000 
0.044436 -1.263223 0.000000 
-0.000000 -1.232158 0.000000 
-0.044436 -1.263223 0.000000 
-0.087824 -1.220523 0.000000 
-0.130831 -1.242122 0.000000 
0.174505 -1.333251 0.000000 
0.131782 -1.312685 0.000000 
0.088871 -1.358552 0.000000 
0.044532 -1.330688 0.000000 
-0.000000 -1.367088 0.000000 
-0.044532 -1.330688 0.000000 
-0.088871 -1.358552 0.000000 
-0.131782 -1.312685 0.000000 
-0.174505 -1.333251 0.000000 
0.046960 -0.939750 0.000000 
0.149405 -0.965951 0.000000 
0.098873 -0.981149 0.000000 
0.095301 -1.033796 0.000000 
0.248777 -0.989214 0.000000 
0.203197 -1.008361 0.000000 
0.205981 -1.066564 0.000000 
0.148617 -1.076802 0.000000 
0.140093 -1.125500 0.000000 
0.347255 -1.011888 0.000000 
0.303554 -1.032045 0.000000 
0.309886 -1.092591 0.000000 
0.257893 -1.107963 0.000000 
0.254475 -1.162073 0.000000 
0.194039 -1.169372 0.000000 
0.184111 -1.216463 0.000000 
0.445733 -1.034561 0.000000 
0.403017 -1.055140 0.000000 
0.412122 -1.117286 0.000000 
0.362692 -1.134579 0.000000 
0.363386 -1.192091 0.000000 
0.307162 -1.204212 0.000000 
0.301302 -1.256251 0.000000 
0.238687 -1.261203 0.000000 
0.228129 -1.307427 0.000000 
0.058559 -0.888935 0.000000 
0.142917 -0.825176 0.000000 
0.123292 -0.874160 0.000000 
0.162226 -0.909777 0.000000 
0.223062 -0.761989 0.000000 
0.209613 -0.809563 0.000000 
0.256854 -0.843675 0.000000 
0.229092 -0.894907 0.000000 
0.261851 -0.931934 0.000000 
0.302189 -0.699132 0.000000 
0.290702 -0.745867 0.000000 
0.341985 -0.778666 0.000000 
0.321587 -0.828900 0.000000 
0.361761 -0.865309 0.000000 
0.329787 -0.917111 0.000000 
0.360414 -0.954234 0.000000 
0.381315 -0.636275 0.000000 
0.370772 -0.682503 0.000000 
0.425037 -0.714132 0.000000 
0.407738 -0.763560 0.000000 
0.453135 -0.798875 0.000000 
0.427556 -0.850390 0.000000 
0.464588 -0.887418 0.000000 
0.429420 -0.939459 0.000000 
0.458977 -0.976534 0.000000 
0.026061 -0.848184 0.000000 
0.028809 -0.742477 0.000000 
0.054870 -0.788361 0.000000 
0.106992 -0.780128 0.000000 
0.029377 -0.640420 0.000000 
0.058186 -0.680597 0.000000 
0.114311 -0.664932 0.000000 
0.137056 -0.718579 0.000000 
0.186430 -0.716053 0.000000 
0.029568 -0.539366 0.000000 
0.058945 -0.577486 0.000000 
0.116563 -0.557841 0.000000 
0.143120 -0.605109 0.000000 
0.196633 -0.596400 0.000000 
0.217198 -0.653697 0.000000 
0.265318 -0.652897 0.000000 
0.029759 -0.438312 0.000000 
0.059328 -0.475378 0.000000 
0.117890 -0.452672 0.000000 
0.145749 -0.497015 0.000000 
0.201664 -0.483541 0.000000 
0.225992 -0.535658 0.000000 
0.278030 -0.529791 0.000000 
0.296791 -0.589734 0.000000 
0.344206 -0.589741 0.000000 
VECTORS X_EC float 
0.338794 -0.049517 0.000000 
-0.609100 -0.968265 0.000000 
0.713312 -0.857125 0.000000 
0.374519 0.523446 0.000000 
0.423588 0.166715 0.000000 
-0.218274 0.200819 0.000000 
-0.513962 -0.523420 0.000000 
0.756418 -0.311934 0.000000 
0.381900 -0.854326 0.000000 
-0.550868 -0.685888 0.000000 
0.823577 -0.675092 0.000000 
0.556234 0.551404 0.000000 
-0.139443 0.668972 0.000000 
-0.484677 0.030848 0.000000 
0.766286 0.296063 0.000000 
0.384386 -0.218557 0.000000 
0.474677 0.461509 0.000000 
-0.141715 0.461413 0.000000 
-0.385608 -0.347816 0.000000 
0.937896 -0.268620 0.000000 
0.621631 -0.972200 0.000000 
-0.105264 -0.790301 0.000000 
-0.467428 0.611073 0.000000 
0.771260 0.917601 0.000000 
0.386873 0.417212 0.000000 
0.761262 0.500617 0.000000 
0.108942 0.781994 0.000000 
-0.397202 0.301155 0.000000 
-0.142083 -0.360120 0.000000 
-0.595936 -0.918895 0.000000 
0.978194 0.581239 0.000000 
-0.660903 -0.110386 0.000000 
0.724964 -0.570906 0.000000 
0.899809 0.786845 0.000000 
0.685384 -0.617843 0.000000 
0.287229 0.880998 0.000000 
0.702895 0.181670 0.000000 
0.180633 -0.309849 0.000000 
0.445811 -0.988008 0.000000 
-0.220880 0.569206 0.000000 
-0.071546 -0.061720 0.000000 
-0.033296 -0.316791 0.000000 
-0.417537 -0.817300 0.000000 
0.039645 0.480137 0.000000 
-0.441768 -0.019734 0.000000 
-0.109248 -0.715185 0.000000 
-0.699407 0.808060 0.000000 
-0.474522 0.140780 0.000000 
0.820030 -0.286213 0.000000 
0.957100 -0.910285 0.000000 
0.610485 -0.813376 0.000000 
-0.761092 0.456243 0.000000 
-0.714655 -0.254494 0.000000 
-0.057734 -0.459661 0.000000 
-0.178789 -0.305753 0.000000 
-0.067979 -0.963179 0.000000 
0.677748 0.898618 0.000000 
0.641556 0.112873 0.000000 
-0.765897 -0.145606 0.000000 
0.393446 0.922257 0.000000 
0.522510 0.286527 0.000000 
-0.691820 0.187982 0.000000 
-0.647393 -0.542500 0.000000 
0.028512 -0.750027 0.000000 
-0.053800 0.432613 0.000000 
0.514316 0.160482 0.000000 
0.965681 0.150266 0.000000 
-0.897068 -0.473763 0.000000 
-0.083078 -0.540616 0.000000 
-0.006893 0.756859 0.000000 
0.724017 0.593226 0.000000 
0.714996 -0.183177 0.000000 
-0.642413 -0.416635 0.000000 
-0.760780 0.744385 0.000000 
-0.205471 0.466570 0.000000 
0.000000 -0.508075 0.000000 
-0.564049 0.793738 0.000000 
0.000000 0.388302 0.000000 
0.564049 0.793738 0.000000 
0.866949 0.038394 0.000000 
-0.569003 -0.281537 0.000000 
0.000000 0.237751 0.000000 
0.569003 -0.281537 0.000000 
-0.866949 0.038394 0.000000 
0.299194 -0.731356 0.000000 
0.858290 0.977060 0.000000 
-0.577662 -0.446494 0.000000 
0.000000 -0.865872 0.000000 
0.577662 -0.446494 0.000000 
-0.858290 0.977060 0.000000 
-0.299194 -0.731356 0.000000 
-0.268560 0.498894 0.000000 
0.286830 0.221252 0.000000 
0.844677 0.840450 0.000000 
-0.578910 0.464288 0.000000 
0.000000 0.955692 0.000000 
0.578910 0.464288 0.000000 
-0.844677 0.840450 0.000000 
-0.286830 0.221252 0.000000 
0.268560 0.498894 0.000000 
-0.610485 -0.813376 0.000000 
0.057734 -0.459661 0.000000 
0.714655 -0.254494 0.000000 
0.761092 0.456243 0.000000 
0.765897 -0.145606 0.000000 
-0.641556 0.112873 0.000000 
-0.677748 0.898618 0.000000 
0.067979 -0.963179 0.000000 
0.178789 -0.305753 0.000000 
-0.514316 0.160482 0.000000 
0.053800 0.432613 0.000000 
-0.028512 -0.750027 0.000000 
0.647393 -0.542500 0.000000 
0.691820 0.187982 0.000000 
-0.522510 0.286527 0.000000 
-0.393446 0.922257 0.000000 
0.205471 0.466570 0.000000 
0.760780 0.744385 0.000000 
0.642413 -0.416635 0.000000 
-0.714996 -0.183177 0.000000 
-0.724017 0.593226 0.000000 
0.006894 0.756859 0.000000 
0.083078 -0.540616 0.000000 
0.897068 -0.473763 0.000000 
-0.965681 0.150266 0.000000 
-0.761262 0.500617 0.000000 
0.142083 -0.360120 0.000000 
0.397202 0.301155 0.000000 
-0.108942 0.781994 0.000000 
-0.899809 0.786845 0.000000 
-0.724964 -0.570906 0.000000 
0.660903 -0.110386 0.000000 
-0.978194 0.581239 0.000000 
0.595936 -0.918895 0.000000 
0.071546 -0.061720 0.000000 
0.220880 0.569206 0.000000 
-0.445811 -0.988008 0.000000 
-0.180633 -0.309849 0.000000 
-0.702895 0.181670 0.000000 
-0.287229 0.880999 0.000000 
-0.685384 -0.617843 0.000000 
-0.957100 -0.910285 0.000000 
-0.820030 -0.286213 0.000000 
0.474522 0.140780 0.000000 
0.699407 0.808060 0.000000 
0.109248 -0.715185 0.000000 
0.441768 -0.019734 0.000000 
-0.039645 0.480137 0.000000 
0.417537 -0.817300 0.000000 
0.033296 -0.316791 0.000000 
-0.338794 -0.049517 0.000000 
-0.374519 0.523446 0.000000 
-0.713312 -0.857125 0.000000 
0.609100 -0.968265 0.000000 
-0.381900 -0.854326 0.000000 
-0.756418 -0.311934 0.000000 
0.513962 -0.523420 0.000000 
0.218274 0.200819 0.000000 
-0.423588 0.166715 0.000000 
-0.384386 -0.218557 0.000000 
-0.766286 0.296063 0.000000 
0.484677 0.030848 0.000000 
0.139443 0.668972 0.000000 
-0.556234 0.551404 0.000000 
-0.823577 -0.675092 0.000000 
0.550868 -0.685888 0.000000 
-0.386873 0.417212 0.000000 
-0.771260 0.917601 0.000000 
0.467428 0.611073 0.000000 
0.105264 -0.790301 0.000000 
-0.621631 -0.972200 0.000000 
-0.937896 -0.268620 0.000000 
0.385608 -0.347816 0.000000 
0.141715 0.461413 0.000000 
-0.474677 0.461509 0.000000 
CELL_DATA 175 
SCALARS MASS float 
LOOKUP_TABLE default 
0.781831 
0.864274 
0.946717 
0.864274 
0.881307 
0.921110 
0.858535 
0.921110 
0.881307 
0.887046 
0.910001 
0.869829 
0.915556 
0.869829 
0.910001 
0.887046 
0.892784 
0.915740 
0.892784 
0.927218 
0.892784 
0.927218 
0.892784 
0.915740 
0.892784 
0.781831 
0.864274 
0.946717 
0.864274 
0.881307 
0.921110 
0.858535 
0.921110 
0.881307 
0.887046 
0.910001 
0.869829 
0.915556 
0.869829 
0.910001 
0.887046 
0.892784 
0.915740 
0.892784 
0.927218 
0.892784 
0.927218 
0.892784 
0.915740 
0.892784 
0.781831 
0.864274 
0.946717 
0.864274 
0.881307 
0.921110 
0.858535 
0.921110 
0.881307 
0.887046 
0.910001 
0.869829 
0.915556 
0.869829 
0.910001 
0.887046 
0.892784 
0.915740 
0.892784 
0.927218 
0.892784 
0.927218 
0.892784 
0.915740 
0.892784 
0.781831 
0.864274 
0.946717 
0.864274 
0.881307 
0.921110 
0.858535 
0.921110 
0.881307 
0.887046 
0.910001 
0.869829 
0.915556 
0.869829 
0.910001 
0.887046 
0.892784 
0.915740 
0.892784 
0.927218 
0.892784 
0.927218 
0.892784 
0.915740 
0.892784 
0.781831 
0.864274 
0.946717 
0.864274 
0.881307 
0.921110 
0.858535 
0.921110 
0.881307 
0.887046 
0.910001 
0.869829 
0.915556 
0.869829 
0.910001 
0.887046 
0.892784 
0.915740 
0.892784 
0.927218 
0.892784 
0.927218 
0.892784 
0.915740 
0.892784 
0.781831 
0.864274 
0.946717 
0.864274 
0.881307 
0.921110 
0.858535 
0.921110 
0.881307 
0.887046 
0.910001 
0.869829 
0.915556 
0.869829 
0.910001 
0.887046 
0.892784 
0.915740 
0.892784 
0.927218 
0.892784 
0.927218 
0.892784 
0.915740 
0.892784 
0.781831 
0.864274 
0.946717 
0.864274 
0.881307 
0.921110 
0.858535 
0.921110 
0.881307 
0.887046 
0.910001 
0.869829 
0.915556 
0.869829 
0.910001 
0.887046 
0.892784 
0.915740 
0.892784 
0.927218 
0.892784 
0.927218 
0.892784 
0.915740 
0.892784 
SCALARS MASS float 
LOOKUP_TABLE default 
0.781831 
0.864274 
0.946717 
0.864274 
0.881307 
0.921110 
0.858535 
0.921110 
0.881307 
0.887046 
0.910001 
0.869829 
0.915556 
0.869829 
0.910001 
0.887046 
0.892784 
0.915740 
0.892784 
0.927218 
0.892784 
0.927218 
0.892784 
0.915740 
0.892784 
0.781831 
0.864274 
0.946717 
0.864274 
0.881307 
0.921110 
0.858535 
0.921110 
0.881307 
0.887046 
0.910001 
0.869829 
0.915556 
0.869829 
0.910001 
0.887046 
0.892784 
0.915740 
0.892784 
0.927218 
0.892784 
0.927218 
0.892784 
0.915740 
0.892784 
0.781831 
0.864274 
0.946717 
0.864274 
0.881307 
0.921110 
0.858535 
0.921110 
0.881307 
0.887046 
0.910001 
0.869829 
0.915556 
0.869829 
0.910001 
0.887046 
0.892784 
0.915740 
0.892784 
0.927218 
0.892784 
0.927218 
0.892784 
0.915740 
0.892784 
0.781831 
0.864274 
0.946717 
0.864274 
0.881307 
0.921110 
0.858535 
0.921110 
0.881307 
0.887046 
0.910001 
0.869829 
0.915556 
0.869829 
0.910001 
0.887046 
0.892784 
0.915740 
0.892784 
0.927218 
0.892784 
0.927218 
0.892784 
0.915740 
0.892784 
0.781831 
0.864274 
0.946717 
0.864274 
0.881307 
0.921110 
0.858535 
0.921110 
0.881307 
0.887046 
0.910001 
0.869829 
0.915556 
0.869829 
0.910001 
0.887046 
0.892784 
0.915740 
0.892784 
0.927218 
0.892784 
0.927218 
0.892784 
0.915740 
0.892784 
0.781831 
0.864274 
0.946717 
0.864274 
0.881307 
0.921110 
0.858535 
0.921110 
0.881307 
0.887046 
0.910001 
0.869829 
0.915556 
0.869829 
0.910001 
0.887046 
0.892784 
0.915740 
0.892784 
0.927218 
0.892784 
0.927218 
0.892784 
0.915740 
0.892784 
0.781831 
0.864274 
0.946717 
0.864274 
0.881307 
0.921110 
0.858535 
0.921110 
0.881307 
0.887046 
0.910001 
0.869829 
0.915556 
0.869829 
0.910001 
0.887046 
0.892784 
0.915740 
0.892784 
0.927218 
0.892784 
0.927218 
0.892784 
0.915740 
0.892784 
SCALARS DENSITY float 
LOOKUP_TABLE default 
200.000000 
200.000000 
200.000000 
200.000000 
200.000000 
200.000000 
200.000000 
200.000000 
200.000000 
200.000000 
200.000000 
200.000000 
200.000000 
200.000000 
200.000000 
200.000000 
200.000000 
200.000000 
200.000000 
200.000000 
200.000000 
200.000000 
200.000000 
200.000000 
200.000000 
200.000000 
200.000000 
200.000000 
200.000000 
200.000000 
200.000000 
200.000000 
200.000000 
200.000000 
200.000000 
200.000000 
200.000000 
200.000000 
200.000000 
200.000000 
200.000000 
200.000000 
200.000000 
200.000000 
200.000000 
200.000000 
200.000000 
200.000000 
200.000000 
200.000000 
200.000000 
200.000000 
200.000000 
200.000000 
200.000000 
200.000000 
200.000000 
200.000000 
200.000000 
200.000000 
200.000000 
200.000000 
200.000000 
200.000000 
200.000000 
200.000000 
200.000000 
200.000000 
200.000000 
200.000000 
200.000000 
200.000000 
200.000000 
200.000000 
200.000000 
200.000000 
200.000000 
200.000000 
200.000000 
200.000000 
200.000000 
200.000000 
200.000000 
200.000000 
200.000000 
200.000000 
200.000000 
200.000000 
200.000000 
200.000000 
200.000000 
200.000000 
200.000000 
200.000000 
200.000000 
200.000000 
200.000000 
200.000000 
200.000000 
200.000000 
200.000000 
200.000000 
200.000000 
200.000000 
200.000000 
200.000000 
200.000000 
200.000000 
200.000000 
200.000000 
200.000000 
200.000000 
200.000000 
200.000000 
200.000000 
200.000000 
200.000000 
200.000000 
200.000000 
200.000000 
200.000000 
200.000000 
200.000000 
200.000000 
200.000000 
200.000000 
200.000000 
200.000000 
200.000000 
200.000000 
200.000000 
200.000000 
200.000000 
200.000000 
200.000000 
200.000000 
200.000000 
200.000000 
200.000000 
200.000000 
200.000000 
200.000000 
200.000000 
200.000000 
200.000000 
200.000000 
200.000000 
200.000000 
200.000000 
200.000000 
200.000000 
200.000000 
200.000000 
200.000000 
200.000000 
200.000000 
200.000000 
200.000000 
200.000000 
200.000000 
200.000000 
200.000000 
200.000000 
200.000000 
200.000000 
200.000000 
200.000000 
200.000000 
200.000000 
200.000000 
200.000000 
200.000000 
200.000000 
200.000000 
200.000000 
SCALARS ELEM_i float 
LOOKUP_TABLE default 
176 
203 
176 
177 
204 
204 
204 
177 
177 
231 
204 
205 
205 
205 
178 
178 
232 
232 
232 
205 
205 
205 
206 
179 
179 
176 
203 
203 
203 
229 
203 
230 
203 
204 
229 
230 
230 
230 
230 
231 
231 
256 
256 
257 
257 
257 
258 
258 
231 
231 
175 
202 
202 
202 
201 
201 
202 
202 
229 
201 
201 
228 
228 
228 
229 
229 
200 
227 
227 
228 
228 
228 
255 
256 
256 
175 
175 
175 
175 
147 
174 
174 
174 
201 
146 
147 
173 
173 
173 
201 
200 
146 
146 
146 
173 
173 
173 
200 
200 
200 
175 
148 
148 
148 
121 
148 
148 
147 
147 
121 
121 
120 
120 
120 
147 
147 
94 
94 
93 
120 
120 
120 
119 
119 
146 
176 
149 
149 
149 
150 
149 
122 
149 
121 
123 
123 
122 
122 
122 
122 
121 
123 
123 
96 
96 
95 
95 
95 
94 
94 
176 
177 
176 
149 
177 
177 
150 
150 
150 
178 
178 
151 
151 
151 
150 
123 
179 
179 
152 
151 
151 
151 
124 
124 
124 
VECTORS VELOCITY float 
-0.000000 -4.206528 0.000000 
-0.000000 -4.206528 0.000000 
0.000000 -4.206528 0.000000 
-0.000000 -4.206528 0.000000 
0.000000 -4.206528 0.000000 
-0.000000 -4.206528 0.000000 
-0.000000 -4.206528 0.000000 
-0.000000 -4.206528 0.000000 
-0.000000 -4.206528 0.000000 
0.000000 -4.206528 0.000000 
0.000000 -4.206528 0.000000 
0.000000 -4.206528 0.000000 
-0.000000 -4.206528 0.000000 
0.000000 -4.206528 0.000000 
0.000000 -4.206528 0.000000 
0.000000 -4.206528 0.000000 
0.000000 -4.206528 0.000000 
0.000000 -4.206528 0.000000 
0.000000 -4.206528 0.000000 
-0.000000 -4.206528 0.000000 
0.000000 -4.206528 0.000000 
0.000000 -4.206528 0.000000 
0.000000 -4.206528 0.000000 
0.000000 -4.206528 0.000000 
0.000000 -4.206528 0.000000 
-0.000000 -4.206528 0.000000 
-0.000000 -4.206528 0.000000 
-0.000000 -4.206528 0.000000 
0.000000 -4.206528 0.000000 
0.000000 -4.206528 0.000000 
0.000000 -4.206528 0.000000 
-0.000000 -4.206528 0.000000 
0.000000 -4.206528 0.000000 
0.000000 -4.206528 0.000000 
-0.000000 -4.206528 0.000000 
-0.000000 -4.206528 0.000000 
-0.000000 -4.206528 0.000000 
-0.000000 -4.206528 0.000000 
-0.000000 -4.206528 0.000000 
-0.000000 -4.206528 0.000000 
0.000000 -4.206528 0.000000 
0.000000 -4.206528 0.000000 
-0.000000 -4.206528 0.000000 
-0.000000 -4.206528 0.000000 
-0.000000 -4.206528 0.000000 
-0.000000 -4.206528 0.000000 
-0.000000 -4.206528 0.000000 
0.000000 -4.206528 0.000000 
-0.000000 -4.206528 0.000000 
-0.000000 -4.206528 0.000000 
-0.000000 -4.206528 0.000000 
0.000000 -4.206528 0.000000 
-0.000000 -4.206528 0.000000 
-0.000000 -4.206528 0.000000 
0.000000 -4.206528 0.000000 
0.000000 -4.206528 0.000000 
0.000000 -4.206528 0.000000 
0.000000 -4.206528 0.000000 
-0.000000 -4.206528 0.000000 
0.000000 -4.206528 0.000000 
-0.000000 -4.206528 0.000000 
-0.000000 -4.206528 0.000000 
0.000000 -4.206528 0.000000 
0.000000 -4.206528 0.000000 
0.000000 -4.206528 0.000000 
-0.000000 -4.206528 0.000000 
0.000000 -4.206528 0.000000 
-0.000000 -4.206528 0.000000 
-0.000000 -4.206528 0.000000 
-0.000000 -4.206528 0.000000 
-0.000000 -4.206528 0.000000 
0.000000 -4.206528 0.000000 
-0.000000 -4.206528 0.000000 
0.000000 -4.206528 0.000000 
-0.000000 -4.206528 0.000000 
-0.000000 -4.206528 0.000000 
-0.000000 -4.206528 0.000000 
-0.000000 -4.206528 0.000000 
0.000000 -4.206528 0.000000 
-0.000000 -4.206528 0.000000 
-0.000000 -4.206528 0.000000 
-0.000000 -4.206528 0.000000 
-0.000000 -4.206528 0.000000 
0.000000 -4.206528 0.000000 
-0.000000 -4.206528 0.000000 
0.000000 -4.206528 0.000000 
0.000000 -4.206528 0.000000 
0.000000 -4.206528 0.000000 
0.000000 -4.206528 0.000000 
-0.000000 -4.206528 0.000000 
0.000000 -4.206528 0.000000 
-0.000000 -4.206528 0.000000 
0.000000 -4.206528 0.000000 
-0.000000 -4.206528 0.000000 
0.000000 -4.206528 0.000000 
-0.000000 -4.206528 0.000000 
-0.000000 -4.206528 0.000000 
-0.000000 -4.206528 0.000000 
-0.000000 -4.206528 0.000000 
-0.000000 -4.206528 0.000000 
0.000000 -4.206528 0.000000 
0.000000 -4.206528 0.000000 
0.000000 -4.206528 0.000000 
-0.000000 -4.206528 0.000000 
0.000000 -4.206528 0.000000 
0.000000 -4.206528 0.000000 
0.000000 -4.206528 0.000000 
0.000000 -4.206528 0.000000 
-0.000000 -4.206528 0.000000 
-0.000000 -4.206528 0.000000 
0.000000 -4.206528 0.000000 
-0.000000 -4.206528 0.000000 
0.000000 -4.206528 0.000000 
-0.000000 -4.206528 0.000000 
-0.000000 -4.206528 0.000000 
-0.000000 -4.206528 0.000000 
-0.000000 -4.206528 0.000000 
-0.000000 -4.206528 0.000000 
-0.000000 -4.206528 0.000000 
-0.000000 -4.206528 0.000000 
-0.000000 -4.206528 0.000000 
0.000000 -4.206528 0.000000 
0.000000 -4.206528 0.000000 
-0.000000 -4.206528 0.000000 
-0.000000 -4.206528 0.000000 
0.000000 -4.206528 0.000000 
-0.000000 -4.206528 0.000000 
0.000000 -4.206528 0.000000 
0.000000 -4.206528 0.000000 
-0.000000 -4.206528 0.000000 
-0.000000 -4.206528 0.000000 
-0.000000 -4.206528 0.000000 
-0.000000 -4.206528 0.000000 
-0.000000 -4.206528 0.000000 
0.000000 -4.206528 0.000000 
-0.000000 -4.206528 0.000000 
-0.000000 -4.206528 0.000000 
-0.000000 -4.206528 0.000000 
0.000000 -4.206528 0.000000 
0.000000 -4.206528 0.000000 
0.000000 -4.206528 0.000000 
0.000000 -4.206528 0.000000 
0.000000 -4.206528 0.000000 
-0.000000 -4.206528 0.000000 
0.000000 -4.206528 0.000000 
0.000000 -4.206528 0.000000 
0.000000 -4.206528 0.000000 
0.000000 -4.206528 0.000000 
0.000000 -4.206528 0.000000 
-0.000000 -4.206528 0.000000 
0.000000 -4.206528 0.000000 
0.000000 -4.206528 0.000000 
0.000000 -4.206528 0.000000 
0.000000 -4.206528 0.000000 
0.000000 -4.206528 0.000000 
0.000000 -4.206528 0.000000 
0.000000 -4.206528 0.000000 
0.000000 -4.206528 0.000000 
0.000000 -4.206528 0.000000 
-0.000000 -4.206528 0.000000 
-0.000000 -4.206528 0.000000 
-0.000000 -4.206528 0.000000 
0.000000 -4.206528 0.000000 
0.000000 -4.206528 0.000000 
0.000000 -4.206528 0.000000 
0.000000 -4.206528 0.000000 
0.000000 -4.206528 0.000000 
0.000000 -4.206528 0.000000 
0.000000 -4.206528 0.000000 
0.000000 -4.206528 0.000000 
0.000000 -4.206528 0.000000 
0.000000 -4.206528 0.000000 
0.000000 -4.206528 0.000000 
0.000000 -4.206528 0.000000 
-0.000000 -4.206528 0.000000 
TENSORS STRESS float 
0.000000 0.000000 0.000000 
0.000000 0.000000 0.000000 
0.000000 0.000000 0.000000 

0.000000 0.000000 0.000000 
0.000000 0.000000 0.000000 
0.000000 0.000000 0.000000 

0.000000 0.000000 0.000000 
0.000000 0.000000 0.000000 
0.000000 0.000000 0.000000 

0.000000 0.000000 0.000000 
0.000000 0.000000 0.000000 
0.000000 0.000000 0.000000 

-0.000000 0.000000 0.000000 
0.000000 -0.000000 0.000000 
0.000000 0.000000 0.000000 

-0.000000 0.000000 0.000000 
0.000000 -0.000000 0.000000 
0.000000 0.000000 0.000000 

0.000000 0.000000 0.000000 
0.000000 0.000000 0.000000 
0.000000 0.000000 0.000000 

0.000000 -0.000000 0.000000 
0.000000 0.000000 0.000000 
0.000000 0.000000 0.000000 

0.000000 -0.000000 0.000000 
0.000000 0.000000 0.000000 
0.000000 0.000000 0.000000 

0.000000 0.000000 0.000000 
0.000000 0.000000 0.000000 
0.000000 0.000000 0.000000 

-0.000000 0.000000 0.000000 
0.000000 -0.000000 0.000000 