# vtk DataFile Version 3.0 
vtk output 
ASCII 
DATASET UNSTRUCTURED_GRID 
POINTS 175 float 
-0.026061 -2.118260 0.000000 
-0.106992 -2.050205 0.000000 
-0.054870 -2.058438 0.000000 
-0.028809 -2.012554 0.000000 
-0.186430 -1.986129 0.000000 
-0.137056 -1.988656 0.000000 
-0.114311 -1.935008 0.000000 
-0.058186 -1.950674 0.000000 
-0.029377 -1.910497 0.000000 
-0.265318 -1.922974 0.000000 
-0.217198 -1.923773 0.000000 
-0.196633 -1.866477 0.000000 
-0.143120 -1.875185 0.000000 
-0.116563 -1.827917 0.000000 
-0.058945 -1.847563 0.000000 
-0.029568 -1.809443 0.000000 
-0.344206 -1.859818 0.000000 
-0.296791 -1.859811 0.000000 
-0.278030 -1.799868 0.000000 
-0.225992 -1.805734 0.000000 
-0.201664 -1.753617 0.000000 
-0.145749 -1.767091 0.000000 
-0.117890 -1.722748 0.000000 
-0.059328 -1.745454 0.000000 
-0.029759 -1.708388 0.000000 
-0.058559 -2.159011 0.000000 
-0.162226 -2.179854 0.000000 
-0.123292 -2.144236 0.000000 
-0.142917 -2.095253 0.000000 
-0.261851 -2.202010 0.000000 
-0.229092 -2.164983 0.000000 
-0.256854 -2.113751 0.000000 
-0.209613 -2.079639 0.000000 
-0.223062 -2.032065 0.000000 
-0.360414 -2.224310 0.000000 
-0.329787 -2.187187 0.000000 
-0.361761 -2.135385 0.000000 
-0.321587 -2.098976 0.000000 
-0.341985 -2.048742 0.000000 
-0.290702 -2.015943 0.000000 
-0.302189 -1.969208 0.000000 
-0.458977 -2.246610 0.000000 
-0.429420 -2.209536 0.000000 
-0.464588 -2.157494 0.000000 
-0.427556 -2.120466 0.000000 
-0.453135 -2.068952 0.000000 
-0.407738 -2.033636 0.000000 
-0.425037 -1.984208 0.000000 
-0.370772 -1.952579 0.000000 
-0.381315 -1.906352 0.000000 
-0.046960 -2.209826 0.000000 
-0.095301 -2.303872 0.000000 
-0.098873 -2.251225 0.000000 
-0.149405 -2.236027 0.000000 
-0.140093 -2.395576 0.000000 
-0.148617 -2.346878 0.000000 
-0.205981 -2.336641 0.000000 
-0.203197 -2.278437 0.000000 
-0.248777 -2.259291 0.000000 
-0.184111 -2.486540 0.000000 
-0.194039 -2.439449 0.000000 
-0.254475 -2.432149 0.000000 
-0.257893 -2.378039 0.000000 
-0.309886 -2.362667 0.000000 
-0.303554 -2.302122 0.000000 
-0.347255 -2.281964 0.000000 
-0.228129 -2.577503 0.000000 
-0.238687 -2.531279 0.000000 
-0.301302 -2.526327 0.000000 
-0.307162 -2.474288 0.000000 
-0.363386 -2.462167 0.000000 
-0.362692 -2.404656 0.000000 
-0.412122 -2.387363 0.000000 
-0.403017 -2.325216 0.000000 
-0.445733 -2.304637 0.000000 
-0.000000 -2.232441 0.000000 
0.043388 -2.328872 0.000000 
-0.000000 -2.298840 0.000000 
-0.043388 -2.328872 0.000000 
0.087158 -2.421068 0.000000 
0.043769 -2.397370 0.000000 
-0.000000 -2.435836 0.000000 
-0.043769 -2.397370 0.000000 
-0.087158 -2.421068 0.000000 
0.130831 -2.512198 0.000000 
0.087824 -2.490599 0.000000 
0.044436 -2.533299 0.000000 
-0.000000 -2.502234 0.000000 
-0.044436 -2.533299 0.000000 
-0.087824 -2.490599 0.000000 
-0.130831 -2.512198 0.000000 
0.174505 -2.603328 0.000000 
0.131782 -2.582762 0.000000 
0.088871 -2.628628 0.000000 
0.044532 -2.600764 0.000000 
-0.000000 -2.637165 0.000000 
-0.044532 -2.600764 0.000000 
-0.088871 -2.628628 0.000000 
-0.131782 -2.582762 0.000000 
-0.174505 -2.603328 0.000000 
0.046960 -2.209826 0.000000 
0.149405 -2.236027 0.000000 
0.098873 -2.251225 0.000000 
0.095301 -2.303872 0.000000 
0.248777 -2.259291 0.000000 
0.203197 -2.278437 0.000000 
0.205981 -2.336641 0.000000 
0.148617 -2.346878 0.000000 
0.140093 -2.395576 0.000000 
0.347255 -2.281964 0.000000 
0.303554 -2.302122 0.000000 
0.309886 -2.362667 0.000000 
0.257893 -2.378039 0.000000 
0.254475 -2.432149 0.000000 
0.194039 -2.439449 0.000000 
0.184111 -2.486540 0.000000 
0.445733 -2.304637 0.000000 
0.403017 -2.325216 0.000000 
0.412122 -2.387363 0.000000 
0.362692 -2.404656 0.000000 
0.363386 -2.462167 0.000000 
0.307162 -2.474288 0.000000 
0.301302 -2.526327 0.000000 
0.238687 -2.531279 0.000000 
0.228129 -2.577503 0.000000 
0.058559 -2.159011 0.000000 
0.142917 -2.095253 0.000000 
0.123292 -2.144236 0.000000 
0.162226 -2.179854 0.000000 
0.223062 -2.032065 0.000000 
0.209613 -2.079639 0.000000 
0.256854 -2.113751 0.000000 
0.229092 -2.164983 0.000000 
0.261851 -2.202010 0.000000 
0.302189 -1.969208 0.000000 
0.290702 -2.015943 0.000000 
0.341985 -2.048742 0.000000 
0.321587 -2.098976 0.000000 
0.361761 -2.135385 0.000000 
0.329787 -2.187187 0.000000 
0.360414 -2.224310 0.000000 
0.381315 -1.906352 0.000000 
0.370772 -1.952579 0.000000 
0.425037 -1.984208 0.000000 
0.407738 -2.033636 0.000000 
0.453135 -2.068952 0.000000 
0.427556 -2.120466 0.000000 
0.464588 -2.157494 0.000000 
0.429420 -2.209536 0.000000 
0.458977 -2.246610 0.000000 
0.026061 -2.118260 0.000000 
0.028809 -2.012554 0.000000 
0.054870 -2.058438 0.000000 
0.106992 -2.050205 0.000000 
0.029377 -1.910497 0.000000 
0.058186 -1.950674 0.000000 
0.114311 -1.935008 0.000000 
0.137056 -1.988656 0.000000 
0.186430 -1.986129 0.000000 
0.029568 -1.809443 0.000000 
0.058945 -1.847563 0.000000 
0.116563 -1.827917 0.000000 
0.143120 -1.875185 0.000000 
0.196633 -1.866477 0.000000 
0.217198 -1.923773 0.000000 
0.265318 -1.922974 0.000000 
0.029759 -1.708388 0.000000 
0.059328 -1.745454 0.000000 
0.117890 -1.722748 0.000000 
0.145749 -1.767091 0.000000 
0.201664 -1.753617 0.000000 
0.225992 -1.805734 0.000000 
0.278030 -1.799868 0.000000 
0.296791 -1.859811 0.000000 
0.344206 -1.859818 0.000000 
CELLS 175 350 
1 0 
1 1 
1 2 
1 3 
1 4 
1 5 
1 6 
1 7 
1 8 
1 9 
1 10 
1 11 
1 12 
1 13 
1 14 
1 15 
1 16 
1 17 
1 18 
1 19 
1 20 
1 21 
1 22 
1 23 
1 24 
1 25 
1 26 
1 27 
1 28 
1 29 
1 30 
1 31 
1 32 
1 33 
1 34 
1 35 
1 36 
1 37 
1 38 
1 39 
1 40 
1 41 
1 42 
1 43 
1 44 
1 45 
1 46 
1 47 
1 48 
1 49 
1 50 
1 51 
1 52 
1 53 
1 54 
1 55 
1 56 
1 57 
1 58 
1 59 
1 60 
1 61 
1 62 
1 63 
1 64 
1 65 
1 66 
1 67 
1 68 
1 69 
1 70 
1 71 
1 72 
1 73 
1 74 
1 75 
1 76 
1 77 
1 78 
1 79 
1 80 
1 81 
1 82 
1 83 
1 84 
1 85 
1 86 
1 87 
1 88 
1 89 
1 90 
1 91 
1 92 
1 93 
1 94 
1 95 
1 96 
1 97 
1 98 
1 99 
1 100 
1 101 
1 102 
1 103 
1 104 
1 105 
1 106 
1 107 
1 108 
1 109 
1 110 
1 111 
1 112 
1 113 
1 114 
1 115 
1 116 
1 117 
1 118 
1 119 
1 120 
1 121 
1 122 
1 123 
1 124 
1 125 
1 126 
1 127 
1 128 
1 129 
1 130 
1 131 
1 132 
1 133 
1 134 
1 135 
1 136 
1 137 
1 138 
1 139 
1 140 
1 141 
1 142 
1 143 
1 144 
1 145 
1 146 
1 147 
1 148 
1 149 
1 150 
1 151 
1 152 
1 153 
1 154 
1 155 
1 156 
1 157 
1 158 
1 159 
1 160 
1 161 
1 162 
1 163 
1 164 
1 165 
1 166 
1 167 
1 168 
1 169 
1 170 
1 171 
1 172 
1 173 
1 174 
CELL_TYPES 175 
1 
1 
1 
1 
1 
1 
1 
1 
1 
1 
1 
1 
1 
1 
1 
1 
1 
1 
1 
1 
1 
1 
1 
1 
1 
1 
1 
1 
1 
1 
1 
1 
1 
1 
1 
1 
1 
1 
1 
1 
1 
1 
1 
1 
1 
1 
1 
1 
1 
1 
1 
1 
1 
1 
1 
1 
1 
1 
1 
1 
1 
1 
1 
1 
1 
1 
1 
1 
1 
1 
1 
1 
1 
1 
1 
1 
1 
1 
1 
1 
1 
1 
1 
1 
1 
1 
1 
1 
1 
1 
1 
1 
1 
1 
1 
1 
1 
1 
1 
1 
1 
1 
1 
1 
1 
1 
1 
1 
1 
1 
1 
1 
1 
1 
1 
1 
1 
1 
1 
1 
1 
1 
1 
1 
1 
1 
1 
1 
1 
1 
1 
1 
1 
1 
1 
1 
1 
1 
1 
1 
1 
1 
1 
1 
1 
1 
1 
1 
1 
1 
1 
1 
1 
1 
1 
1 
1 
1 
1 
1 
1 
1 
1 
1 
1 
1 
1 
1 
1 
1 
1 
1 
1 
1 
1 
POINT_DATA 175 
VECTORS X_GC float 
-0.026061 -2.118260 0.000000 
-0.106992 -2.050205 0.000000 
-0.054870 -2.058438 0.000000 
-0.028809 -2.012554 0.000000 
-0.186430 -1.986129 0.000000 
-0.137056 -1.988656 0.000000 
-0.114311 -1.935008 0.000000 
-0.058186 -1.950674 0.000000 
-0.029377 -1.910497 0.000000 
-0.265318 -1.922974 0.000000 
-0.217198 -1.923773 0.000000 
-0.196633 -1.866477 0.000000 
-0.143120 -1.875185 0.000000 
-0.116563 -1.827917 0.000000 
-0.058945 -1.847563 0.000000 
-0.029568 -1.809443 0.000000 
-0.344206 -1.859818 0.000000 
-0.296791 -1.859811 0.000000 
-0.278030 -1.799868 0.000000 
-0.225992 -1.805734 0.000000 
-0.201664 -1.753617 0.000000 
-0.145749 -1.767091 0.000000 
-0.117890 -1.722748 0.000000 
-0.059328 -1.745454 0.000000 
-0.029759 -1.708388 0.000000 
-0.058559 -2.159011 0.000000 
-0.162226 -2.179854 0.000000 
-0.123292 -2.144236 0.000000 
-0.142917 -2.095253 0.000000 
-0.261851 -2.202010 0.000000 
-0.229092 -2.164983 0.000000 
-0.256854 -2.113751 0.000000 
-0.209613 -2.079639 0.000000 
-0.223062 -2.032065 0.000000 
-0.360414 -2.224310 0.000000 
-0.329787 -2.187187 0.000000 
-0.361761 -2.135385 0.000000 
-0.321587 -2.098976 0.000000 
-0.341985 -2.048742 0.000000 
-0.290702 -2.015943 0.000000 
-0.302189 -1.969208 0.000000 
-0.458977 -2.246610 0.000000 
-0.429420 -2.209536 0.000000 
-0.464588 -2.157494 0.000000 
-0.427556 -2.120466 0.000000 
-0.453135 -2.068952 0.000000 
-0.407738 -2.033636 0.000000 
-0.425037 -1.984208 0.000000 
-0.370772 -1.952579 0.000000 
-0.381315 -1.906352 0.000000 
-0.046960 -2.209826 0.000000 
-0.095301 -2.303872 0.000000 
-0.098873 -2.251225 0.000000 
-0.149405 -2.236027 0.000000 
-0.140093 -2.395576 0.000000 
-0.148617 -2.346878 0.000000 
-0.205981 -2.336641 0.000000 
-0.203197 -2.278437 0.000000 
-0.248777 -2.259291 0.000000 
-0.184111 -2.486540 0.000000 
-0.194039 -2.439449 0.000000 
-0.254475 -2.432149 0.000000 
-0.257893 -2.378039 0.000000 
-0.309886 -2.362667 0.000000 
-0.303554 -2.302122 0.000000 
-0.347255 -2.281964 0.000000 
-0.228129 -2.577503 0.000000 
-0.238687 -2.531279 0.000000 
-0.301302 -2.526327 0.000000 
-0.307162 -2.474288 0.000000 
-0.363386 -2.462167 0.000000 
-0.362692 -2.404656 0.000000 
-0.412122 -2.387363 0.000000 
-0.403017 -2.325216 0.000000 
-0.445733 -2.304637 0.000000 
-0.000000 -2.232441 0.000000 
0.043388 -2.328872 0.000000 
-0.000000 -2.298840 0.000000 
-0.043388 -2.328872 0.000000 
0.087158 -2.421068 0.000000 
0.043769 -2.397370 0.000000 
-0.000000 -2.435836 0.000000 
-0.043769 -2.397370 0.000000 
-0.087158 -2.421068 0.000000 
0.130831 -2.512198 0.000000 
0.087824 -2.490599 0.000000 
0.044436 -2.533299 0.000000 
-0.000000 -2.502234 0.000000 
-0.044436 -2.533299 0.000000 
-0.087824 -2.490599 0.000000 
-0.130831 -2.512198 0.000000 
0.174505 -2.603328 0.000000 
0.131782 -2.582762 0.000000 
0.088871 -2.628628 0.000000 
0.044532 -2.600764 0.000000 
-0.000000 -2.637165 0.000000 
-0.044532 -2.600764 0.000000 
-0.088871 -2.628628 0.000000 
-0.131782 -2.582762 0.000000 
-0.174505 -2.603328 0.000000 
0.046960 -2.209826 0.000000 
0.149405 -2.236027 0.000000 
0.098873 -2.251225 0.000000 
0.095301 -2.303872 0.000000 
0.248777 -2.259291 0.000000 
0.203197 -2.278437 0.000000 
0.205981 -2.336641 0.000000 
0.148617 -2.346878 0.000000 
0.140093 -2.395576 0.000000 
0.347255 -2.281964 0.000000 
0.303554 -2.302122 0.000000 
0.309886 -2.362667 0.000000 
0.257893 -2.378039 0.000000 
0.254475 -2.432149 0.000000 
0.194039 -2.439449 0.000000 
0.184111 -2.486540 0.000000 
0.445733 -2.304637 0.000000 
0.403017 -2.325216 0.000000 
0.412122 -2.387363 0.000000 
0.362692 -2.404656 0.000000 
0.363386 -2.462167 0.000000 
0.307162 -2.474288 0.000000 
0.301302 -2.526327 0.000000 
0.238687 -2.531279 0.000000 
0.228129 -2.577503 0.000000 
0.058559 -2.159011 0.000000 
0.142917 -2.095253 0.000000 
0.123292 -2.144236 0.000000 
0.162226 -2.179854 0.000000 
0.223062 -2.032065 0.000000 
0.209613 -2.079639 0.000000 
0.256854 -2.113751 0.000000 
0.229092 -2.164983 0.000000 
0.261851 -2.202010 0.000000 
0.302189 -1.969208 0.000000 
0.290702 -2.015943 0.000000 
0.341985 -2.048742 0.000000 
0.321587 -2.098976 0.000000 
0.361761 -2.135385 0.000000 
0.329787 -2.187187 0.000000 
0.360414 -2.224310 0.000000 
0.381315 -1.906352 0.000000 
0.370772 -1.952579 0.000000 
0.425037 -1.984208 0.000000 
0.407738 -2.033636 0.000000 
0.453135 -2.068952 0.000000 
0.427556 -2.120466 0.000000 
0.464588 -2.157494 0.000000 
0.429420 -2.209536 0.000000 
0.458977 -2.246610 0.000000 
0.026061 -2.118260 0.000000 
0.028809 -2.012554 0.000000 
0.054870 -2.058438 0.000000 
0.106992 -2.050205 0.000000 
0.029377 -1.910497 0.000000 
0.058186 -1.950674 0.000000 
0.114311 -1.935008 0.000000 
0.137056 -1.988656 0.000000 
0.186430 -1.986129 0.000000 
0.029568 -1.809443 0.000000 
0.058945 -1.847563 0.000000 
0.116563 -1.827917 0.000000 
0.143120 -1.875185 0.000000 
0.196633 -1.866477 0.000000 
0.217198 -1.923773 0.000000 
0.265318 -1.922974 0.000000 
0.029759 -1.708388 0.000000 
0.059328 -1.745454 0.000000 
0.117890 -1.722748 0.000000 
0.145749 -1.767091 0.000000 
0.201664 -1.753617 0.000000 
0.225992 -1.805734 0.000000 
0.278030 -1.799868 0.000000 
0.296791 -1.859811 0.000000 
0.344206 -1.859818 0.000000 
VECTORS X_EC float 
0.338794 -0.903486 0.000000 
-0.609100 0.177766 0.000000 
0.713312 0.288906 0.000000 
0.374519 -0.330523 0.000000 
0.423588 -0.687254 0.000000 
-0.218274 -0.653150 0.000000 
-0.513962 0.622611 0.000000 
0.756418 0.834097 0.000000 
0.381900 0.291705 0.000000 
-0.550868 0.460143 0.000000 
0.823577 0.470939 0.000000 
0.556234 -0.302565 0.000000 
-0.139443 -0.184997 0.000000 
-0.484677 -0.823121 0.000000 
0.766286 -0.557906 0.000000 
0.384386 0.927474 0.000000 
0.474677 -0.392460 0.000000 
-0.141715 -0.392556 0.000000 
-0.385608 0.798216 0.000000 
0.937896 0.877411 0.000000 
0.621631 0.173831 0.000000 
-0.105264 0.355730 0.000000 
-0.467428 -0.242896 0.000000 
0.771260 0.063632 0.000000 
0.386873 -0.436757 0.000000 
0.761262 -0.353352 0.000000 
0.108942 -0.071975 0.000000 
-0.397202 -0.552814 0.000000 
-0.142083 0.785911 0.000000 
-0.595936 0.227136 0.000000 
0.978194 -0.272730 0.000000 
-0.660903 -0.964355 0.000000 
0.724964 0.575125 0.000000 
0.899809 -0.067124 0.000000 
0.685384 0.528188 0.000000 
0.287229 0.027030 0.000000 
0.702895 -0.672299 0.000000 
0.180633 0.836182 0.000000 
0.445811 0.158023 0.000000 
-0.220880 -0.284763 0.000000 
-0.071546 -0.915689 0.000000 
-0.033296 0.829240 0.000000 
-0.417537 0.328731 0.000000 
0.039645 -0.373832 0.000000 
-0.441768 -0.873703 0.000000 
-0.109248 0.430846 0.000000 
-0.699407 -0.045909 0.000000 
-0.474522 -0.713189 0.000000 
0.820030 0.859818 0.000000 
0.957100 0.235746 0.000000 
0.610485 0.332655 0.000000 
-0.761092 -0.397726 0.000000 
-0.714655 0.891537 0.000000 
-0.057734 0.686370 0.000000 
-0.178789 0.840278 0.000000 
-0.067979 0.182852 0.000000 
0.677748 0.044649 0.000000 
0.641556 -0.741096 0.000000 
-0.765897 -0.999575 0.000000 
0.393446 0.068287 0.000000 
0.522510 -0.567442 0.000000 
-0.691820 -0.665987 0.000000 
-0.647393 0.603531 0.000000 
0.028512 0.396004 0.000000 
-0.053800 -0.421356 0.000000 
0.514316 -0.693487 0.000000 
0.965681 -0.703703 0.000000 
-0.897068 0.672268 0.000000 
-0.083078 0.605415 0.000000 
-0.006893 -0.097110 0.000000 
0.724017 -0.260743 0.000000 
0.714996 0.962854 0.000000 
-0.642413 0.729396 0.000000 
-0.760780 -0.109584 0.000000 
-0.205471 -0.387399 0.000000 
0.000000 0.637956 0.000000 
-0.564049 -0.060231 0.000000 
0.000000 -0.465667 0.000000 
0.564049 -0.060231 0.000000 
0.866949 -0.815575 0.000000 
-0.569003 0.864493 0.000000 
0.000000 -0.616218 0.000000 
0.569003 0.864493 0.000000 
-0.866949 -0.815575 0.000000 
0.299194 0.414675 0.000000 
0.858290 0.123091 0.000000 
-0.577662 0.699537 0.000000 
0.000000 0.280158 0.000000 
0.577662 0.699537 0.000000 
-0.858290 0.123091 0.000000 
-0.299194 0.414675 0.000000 
-0.268560 -0.355075 0.000000 
0.286830 -0.632717 0.000000 
0.844677 -0.013519 0.000000 
-0.578910 -0.389681 0.000000 
0.000000 0.101723 0.000000 
0.578910 -0.389681 0.000000 
-0.844677 -0.013519 0.000000 
-0.286830 -0.632717 0.000000 
0.268560 -0.355075 0.000000 
-0.610485 0.332655 0.000000 
0.057734 0.686370 0.000000 
0.714655 0.891537 0.000000 
0.761092 -0.397726 0.000000 
0.765897 -0.999575 0.000000 
-0.641556 -0.741096 0.000000 
-0.677748 0.044649 0.000000 
0.067979 0.182852 0.000000 
0.178789 0.840278 0.000000 
-0.514316 -0.693487 0.000000 
0.053800 -0.421356 0.000000 
-0.028512 0.396004 0.000000 
0.647393 0.603531 0.000000 
0.691820 -0.665987 0.000000 
-0.522510 -0.567442 0.000000 
-0.393446 0.068287 0.000000 
0.205471 -0.387399 0.000000 
0.760780 -0.109584 0.000000 
0.642413 0.729396 0.000000 
-0.714996 0.962854 0.000000 
-0.724017 -0.260743 0.000000 
0.006894 -0.097110 0.000000 
0.083078 0.605415 0.000000 
0.897068 0.672268 0.000000 
-0.965681 -0.703703 0.000000 
-0.761262 -0.353352 0.000000 
0.142083 0.785911 0.000000 
0.397202 -0.552814 0.000000 
-0.108942 -0.071975 0.000000 
-0.899809 -0.067124 0.000000 
-0.724964 0.575125 0.000000 
0.660903 -0.964355 0.000000 
-0.978194 -0.272730 0.000000 
0.595936 0.227136 0.000000 
0.071546 -0.915689 0.000000 
0.220880 -0.284763 0.000000 
-0.445811 0.158023 0.000000 
-0.180633 0.836182 0.000000 
-0.702895 -0.672299 0.000000 
-0.287229 0.027030 0.000000 
-0.685384 0.528188 0.000000 
-0.957100 0.235746 0.000000 
-0.820030 0.859818 0.000000 
0.474522 -0.713189 0.000000 
0.699407 -0.045909 0.000000 
0.109248 0.430846 0.000000 
0.441768 -0.873703 0.000000 
-0.039645 -0.373832 0.000000 
0.417537 0.328731 0.000000 
0.033296 0.829240 0.000000 
-0.338794 -0.903486 0.000000 
-0.374519 -0.330523 0.000000 
-0.713312 0.288906 0.000000 
0.609100 0.177766 0.000000 
-0.381900 0.291705 0.000000 
-0.756418 0.834097 0.000000 
0.513962 0.622611 0.000000 
0.218274 -0.653150 0.000000 
-0.423588 -0.687254 0.000000 
-0.384386 0.927474 0.000000 
-0.766286 -0.557906 0.000000 
0.484677 -0.823121 0.000000 
0.139443 -0.184997 0.000000 
-0.556234 -0.302565 0.000000 
-0.823577 0.470939 0.000000 
0.550868 0.460143 0.000000 
-0.386873 -0.436757 0.000000 
-0.771260 0.063632 0.000000 
0.467428 -0.242896 0.000000 
0.105264 0.355730 0.000000 
-0.621631 0.173831 0.000000 
-0.937896 0.877411 0.000000 
0.385608 0.798216 0.000000 
0.141715 -0.392556 0.000000 
-0.474677 -0.392460 0.000000 
CELL_DATA 175 
SCALARS MASS float 
LOOKUP_TABLE default 
0.781831 
0.864274 
0.946717 
0.864274 
0.881307 
0.921110 
0.858535 
0.921110 
0.881307 
0.887046 
0.910001 
0.869829 
0.915556 
0.869829 
0.910001 
0.887046 
0.892784 
0.915740 
0.892784 
0.927218 
0.892784 
0.927218 
0.892784 
0.915740 
0.892784 
0.781831 
0.864274 
0.946717 
0.864274 
0.881307 
0.921110 
0.858535 
0.921110 
0.881307 
0.887046 
0.910001 
0.869829 
0.915556 
0.869829 
0.910001 
0.887046 
0.892784 
0.915740 
0.892784 
0.927218 
0.892784 
0.927218 
0.892784 
0.915740 
0.892784 
0.781831 
0.864274 
0.946717 
0.864274 
0.881307 
0.921110 
0.858535 
0.921110 
0.881307 
0.887046 
0.910001 
0.869829 
0.915556 
0.869829 
0.910001 
0.887046 
0.892784 
0.915740 
0.892784 
0.927218 
0.892784 
0.927218 
0.892784 
0.915740 
0.892784 
0.781831 
0.864274 
0.946717 
0.864274 
0.881307 
0.921110 
0.858535 
0.921110 
0.881307 
0.887046 
0.910001 
0.869829 
0.915556 
0.869829 
0.910001 
0.887046 
0.892784 
0.915740 
0.892784 
0.927218 
0.892784 
0.927218 
0.892784 
0.915740 
0.892784 
0.781831 
0.864274 
0.946717 
0.864274 
0.881307 
0.921110 
0.858535 
0.921110 
0.881307 
0.887046 
0.910001 
0.869829 
0.915556 
0.869829 
0.910001 
0.887046 
0.892784 
0.915740 
0.892784 
0.927218 
0.892784 
0.927218 
0.892784 
0.915740 
0.892784 
0.781831 
0.864274 
0.946717 
0.864274 
0.881307 
0.921110 
0.858535 
0.921110 
0.881307 
0.887046 
0.910001 
0.869829 
0.915556 
0.869829 
0.910001 
0.887046 
0.892784 
0.915740 
0.892784 
0.927218 
0.892784 
0.927218 
0.892784 
0.915740 
0.892784 
0.781831 
0.864274 
0.946717 
0.864274 
0.881307 
0.921110 
0.858535 
0.921110 
0.881307 
0.887046 
0.910001 
0.869829 
0.915556 
0.869829 
0.910001 
0.887046 
0.892784 
0.915740 
0.892784 
0.927218 
0.892784 
0.927218 
0.892784 
0.915740 
0.892784 
SCALARS MASS float 
LOOKUP_TABLE default 
0.781831 
0.864274 
0.946717 
0.864274 
0.881307 
0.921110 
0.858535 
0.921110 
0.881307 
0.887046 
0.910001 
0.869829 
0.915556 
0.869829 
0.910001 
0.887046 
0.892784 
0.915740 
0.892784 
0.927218 
0.892784 
0.927218 
0.892784 
0.915740 
0.892784 
0.781831 
0.864274 
0.946717 
0.864274 
0.881307 
0.921110 
0.858535 
0.921110 
0.881307 
0.887046 
0.910001 
0.869829 
0.915556 
0.869829 
0.910001 
0.887046 
0.892784 
0.915740 
0.892784 
0.927218 
0.892784 
0.927218 
0.892784 
0.915740 
0.892784 
0.781831 
0.864274 
0.946717 
0.864274 
0.881307 
0.921110 
0.858535 
0.921110 
0.881307 
0.887046 
0.910001 
0.869829 
0.915556 
0.869829 
0.910001 
0.887046 
0.892784 
0.915740 
0.892784 
0.927218 
0.892784 
0.927218 
0.892784 
0.915740 
0.892784 
0.781831 
0.864274 
0.946717 
0.864274 
0.881307 
0.921110 
0.858535 
0.921110 
0.881307 
0.887046 
0.910001 
0.869829 
0.915556 
0.869829 
0.910001 
0.887046 
0.892784 
0.915740 
0.892784 
0.927218 
0.892784 
0.927218 
0.892784 
0.915740 
0.892784 
0.781831 
0.864274 
0.946717 
0.864274 
0.881307 
0.921110 
0.858535 
0.921110 
0.881307 
0.887046 
0.910001 
0.869829 
0.915556 
0.869829 
0.910001 
0.887046 
0.892784 
0.915740 
0.892784 
0.927218 
0.892784 
0.927218 
0.892784 
0.915740 
0.892784 
0.781831 
0.864274 
0.946717 
0.864274 
0.881307 
0.921110 
0.858535 
0.921110 
0.881307 
0.887046 
0.910001 
0.869829 
0.915556 
0.869829 
0.910001 
0.887046 
0.892784 
0.915740 
0.892784 
0.927218 
0.892784 
0.927218 
0.892784 
0.915740 
0.892784 
0.781831 
0.864274 
0.946717 
0.864274 
0.881307 
0.921110 
0.858535 
0.921110 
0.881307 
0.887046 
0.910001 
0.869829 
0.915556 
0.869829 
0.910001 
0.887046 
0.892784 
0.915740 
0.892784 
0.927218 
0.892784 
0.927218 
0.892784 
0.915740 
0.892784 
SCALARS DENSITY float 
LOOKUP_TABLE default 
200.000000 
200.000000 
200.000000 
200.000000 
200.000000 
200.000000 
200.000000 
200.000000 
200.000000 
200.000000 
200.000000 
200.000000 
200.000000 
200.000000 
200.000000 
200.000000 
200.000000 
200.000000 
200.000000 
200.000000 
200.000000 
200.000000 
200.000000 
200.000000 
200.000000 
200.000000 
200.000000 
200.000000 
200.000000 
200.000000 
200.000000 
200.000000 
200.000000 
200.000000 
200.000000 
200.000000 
200.000000 
200.000000 
200.000000 
200.000000 
200.000000 
200.000000 
200.000000 
200.000000 
200.000000 
200.000000 
200.000000 
200.000000 
200.000000 
200.000000 
200.000000 
200.000000 
200.000000 
200.000000 
200.000000 
200.000000 
200.000000 
200.000000 
200.000000 
200.000000 
200.000000 
200.000000 
200.000000 
200.000000 
200.000000 
200.000000 
200.000000 
200.000000 
200.000000 
200.000000 
200.000000 
200.000000 
200.000000 
200.000000 
200.000000 
200.000000 
200.000000 
200.000000 
200.000000 
200.000000 
200.000000 
200.000000 
200.000000 
200.000000 
200.000000 
200.000000 
200.000000 
200.000000 
200.000000 
200.000000 
200.000000 
200.000000 
200.000000 
200.000000 
200.000000 
200.000000 
200.000000 
200.000000 
200.000000 
200.000000 
200.000000 
200.000000 
200.000000 
200.000000 
200.000000 
200.000000 
200.000000 
200.000000 
200.000000 
200.000000 
200.000000 
200.000000 
200.000000 
200.000000 
200.000000 
200.000000 
200.000000 
200.000000 
200.000000 
200.000000 
200.000000 
200.000000 
200.000000 
200.000000 
200.000000 
200.000000 
200.000000 
200.000000 
200.000000 
200.000000 
200.000000 
200.000000 
200.000000 
200.000000 
200.000000 
200.000000 
200.000000 
200.000000 
200.000000 
200.000000 
200.000000 
200.000000 
200.000000 
200.000000 
200.000000 
200.000000 
200.000000 
200.000000 
200.000000 
200.000000 
200.000000 
200.000000 
200.000000 
200.000000 
200.000000 
200.000000 
200.000000 
200.000000 
200.000000 
200.000000 
200.000000 
200.000000 
200.000000 
200.000000 
200.000000 
200.000000 
200.000000 
200.000000 
200.000000 
200.000000 
200.000000 
200.000000 
200.000000 
200.000000 
200.000000 
SCALARS ELEM_i float 
LOOKUP_TABLE default 
167 
195 
168 
168 
195 
195 
196 
169 
169 
223 
196 
196 
196 
196 
169 
170 
223 
223 
224 
197 
197 
197 
197 
170 
170 
167 
194 
194 
195 
221 
194 
221 
195 
195 
221 
221 
221 
222 
222 
222 
222 
248 
248 
248 
248 
249 
249 
249 
223 
223 
167 
193 
194 
194 
193 
193 
193 
193 
220 
192 
192 
219 
220 
220 
220 
220 
191 
219 
219 
219 
219 
220 
247 
247 
247 
167 
166 
166 
166 
138 
166 
165 
166 
192 
138 
138 
165 
165 
165 
192 
192 
137 
137 
137 
164 
164 
164 
191 
191 
191 
167 
140 
140 
139 
112 
139 
139 
139 
139 
112 
112 
112 
112 
111 
138 
138 
85 
85 
85 
112 
111 
111 
111 
111 
137 
167 
141 
140 
140 
141 
141 
113 
140 
113 
114 
114 
114 
114 
113 
113 
113 
115 
115 
87 
87 
87 
86 
86 
86 
86 
167 
168 
168 
141 
169 
169 
142 
141 
141 
170 
169 
142 
142 
142 
142 
115 
170 
170 
143 
143 
143 
143 
116 
115 
115 
VECTORS VELOCITY float 
0.000000 -6.527574 0.000000 
-0.000000 -6.527574 0.000000 
-0.000000 -6.527574 0.000000 
-0.000000 -6.527574 0.000000 
0.000000 -6.527574 0.000000 
0.000000 -6.527574 0.000000 
0.000000 -6.527574 0.000000 
-0.000000 -6.527574 0.000000 
0.000000 -6.527574 0.000000 
0.000000 -6.527574 0.000000 
0.000000 -6.527574 0.000000 
0.000000 -6.527574 0.000000 
0.000000 -6.527574 0.000000 
0.000000 -6.527574 0.000000 
0.000000 -6.527574 0.000000 
0.000000 -6.527574 0.000000 
-0.000000 -6.527574 0.000000 
-0.000000 -6.527574 0.000000 
0.000000 -6.527574 0.000000 
0.000000 -6.527574 0.000000 
0.000000 -6.527574 0.000000 
0.000000 -6.527574 0.000000 
0.000000 -6.527574 0.000000 
0.000000 -6.527574 0.000000 
0.000000 -6.527574 0.000000 
0.000000 -6.527574 0.000000 
-0.000000 -6.527574 0.000000 
0.000000 -6.527574 0.000000 
0.000000 -6.527574 0.000000 
-0.000000 -6.527574 0.000000 
-0.000000 -6.527574 0.000000 
-0.000000 -6.527574 0.000000 
0.000000 -6.527574 0.000000 
0.000000 -6.527574 0.000000 
-0.000000 -6.527574 0.000000 
-0.000000 -6.527574 0.000000 
-0.000000 -6.527574 0.000000 
-0.000000 -6.527574 0.000000 
-0.000000 -6.527574 0.000000 
0.000000 -6.527574 0.000000 
0.000000 -6.527574 0.000000 
0.000000 -6.527574 0.000000 
0.000000 -6.527574 0.000000 
0.000000 -6.527574 0.000000 
-0.000000 -6.527574 0.000000 
-0.000000 -6.527574 0.000000 
-0.000000 -6.527574 0.000000 
0.000000 -6.527574 0.000000 
-0.000000 -6.527574 0.000000 
-0.000000 -6.527574 0.000000 
-0.000000 -6.527574 0.000000 
-0.000000 -6.527574 0.000000 
-0.000000 -6.527574 0.000000 
-0.000000 -6.527574 0.000000 
-0.000000 -6.527574 0.000000 
-0.000000 -6.527574 0.000000 
-0.000000 -6.527574 0.000000 
-0.000000 -6.527574 0.000000 
0.000000 -6.527574 0.000000 
-0.000000 -6.527574 0.000000 
-0.000000 -6.527574 0.000000 
-0.000000 -6.527574 0.000000 
-0.000000 -6.527574 0.000000 
-0.000000 -6.527574 0.000000 
-0.000000 -6.527574 0.000000 
-0.000000 -6.527574 0.000000 
0.000000 -6.527574 0.000000 
-0.000000 -6.527574 0.000000 
0.000000 -6.527574 0.000000 
-0.000000 -6.527574 0.000000 
-0.000000 -6.527574 0.000000 
-0.000000 -6.527574 0.000000 
0.000000 -6.527574 0.000000 
-0.000000 -6.527574 0.000000 
0.000000 -6.527574 0.000000 
0.000000 -6.527574 0.000000 
-0.000000 -6.527574 0.000000 
-0.000000 -6.527574 0.000000 
-0.000000 -6.527574 0.000000 
-0.000000 -6.527574 0.000000 
-0.000000 -6.527574 0.000000 
-0.000000 -6.527574 0.000000 
-0.000000 -6.527574 0.000000 
-0.000000 -6.527574 0.000000 
0.000000 -6.527574 0.000000 
0.000000 -6.527574 0.000000 
0.000000 -6.527574 0.000000 
-0.000000 -6.527574 0.000000 
-0.000000 -6.527574 0.000000 
-0.000000 -6.527574 0.000000 
-0.000000 -6.527574 0.000000 
0.000000 -6.527574 0.000000 
0.000000 -6.527574 0.000000 
-0.000000 -6.527574 0.000000 
0.000000 -6.527574 0.000000 
-0.000000 -6.527574 0.000000 
0.000000 -6.527574 0.000000 
0.000000 -6.527574 0.000000 
0.000000 -6.527574 0.000000 
0.000000 -6.527574 0.000000 
0.000000 -6.527574 0.000000 
-0.000000 -6.527574 0.000000 
0.000000 -6.527574 0.000000 
-0.000000 -6.527574 0.000000 
-0.000000 -6.527574 0.000000 
-0.000000 -6.527574 0.000000 
-0.000000 -6.527574 0.000000 
-0.000000 -6.527574 0.000000 
0.000000 -6.527574 0.000000 
0.000000 -6.527574 0.000000 
-0.000000 -6.527574 0.000000 
-0.000000 -6.527574 0.000000 
-0.000000 -6.527574 0.000000 
0.000000 -6.527574 0.000000 
0.000000 -6.527574 0.000000 
0.000000 -6.527574 0.000000 
0.000000 -6.527574 0.000000 
-0.000000 -6.527574 0.000000 
0.000000 -6.527574 0.000000 
-0.000000 -6.527574 0.000000 
-0.000000 -6.527574 0.000000 
-0.000000 -6.527574 0.000000 
0.000000 -6.527574 0.000000 
-0.000000 -6.527574 0.000000 
0.000000 -6.527574 0.000000 
0.000000 -6.527574 0.000000 
0.000000 -6.527574 0.000000 
0.000000 -6.527574 0.000000 
-0.000000 -6.527574 0.000000 
0.000000 -6.527574 0.000000 
-0.000000 -6.527574 0.000000 
-0.000000 -6.527574 0.000000 
-0.000000 -6.527574 0.000000 
-0.000000 -6.527574 0.000000 
0.000000 -6.527574 0.000000 
0.000000 -6.527574 0.000000 
0.000000 -6.527574 0.000000 
-0.000000 -6.527574 0.000000 
0.000000 -6.527574 0.000000 
0.000000 -6.527574 0.000000 
0.000000 -6.527574 0.000000 
-0.000000 -6.527574 0.000000 
0.000000 -6.527574 0.000000 
0.000000 -6.527574 0.000000 
0.000000 -6.527574 0.000000 
0.000000 -6.527574 0.000000 
0.000000 -6.527574 0.000000 
-0.000000 -6.527574 0.000000 
0.000000 -6.527574 0.000000 
-0.000000 -6.527574 0.000000 
0.000000 -6.527574 0.000000 
0.000000 -6.527574 0.000000 
0.000000 -6.527574 0.000000 
0.000000 -6.527574 0.000000 
0.000000 -6.527574 0.000000 
0.000000 -6.527574 0.000000 
0.000000 -6.527574 0.000000 
0.000000 -6.527574 0.000000 
0.000000 -6.527574 0.000000 
0.000000 -6.527574 0.000000 
0.000000 -6.527574 0.000000 
0.000000 -6.527574 0.000000 
0.000000 -6.527574 0.000000 
0.000000 -6.527574 0.000000 
0.000000 -6.527574 0.000000 
0.000000 -6.527574 0.000000 
0.000000 -6.527574 0.000000 
0.000000 -6.527574 0.000000 
0.000000 -6.527574 0.000000 
-0.000000 -6.527574 0.000000 
-0.000000 -6.527574 0.000000 
0.000000 -6.527574 0.000000 
0.000000 -6.527574 0.000000 
0.000000 -6.527574 0.000000 
0.000000 -6.527574 0.000000 
TENSORS STRESS float 
-0.000000 -0.000000 0.000000 
0.000000 -0.000000 0.000000 
0.000000 0.000000 0.000000 

0.000000 0.000000 0.000000 
0.000000 0.000000 0.000000 
0.000000 0.000000 0.000000 

0.000000 0.000000 0.000000 
0.000000 0.000000 0.000000 
0.000000 0.000000 0.000000 

0.000000 0.000000 0.000000 
0.000000 0.000000 0.000000 
0.000000 0.000000 0.000000 

-0.000000 0.000000 0.000000 
0.000000 -0.000000 0.000000 
0.000000 0.000000 0.000000 

0.000000 0.000000 0.000000 
0.000000 0.000000 0.000000 
0.000000 0.000000 0.000000 

0.000000 0.000000 0.000000 
0.000000 0.000000 0.000000 
0.000000 0.000000 0.000000 

-0.000000 0.000000 0.000000 
0.000000 -0.000000 0.000000 
0.000000 0.000000 0.000000 

-0.000000 0.000000 0.000000 
0.000000 -0.000000 0.000000 
0.000000 0.000000 0.000000 

0.000000 0.000000 0.000000 
0.000000 0.000000 0.000000 
0.000000 0.000000 0.000000 

-0.000000 0.000000 0.000000 
0.000000 -0.000000 0.000000 