# vtk DataFile Version 3.0 
vtk output 
ASCII 
DATASET UNSTRUCTURED_GRID 
POINTS 175 float 
-0.026031 -2.423529 0.000000 
-0.106944 -2.355398 0.000000 
-0.054830 -2.363656 0.000000 
-0.028797 -2.317733 0.000000 
-0.186409 -2.291257 0.000000 
-0.137035 -2.293798 0.000000 
-0.114301 -2.240140 0.000000 
-0.058180 -2.255814 0.000000 
-0.029375 -2.215629 0.000000 
-0.265307 -2.228084 0.000000 
-0.217184 -2.228891 0.000000 
-0.196625 -2.171593 0.000000 
-0.143113 -2.180307 0.000000 
-0.116561 -2.133033 0.000000 
-0.058943 -2.152684 0.000000 
-0.029568 -2.114558 0.000000 
-0.344205 -2.164920 0.000000 
-0.296787 -2.164917 0.000000 
-0.278028 -2.104976 0.000000 
-0.225988 -2.110845 0.000000 
-0.201662 -2.058728 0.000000 
-0.145747 -2.072203 0.000000 
-0.117889 -2.027860 0.000000 
-0.059327 -2.050567 0.000000 
-0.029759 -2.013500 0.000000 
-0.058488 -2.464320 0.000000 
-0.162158 -2.485052 0.000000 
-0.123213 -2.449473 0.000000 
-0.142856 -2.400446 0.000000 
-0.261831 -2.507037 0.000000 
-0.229043 -2.470082 0.000000 
-0.256822 -2.418849 0.000000 
-0.209570 -2.384774 0.000000 
-0.223031 -2.337187 0.000000 
-0.360536 -2.529156 0.000000 
-0.329835 -2.492138 0.000000 
-0.361789 -2.440377 0.000000 
-0.321584 -2.404029 0.000000 
-0.341987 -2.353802 0.000000 
-0.290689 -2.321038 0.000000 
-0.302180 -2.274310 0.000000 
-0.459366 -2.551341 0.000000 
-0.429655 -2.514349 0.000000 
-0.464771 -2.462384 0.000000 
-0.427629 -2.425433 0.000000 
-0.453200 -2.373947 0.000000 
-0.407763 -2.338675 0.000000 
-0.425056 -2.289273 0.000000 
-0.370773 -2.257669 0.000000 
-0.381318 -2.211444 0.000000 
-0.046908 -2.515205 0.000000 
-0.095245 -2.609411 0.000000 
-0.098793 -2.556604 0.000000 
-0.149331 -2.541269 0.000000 
-0.140114 -2.700899 0.000000 
-0.148603 -2.652108 0.000000 
-0.205996 -2.641393 0.000000 
-0.203136 -2.583481 0.000000 
-0.248742 -2.564282 0.000000 
-0.186280 -2.790267 0.000000 
-0.194709 -2.743796 0.000000 
-0.255449 -2.736044 0.000000 
-0.258286 -2.682278 0.000000 
-0.310630 -2.666966 0.000000 
-0.303809 -2.606797 0.000000 
-0.347521 -2.586685 0.000000 
-0.235229 -2.877252 0.000000 
-0.243810 -2.833759 0.000000 
-0.306945 -2.829344 0.000000 
-0.310503 -2.777822 0.000000 
-0.366967 -2.765866 0.000000 
-0.364352 -2.708680 0.000000 
-0.413759 -2.691564 0.000000 
-0.403908 -2.629676 0.000000 
-0.446465 -2.609225 0.000000 
-0.000000 -2.537851 0.000000 
0.043347 -2.634669 0.000000 
-0.000000 -2.604452 0.000000 
-0.043347 -2.634669 0.000000 
0.087097 -2.727068 0.000000 
0.043712 -2.703537 0.000000 
-0.000000 -2.741835 0.000000 
-0.043712 -2.703537 0.000000 
-0.087097 -2.727068 0.000000 
0.132842 -2.816125 0.000000 
0.088569 -2.795448 0.000000 
0.045099 -2.837496 0.000000 
-0.000000 -2.807006 0.000000 
-0.045099 -2.837496 0.000000 
-0.088569 -2.795448 0.000000 
-0.132842 -2.816125 0.000000 
0.180371 -2.898230 0.000000 
0.135627 -2.882412 0.000000 
0.091898 -2.915540 0.000000 
0.045768 -2.896569 0.000000 
-0.000000 -2.920943 0.000000 
-0.045768 -2.896569 0.000000 
-0.091898 -2.915540 0.000000 
-0.135627 -2.882412 0.000000 
-0.180371 -2.898230 0.000000 
0.046908 -2.515205 0.000000 
0.149331 -2.541269 0.000000 
0.098793 -2.556604 0.000000 
0.095245 -2.609411 0.000000 
0.248742 -2.564282 0.000000 
0.203136 -2.583481 0.000000 
0.205996 -2.641393 0.000000 
0.148603 -2.652108 0.000000 
0.140114 -2.700899 0.000000 
0.347521 -2.586685 0.000000 
0.303809 -2.606797 0.000000 
0.310630 -2.666966 0.000000 
0.258286 -2.682278 0.000000 
0.255449 -2.736044 0.000000 
0.194709 -2.743796 0.000000 
0.186280 -2.790267 0.000000 
0.446465 -2.609225 0.000000 
0.403908 -2.629676 0.000000 
0.413759 -2.691564 0.000000 
0.364352 -2.708680 0.000000 
0.366967 -2.765866 0.000000 
0.310503 -2.777822 0.000000 
0.306945 -2.829344 0.000000 
0.243810 -2.833759 0.000000 
0.235229 -2.877252 0.000000 
0.058488 -2.464320 0.000000 
0.142856 -2.400446 0.000000 
0.123213 -2.449473 0.000000 
0.162158 -2.485052 0.000000 
0.223031 -2.337187 0.000000 
0.209570 -2.384774 0.000000 
0.256822 -2.418849 0.000000 
0.229043 -2.470082 0.000000 
0.261831 -2.507037 0.000000 
0.302180 -2.274310 0.000000 
0.290689 -2.321038 0.000000 
0.341987 -2.353802 0.000000 
0.321584 -2.404029 0.000000 
0.361789 -2.440377 0.000000 
0.329835 -2.492138 0.000000 
0.360536 -2.529156 0.000000 
0.381318 -2.211444 0.000000 
0.370773 -2.257669 0.000000 
0.425056 -2.289273 0.000000 
0.407763 -2.338675 0.000000 
0.453200 -2.373947 0.000000 
0.427629 -2.425433 0.000000 
0.464771 -2.462384 0.000000 
0.429655 -2.514349 0.000000 
0.459366 -2.551341 0.000000 
0.026031 -2.423529 0.000000 
0.028797 -2.317733 0.000000 
0.054830 -2.363656 0.000000 
0.106944 -2.355398 0.000000 
0.029375 -2.215629 0.000000 
0.058180 -2.255814 0.000000 
0.114301 -2.240140 0.000000 
0.137035 -2.293798 0.000000 
0.186409 -2.291257 0.000000 
0.029568 -2.114558 0.000000 
0.058943 -2.152684 0.000000 
0.116561 -2.133033 0.000000 
0.143113 -2.180307 0.000000 
0.196625 -2.171593 0.000000 
0.217184 -2.228891 0.000000 
0.265307 -2.228084 0.000000 
0.029759 -2.013500 0.000000 
0.059327 -2.050567 0.000000 
0.117889 -2.027860 0.000000 
0.145747 -2.072203 0.000000 
0.201662 -2.058728 0.000000 
0.225988 -2.110845 0.000000 
0.278028 -2.104976 0.000000 
0.296787 -2.164917 0.000000 
0.344205 -2.164920 0.000000 
CELLS 175 350 
1 0 
1 1 
1 2 
1 3 
1 4 
1 5 
1 6 
1 7 
1 8 
1 9 
1 10 
1 11 
1 12 
1 13 
1 14 
1 15 
1 16 
1 17 
1 18 
1 19 
1 20 
1 21 
1 22 
1 23 
1 24 
1 25 
1 26 
1 27 
1 28 
1 29 
1 30 
1 31 
1 32 
1 33 
1 34 
1 35 
1 36 
1 37 
1 38 
1 39 
1 40 
1 41 
1 42 
1 43 
1 44 
1 45 
1 46 
1 47 
1 48 
1 49 
1 50 
1 51 
1 52 
1 53 
1 54 
1 55 
1 56 
1 57 
1 58 
1 59 
1 60 
1 61 
1 62 
1 63 
1 64 
1 65 
1 66 
1 67 
1 68 
1 69 
1 70 
1 71 
1 72 
1 73 
1 74 
1 75 
1 76 
1 77 
1 78 
1 79 
1 80 
1 81 
1 82 
1 83 
1 84 
1 85 
1 86 
1 87 
1 88 
1 89 
1 90 
1 91 
1 92 
1 93 
1 94 
1 95 
1 96 
1 97 
1 98 
1 99 
1 100 
1 101 
1 102 
1 103 
1 104 
1 105 
1 106 
1 107 
1 108 
1 109 
1 110 
1 111 
1 112 
1 113 
1 114 
1 115 
1 116 
1 117 
1 118 
1 119 
1 120 
1 121 
1 122 
1 123 
1 124 
1 125 
1 126 
1 127 
1 128 
1 129 
1 130 
1 131 
1 132 
1 133 
1 134 
1 135 
1 136 
1 137 
1 138 
1 139 
1 140 
1 141 
1 142 
1 143 
1 144 
1 145 
1 146 
1 147 
1 148 
1 149 
1 150 
1 151 
1 152 
1 153 
1 154 
1 155 
1 156 
1 157 
1 158 
1 159 
1 160 
1 161 
1 162 
1 163 
1 164 
1 165 
1 166 
1 167 
1 168 
1 169 
1 170 
1 171 
1 172 
1 173 
1 174 
CELL_TYPES 175 
1 
1 
1 
1 
1 
1 
1 
1 
1 
1 
1 
1 
1 
1 
1 
1 
1 
1 
1 
1 
1 
1 
1 
1 
1 
1 
1 
1 
1 
1 
1 
1 
1 
1 
1 
1 
1 
1 
1 
1 
1 
1 
1 
1 
1 
1 
1 
1 
1 
1 
1 
1 
1 
1 
1 
1 
1 
1 
1 
1 
1 
1 
1 
1 
1 
1 
1 
1 
1 
1 
1 
1 
1 
1 
1 
1 
1 
1 
1 
1 
1 
1 
1 
1 
1 
1 
1 
1 
1 
1 
1 
1 
1 
1 
1 
1 
1 
1 
1 
1 
1 
1 
1 
1 
1 
1 
1 
1 
1 
1 
1 
1 
1 
1 
1 
1 
1 
1 
1 
1 
1 
1 
1 
1 
1 
1 
1 
1 
1 
1 
1 
1 
1 
1 
1 
1 
1 
1 
1 
1 
1 
1 
1 
1 
1 
1 
1 
1 
1 
1 
1 
1 
1 
1 
1 
1 
1 
1 
1 
1 
1 
1 
1 
1 
1 
1 
1 
1 
1 
1 
1 
1 
1 
1 
1 
POINT_DATA 175 
VECTORS X_GC float 
-0.026031 -2.423529 0.000000 
-0.106944 -2.355398 0.000000 
-0.054830 -2.363656 0.000000 
-0.028797 -2.317733 0.000000 
-0.186409 -2.291257 0.000000 
-0.137035 -2.293798 0.000000 
-0.114301 -2.240140 0.000000 
-0.058180 -2.255814 0.000000 
-0.029375 -2.215629 0.000000 
-0.265307 -2.228084 0.000000 
-0.217184 -2.228891 0.000000 
-0.196625 -2.171593 0.000000 
-0.143113 -2.180307 0.000000 
-0.116561 -2.133033 0.000000 
-0.058943 -2.152684 0.000000 
-0.029568 -2.114558 0.000000 
-0.344205 -2.164920 0.000000 
-0.296787 -2.164917 0.000000 
-0.278028 -2.104976 0.000000 
-0.225988 -2.110845 0.000000 
-0.201662 -2.058728 0.000000 
-0.145747 -2.072203 0.000000 
-0.117889 -2.027860 0.000000 
-0.059327 -2.050567 0.000000 
-0.029759 -2.013500 0.000000 
-0.058488 -2.464320 0.000000 
-0.162158 -2.485052 0.000000 
-0.123213 -2.449473 0.000000 
-0.142856 -2.400446 0.000000 
-0.261831 -2.507037 0.000000 
-0.229043 -2.470082 0.000000 
-0.256822 -2.418849 0.000000 
-0.209570 -2.384774 0.000000 
-0.223031 -2.337187 0.000000 
-0.360536 -2.529156 0.000000 
-0.329835 -2.492138 0.000000 
-0.361789 -2.440377 0.000000 
-0.321584 -2.404029 0.000000 
-0.341987 -2.353802 0.000000 
-0.290689 -2.321038 0.000000 
-0.302180 -2.274310 0.000000 
-0.459366 -2.551341 0.000000 
-0.429655 -2.514349 0.000000 
-0.464771 -2.462384 0.000000 
-0.427629 -2.425433 0.000000 
-0.453200 -2.373947 0.000000 
-0.407763 -2.338675 0.000000 
-0.425056 -2.289273 0.000000 
-0.370773 -2.257669 0.000000 
-0.381318 -2.211444 0.000000 
-0.046908 -2.515205 0.000000 
-0.095245 -2.609411 0.000000 
-0.098793 -2.556604 0.000000 
-0.149331 -2.541269 0.000000 
-0.140114 -2.700899 0.000000 
-0.148603 -2.652108 0.000000 
-0.205996 -2.641393 0.000000 
-0.203136 -2.583481 0.000000 
-0.248742 -2.564282 0.000000 
-0.186280 -2.790267 0.000000 
-0.194709 -2.743796 0.000000 
-0.255449 -2.736044 0.000000 
-0.258286 -2.682278 0.000000 
-0.310630 -2.666966 0.000000 
-0.303809 -2.606797 0.000000 
-0.347521 -2.586685 0.000000 
-0.235229 -2.877252 0.000000 
-0.243810 -2.833759 0.000000 
-0.306945 -2.829344 0.000000 
-0.310503 -2.777822 0.000000 
-0.366967 -2.765866 0.000000 
-0.364352 -2.708680 0.000000 
-0.413759 -2.691564 0.000000 
-0.403908 -2.629676 0.000000 
-0.446465 -2.609225 0.000000 
-0.000000 -2.537851 0.000000 
0.043347 -2.634669 0.000000 
-0.000000 -2.604452 0.000000 
-0.043347 -2.634669 0.000000 
0.087097 -2.727068 0.000000 
0.043712 -2.703537 0.000000 
-0.000000 -2.741835 0.000000 
-0.043712 -2.703537 0.000000 
-0.087097 -2.727068 0.000000 
0.132842 -2.816125 0.000000 
0.088569 -2.795448 0.000000 
0.045099 -2.837496 0.000000 
-0.000000 -2.807006 0.000000 
-0.045099 -2.837496 0.000000 
-0.088569 -2.795448 0.000000 
-0.132842 -2.816125 0.000000 
0.180371 -2.898230 0.000000 
0.135627 -2.882412 0.000000 
0.091898 -2.915540 0.000000 
0.045768 -2.896569 0.000000 
-0.000000 -2.920943 0.000000 
-0.045768 -2.896569 0.000000 
-0.091898 -2.915540 0.000000 
-0.135627 -2.882412 0.000000 
-0.180371 -2.898230 0.000000 
0.046908 -2.515205 0.000000 
0.149331 -2.541269 0.000000 
0.098793 -2.556604 0.000000 
0.095245 -2.609411 0.000000 
0.248742 -2.564282 0.000000 
0.203136 -2.583481 0.000000 
0.205996 -2.641393 0.000000 
0.148603 -2.652108 0.000000 
0.140114 -2.700899 0.000000 
0.347521 -2.586685 0.000000 
0.303809 -2.606797 0.000000 
0.310630 -2.666966 0.000000 
0.258286 -2.682278 0.000000 
0.255449 -2.736044 0.000000 
0.194709 -2.743796 0.000000 
0.186280 -2.790267 0.000000 
0.446465 -2.609225 0.000000 
0.403908 -2.629676 0.000000 
0.413759 -2.691564 0.000000 
0.364352 -2.708680 0.000000 
0.366967 -2.765866 0.000000 
0.310503 -2.777822 0.000000 
0.306945 -2.829344 0.000000 
0.243810 -2.833759 0.000000 
0.235229 -2.877252 0.000000 
0.058488 -2.464320 0.000000 
0.142856 -2.400446 0.000000 
0.123213 -2.449473 0.000000 
0.162158 -2.485052 0.000000 
0.223031 -2.337187 0.000000 
0.209570 -2.384774 0.000000 
0.256822 -2.418849 0.000000 
0.229043 -2.470082 0.000000 
0.261831 -2.507037 0.000000 
0.302180 -2.274310 0.000000 
0.290689 -2.321038 0.000000 
0.341987 -2.353802 0.000000 
0.321584 -2.404029 0.000000 
0.361789 -2.440377 0.000000 
0.329835 -2.492138 0.000000 
0.360536 -2.529156 0.000000 
0.381318 -2.211444 0.000000 
0.370773 -2.257669 0.000000 
0.425056 -2.289273 0.000000 
0.407763 -2.338675 0.000000 
0.453200 -2.373947 0.000000 
0.427629 -2.425433 0.000000 
0.464771 -2.462384 0.000000 
0.429655 -2.514349 0.000000 
0.459366 -2.551341 0.000000 
0.026031 -2.423529 0.000000 
0.028797 -2.317733 0.000000 
0.054830 -2.363656 0.000000 
0.106944 -2.355398 0.000000 
0.029375 -2.215629 0.000000 
0.058180 -2.255814 0.000000 
0.114301 -2.240140 0.000000 
0.137035 -2.293798 0.000000 
0.186409 -2.291257 0.000000 
0.029568 -2.114558 0.000000 
0.058943 -2.152684 0.000000 
0.116561 -2.133033 0.000000 
0.143113 -2.180307 0.000000 
0.196625 -2.171593 0.000000 
0.217184 -2.228891 0.000000 
0.265307 -2.228084 0.000000 
0.029759 -2.013500 0.000000 
0.059327 -2.050567 0.000000 
0.117889 -2.027860 0.000000 
0.145747 -2.072203 0.000000 
0.201662 -2.058728 0.000000 
0.225988 -2.110845 0.000000 
0.278028 -2.104976 0.000000 
0.296787 -2.164917 0.000000 
0.344205 -2.164920 0.000000 
VECTORS X_EC float 
0.338409 -0.782352 0.000000 
-0.609727 0.297871 0.000000 
0.712794 0.409350 0.000000 
0.374362 -0.210602 0.000000 
0.423311 -0.568025 0.000000 
-0.218545 -0.533731 0.000000 
-0.514081 0.741896 0.000000 
0.756343 0.953488 0.000000 
0.381872 0.410995 0.000000 
-0.551012 0.579137 0.000000 
0.823390 0.590034 0.000000 
0.556131 -0.183494 0.000000 
-0.139527 -0.065862 0.000000 
-0.484707 -0.704053 0.000000 
0.766265 -0.438773 0.000000 
0.384381 -0.953468 0.000000 
0.474666 -0.273586 0.000000 
-0.141768 -0.273615 0.000000 
-0.385637 0.917176 0.000000 
0.937847 0.996412 0.000000 
0.621600 0.292827 0.000000 
-0.105288 0.474746 0.000000 
-0.467443 -0.123891 0.000000 
0.771251 0.182658 0.000000 
0.386869 -0.317750 0.000000 
0.760348 -0.231684 0.000000 
0.108050 0.048200 0.000000 
-0.398231 -0.432112 0.000000 
-0.142870 0.906019 0.000000 
-0.596196 0.344996 0.000000 
0.977558 -0.153890 0.000000 
-0.661314 -0.845532 0.000000 
0.724412 0.694446 0.000000 
0.899404 0.052023 0.000000 
0.686974 0.643611 0.000000 
0.287860 0.143863 0.000000 
0.703260 -0.554913 0.000000 
0.180587 0.954398 0.000000 
0.445835 0.276332 0.000000 
-0.221049 -0.165991 0.000000 
-0.071659 -0.796820 0.000000 
-0.028240 0.943100 0.000000 
-0.414488 0.443706 0.000000 
0.042024 -0.257815 0.000000 
-0.440829 -0.756654 0.000000 
-0.108394 0.548291 0.000000 
-0.699077 0.072108 0.000000 
-0.474271 -0.594816 0.000000 
0.820051 0.978532 0.000000 
0.957131 0.354499 0.000000 
0.609802 0.455262 0.000000 
-0.761818 -0.272949 0.000000 
-0.715688 -0.985849 0.000000 
-0.058701 0.807134 0.000000 
-0.178523 0.962135 0.000000 
-0.068167 0.303461 0.000000 
0.677953 0.158811 0.000000 
0.640767 -0.623008 0.000000 
-0.766358 -0.882187 0.000000 
0.421640 0.168605 0.000000 
0.531221 -0.458756 0.000000 
-0.679168 -0.563407 0.000000 
-0.642284 0.710751 0.000000 
0.038190 0.504042 0.000000 
-0.050482 -0.308244 0.000000 
0.517768 -0.579759 0.000000 
-0.942022 -0.657097 0.000000 
-0.830464 0.755742 0.000000 
-0.009720 0.696146 0.000000 
0.036539 0.000601 0.000000 
0.770567 -0.160804 0.000000 
0.736578 -0.932816 0.000000 
-0.621134 0.836119 0.000000 
-0.749201 0.000621 0.000000 
-0.195957 -0.275467 0.000000 
0.000000 0.760986 0.000000 
-0.563510 0.068028 0.000000 
0.000000 -0.339895 0.000000 
0.563510 0.068028 0.000000 
0.867733 -0.684579 0.000000 
-0.568260 0.997746 0.000000 
0.000000 -0.485221 0.000000 
0.568260 0.997746 0.000000 
-0.867733 -0.684579 0.000000 
0.273056 0.517688 0.000000 
0.848607 0.238551 0.000000 
-0.586291 0.806198 0.000000 
0.000000 0.394586 0.000000 
0.586291 0.806198 0.000000 
-0.848607 0.238551 0.000000 
-0.273056 0.517688 0.000000 
-0.344825 -0.373892 0.000000 
0.236852 -0.587438 0.000000 
0.805322 -0.140213 0.000000 
-0.594989 -0.396315 0.000000 
0.000000 -0.067272 0.000000 
0.594989 -0.396315 0.000000 
-0.805322 -0.140213 0.000000 
-0.236852 -0.587438 0.000000 
0.344825 -0.373892 0.000000 
-0.609802 0.455262 0.000000 
0.058701 0.807134 0.000000 
0.715688 -0.985849 0.000000 
0.761818 -0.272949 0.000000 
0.766358 -0.882187 0.000000 
-0.640767 -0.623008 0.000000 
-0.677953 0.158811 0.000000 
0.068167 0.303461 0.000000 
0.178523 0.962136 0.000000 
-0.517768 -0.579759 0.000000 
0.050482 -0.308244 0.000000 
-0.038190 0.504042 0.000000 
0.642284 0.710751 0.000000 
0.679168 -0.563407 0.000000 
-0.531221 -0.458756 0.000000 
-0.421640 0.168605 0.000000 
0.195957 -0.275467 0.000000 
0.749201 0.000621 0.000000 
0.621134 0.836119 0.000000 
-0.736578 -0.932816 0.000000 
-0.770567 -0.160804 0.000000 
-0.036539 0.000601 0.000000 
0.009720 0.696146 0.000000 
0.830464 0.755742 0.000000 
0.942022 -0.657097 0.000000 
-0.760348 -0.231684 0.000000 
0.142870 0.906019 0.000000 
0.398231 -0.432112 0.000000 
-0.108050 0.048200 0.000000 
-0.899404 0.052023 0.000000 
-0.724412 0.694446 0.000000 
0.661314 -0.845532 0.000000 
-0.977558 -0.153890 0.000000 
0.596196 0.344996 0.000000 
0.071659 -0.796820 0.000000 
0.221049 -0.165991 0.000000 
-0.445835 0.276332 0.000000 
-0.180587 0.954398 0.000000 
-0.703260 -0.554913 0.000000 
-0.287860 0.143863 0.000000 
-0.686974 0.643611 0.000000 
-0.957131 0.354499 0.000000 
-0.820051 0.978532 0.000000 
0.474271 -0.594816 0.000000 
0.699077 0.072108 0.000000 
0.108394 0.548291 0.000000 
0.440829 -0.756654 0.000000 
-0.042024 -0.257815 0.000000 
0.414488 0.443706 0.000000 
0.028240 0.943100 0.000000 
-0.338409 -0.782352 0.000000 
-0.374362 -0.210602 0.000000 
-0.712794 0.409350 0.000000 
0.609727 0.297871 0.000000 
-0.381872 0.410995 0.000000 
-0.756343 0.953488 0.000000 
0.514081 0.741896 0.000000 
0.218545 -0.533731 0.000000 
-0.423311 -0.568025 0.000000 
-0.384381 -0.953468 0.000000 
-0.766265 -0.438773 0.000000 
0.484707 -0.704053 0.000000 
0.139527 -0.065862 0.000000 
-0.556131 -0.183494 0.000000 
-0.823390 0.590034 0.000000 
0.551012 0.579137 0.000000 
-0.386869 -0.317750 0.000000 
-0.771251 0.182658 0.000000 
0.467443 -0.123891 0.000000 
0.105288 0.474746 0.000000 
-0.621600 0.292827 0.000000 
-0.937847 0.996412 0.000000 
0.385637 0.917176 0.000000 
0.141768 -0.273615 0.000000 
-0.474666 -0.273586 0.000000 
CELL_DATA 175 
SCALARS MASS float 
LOOKUP_TABLE default 
0.781831 
0.864274 
0.946717 
0.864274 
0.881307 
0.921110 
0.858535 
0.921110 
0.881307 
0.887046 
0.910001 
0.869829 
0.915556 
0.869829 
0.910001 
0.887046 
0.892784 
0.915740 
0.892784 
0.927218 
0.892784 
0.927218 
0.892784 
0.915740 
0.892784 
0.781831 
0.864274 
0.946717 
0.864274 
0.881307 
0.921110 
0.858535 
0.921110 
0.881307 
0.887046 
0.910001 
0.869829 
0.915556 
0.869829 
0.910001 
0.887046 
0.892784 
0.915740 
0.892784 
0.927218 
0.892784 
0.927218 
0.892784 
0.915740 
0.892784 
0.781831 
0.864274 
0.946717 
0.864274 
0.881307 
0.921110 
0.858535 
0.921110 
0.881307 
0.887046 
0.910001 
0.869829 
0.915556 
0.869829 
0.910001 
0.887046 
0.892784 
0.915740 
0.892784 
0.927218 
0.892784 
0.927218 
0.892784 
0.915740 
0.892784 
0.781831 
0.864274 
0.946717 
0.864274 
0.881307 
0.921110 
0.858535 
0.921110 
0.881307 
0.887046 
0.910001 
0.869829 
0.915556 
0.869829 
0.910001 
0.887046 
0.892784 
0.915740 
0.892784 
0.927218 
0.892784 
0.927218 
0.892784 
0.915740 
0.892784 
0.781831 
0.864274 
0.946717 
0.864274 
0.881307 
0.921110 
0.858535 
0.921110 
0.881307 
0.887046 
0.910001 
0.869829 
0.915556 
0.869829 
0.910001 
0.887046 
0.892784 
0.915740 
0.892784 
0.927218 
0.892784 
0.927218 
0.892784 
0.915740 
0.892784 
0.781831 
0.864274 
0.946717 
0.864274 
0.881307 
0.921110 
0.858535 
0.921110 
0.881307 
0.887046 
0.910001 
0.869829 
0.915556 
0.869829 
0.910001 
0.887046 
0.892784 
0.915740 
0.892784 
0.927218 
0.892784 
0.927218 
0.892784 
0.915740 
0.892784 
0.781831 
0.864274 
0.946717 
0.864274 
0.881307 
0.921110 
0.858535 
0.921110 
0.881307 
0.887046 
0.910001 
0.869829 
0.915556 
0.869829 
0.910001 
0.887046 
0.892784 
0.915740 
0.892784 
0.927218 
0.892784 
0.927218 
0.892784 
0.915740 
0.892784 
SCALARS MASS float 
LOOKUP_TABLE default 
0.781831 
0.864274 
0.946717 
0.864274 
0.881307 
0.921110 
0.858535 
0.921110 
0.881307 
0.887046 
0.910001 
0.869829 
0.915556 
0.869829 
0.910001 
0.887046 
0.892784 
0.915740 
0.892784 
0.927218 
0.892784 
0.927218 
0.892784 
0.915740 
0.892784 
0.781831 
0.864274 
0.946717 
0.864274 
0.881307 
0.921110 
0.858535 
0.921110 
0.881307 
0.887046 
0.910001 
0.869829 
0.915556 
0.869829 
0.910001 
0.887046 
0.892784 
0.915740 
0.892784 
0.927218 
0.892784 
0.927218 
0.892784 
0.915740 
0.892784 
0.781831 
0.864274 
0.946717 
0.864274 
0.881307 
0.921110 
0.858535 
0.921110 
0.881307 
0.887046 
0.910001 
0.869829 
0.915556 
0.869829 
0.910001 
0.887046 
0.892784 
0.915740 
0.892784 
0.927218 
0.892784 
0.927218 
0.892784 
0.915740 
0.892784 
0.781831 
0.864274 
0.946717 
0.864274 
0.881307 
0.921110 
0.858535 
0.921110 
0.881307 
0.887046 
0.910001 
0.869829 
0.915556 
0.869829 
0.910001 
0.887046 
0.892784 
0.915740 
0.892784 
0.927218 
0.892784 
0.927218 
0.892784 
0.915740 
0.892784 
0.781831 
0.864274 
0.946717 
0.864274 
0.881307 
0.921110 
0.858535 
0.921110 
0.881307 
0.887046 
0.910001 
0.869829 
0.915556 
0.869829 
0.910001 
0.887046 
0.892784 
0.915740 
0.892784 
0.927218 
0.892784 
0.927218 
0.892784 
0.915740 
0.892784 
0.781831 
0.864274 
0.946717 
0.864274 
0.881307 
0.921110 
0.858535 
0.921110 
0.881307 
0.887046 
0.910001 
0.869829 
0.915556 
0.869829 
0.910001 
0.887046 
0.892784 
0.915740 
0.892784 
0.927218 
0.892784 
0.927218 
0.892784 
0.915740 
0.892784 
0.781831 
0.864274 
0.946717 
0.864274 
0.881307 
0.921110 
0.858535 
0.921110 
0.881307 
0.887046 
0.910001 
0.869829 
0.915556 
0.869829 
0.910001 
0.887046 
0.892784 
0.915740 
0.892784 
0.927218 
0.892784 
0.927218 
0.892784 
0.915740 
0.892784 
SCALARS DENSITY float 
LOOKUP_TABLE default 
200.491063 
198.690892 
199.987613 
199.308285 
199.221702 
198.708390 
199.736932 
199.994033 
199.881109 
199.923813 
200.032144 
200.003780 
199.848991 
199.907618 
199.776267 
199.988921 
200.155079 
200.074582 
199.974003 
200.035247 
200.026084 
200.015708 
200.005260 
199.993299 
199.978467 
196.545022 
199.095998 
198.919693 
198.852217 
199.390321 
202.905775 
199.285281 
199.405969 
199.628185 
200.327041 
201.619172 
201.513169 
199.841409 
200.301558 
199.855932 
200.066948 
201.619053 
202.486690 
202.019309 
200.122036 
200.246837 
200.433103 
200.516616 
200.061967 
200.158727 
193.291402 
186.879137 
196.628184 
199.503620 
194.101040 
203.144944 
211.678441 
211.257043 
197.374157 
199.500636 
206.892346 
189.720003 
192.360049 
193.371677 
201.664110 
203.340583 
1407.066498 
343.180229 
278.879086 
230.616697 
187.621286 
187.472039 
224.645091 
215.684887 
211.712906 
192.867888 
198.871094 
181.032425 
198.871094 
194.962596 
203.856213 
235.656387 
203.856214 
194.962596 
153.341504 
146.916316 
128.783995 
152.153521 
128.783996 
146.916317 
153.341504 
394518.259628 
2469.728071 
61600247919.102570 
151179.254377 
8577072960778.423828 
151179.254721 
61600246434.837746 
2469.728077 
394518.258411 
193.291402 
199.503620 
196.628184 
186.879137 
197.374157 
211.257043 
211.678441 
203.144944 
194.101040 
203.340583 
201.664110 
193.371677 
192.360049 
189.720003 
206.892346 
199.500636 
211.712906 
215.684888 
224.645092 
187.472039 
187.621286 
230.616698 
278.879086 
343.180230 
1407.066501 
196.545022 
198.852217 
198.919693 
199.095998 
199.628185 
199.405969 
199.285281 
202.905775 
199.390321 
200.066948 
199.855932 
200.301558 
199.841409 
201.513169 
201.619172 
200.327041 
200.158727 
200.061967 
200.516616 
200.433103 
200.246837 
200.122036 
202.019309 
202.486690 
201.619053 
200.491063 
199.308285 
199.987613 
198.690892 
199.881109 
199.994033 
199.736932 
198.708390 
199.221702 
199.988921 
199.776267 
199.907618 
199.848991 
200.003780 
200.032144 
199.923813 
199.978467 
199.993299 
200.005260 
200.015708 
200.026084 
200.035247 
199.974003 
200.074582 
200.155079 
SCALARS ELEM_i float 
LOOKUP_TABLE default 
165 
193 
166 
166 
193 
193 
194 
167 
167 
221 
194 
194 
194 
194 
167 
167 
221 
221 
222 
195 
195 
195 
195 
168 
168 
165 
192 
192 
193 
219 
192 
219 
193 
193 
219 
219 
219 
220 
220 
220 
220 
246 
246 
246 
246 
247 
247 
247 
221 
221 
165 
191 
191 
192 
191 
191 
191 
191 
218 
190 
190 
217 
218 
218 
218 
218 
216 
217 
217 
217 
217 
217 
245 
245 
245 
165 
164 
164 
164 
136 
164 
163 
164 
190 
136 
136 
163 
163 
163 
190 
190 
135 
135 
135 
162 
162 
162 
189 
189 
189 
165 
138 
137 
137 
110 
137 
137 
137 
137 
110 
110 
110 
110 
109 
136 
136 
83 
83 
83 
109 
109 
109 
109 
109 
108 
165 
139 
138 
138 
139 
139 
111 
138 
111 
112 
112 
112 
112 
111 
111 
111 
113 
113 
85 
85 
85 
84 
84 
84 
84 
165 
166 
166 
139 
167 
167 
140 
139 
139 
167 
167 
140 
140 
140 
140 
113 
168 
168 
141 
141 
141 
141 
114 
113 
113 
VECTORS VELOCITY float 
0.016661 -7.041230 0.000000 
0.016250 -7.000866 0.000000 
0.013352 -7.012180 0.000000 
0.000199 -6.992030 0.000000 
0.010950 -6.984158 0.000000 
0.002665 -6.984464 0.000000 
-0.001783 -6.983976 0.000000 
-0.006477 -6.984404 0.000000 
-0.002019 -6.982096 0.000000 
0.011427 -6.980016 0.000000 
0.012368 -6.984108 0.000000 
0.005977 -6.978354 0.000000 
0.002537 -6.979593 0.000000 
0.001931 -6.975310 0.000000 
-0.000124 -6.978149 0.000000 
0.000740 -6.974709 0.000000 
0.001916 -6.968539 0.000000 
0.004231 -6.972182 0.000000 
0.001240 -6.970095 0.000000 
0.002200 -6.971626 0.000000 
0.001278 -6.971446 0.000000 
0.001553 -6.972500 0.000000 
0.001103 -6.971972 0.000000 
0.001114 -6.973018 0.000000 
0.000449 -6.972053 0.000000 
0.076541 -7.061847 0.000000 
0.045357 -7.002649 0.000000 
0.061767 -7.027899 0.000000 
0.027916 -6.999219 0.000000 
-0.008292 -6.946849 0.000000 
-0.001382 -6.962315 0.000000 
0.018147 -6.954182 0.000000 
0.021262 -6.971385 0.000000 
0.018524 -6.974342 0.000000 
0.054116 -6.881086 0.000000 
0.025791 -6.917996 0.000000 
0.015425 -6.932309 0.000000 
0.012890 -6.953058 0.000000 
0.009457 -6.959646 0.000000 
0.013132 -6.970136 0.000000 
0.011622 -6.977542 0.000000 
-0.203568 -6.769103 0.000000 
-0.067394 -6.837749 0.000000 
-0.090855 -6.868816 0.000000 
-0.018481 -6.924599 0.000000 
-0.023783 -6.936701 0.000000 
-0.003406 -6.953584 0.000000 
-0.007502 -6.959690 0.000000 
0.004513 -6.967836 0.000000 
0.001840 -6.966048 0.000000 
0.083617 -7.034610 0.000000 
0.060727 -7.066216 0.000000 
0.134344 -7.003324 0.000000 
0.060381 -6.993139 0.000000 
0.008852 -7.465718 0.000000 
0.004587 -7.179731 0.000000 
-0.011554 -6.942959 0.000000 
-0.045946 -6.982923 0.000000 
-0.044709 -6.954079 0.000000 
0.286353 -6.001685 0.000000 
0.331280 -6.793363 0.000000 
0.209251 -6.516033 0.000000 
0.080047 -6.778700 0.000000 
0.061062 -6.809173 0.000000 
0.023446 -6.901911 0.000000 
0.082407 -6.890945 0.000000 
-1.276546 -6.835762 0.000000 
-0.532990 -5.485367 0.000000 
-2.397936 -6.183761 0.000000 
-1.058997 -6.373865 0.000000 
-1.617512 -6.573554 0.000000 
0.029017 -6.761930 0.000000 
-0.324369 -6.901635 0.000000 
-0.040765 -6.863864 0.000000 
-0.313165 -6.868186 0.000000 
0.000000 -7.021025 0.000000 
-0.016636 -7.294672 0.000000 
0.000000 -7.061424 0.000000 
0.016636 -7.294672 0.000000 
0.018471 -8.018648 0.000000 
0.044670 -7.992759 0.000000 
0.000000 -8.013998 0.000000 
-0.044670 -7.992759 0.000000 
-0.018471 -8.018648 0.000000 
-0.293214 -5.158200 0.000000 
-0.334624 -6.012941 0.000000 
-0.322361 -3.825808 0.000000 
0.000000 -5.425788 0.000000 
0.322361 -3.825808 0.000000 
0.334624 -6.012941 0.000000 
0.293214 -5.158200 0.000000 
1.035135 -10.911856 0.000000 
0.006149 -4.423036 0.000000 
0.374354 -12.888917 0.000000 
-0.298799 -4.064277 0.000000 
-0.000000 -16.870142 0.000000 
0.298799 -4.064277 0.000000 
-0.374354 -12.888917 0.000000 
-0.006149 -4.423036 0.000000 
-1.035135 -10.911856 0.000000 
-0.083617 -7.034610 0.000000 
-0.060381 -6.993139 0.000000 
-0.134344 -7.003324 0.000000 
-0.060727 -7.066216 0.000000 
0.044709 -6.954079 0.000000 
0.045946 -6.982923 0.000000 
0.011554 -6.942959 0.000000 
-0.004587 -7.179731 0.000000 
-0.008852 -7.465718 0.000000 
-0.082407 -6.890945 0.000000 
-0.023446 -6.901911 0.000000 
-0.061062 -6.809173 0.000000 
-0.080047 -6.778700 0.000000 
-0.209251 -6.516033 0.000000 
-0.331280 -6.793363 0.000000 
-0.286353 -6.001685 0.000000 
0.313165 -6.868186 0.000000 
0.040765 -6.863864 0.000000 
0.324369 -6.901635 0.000000 
-0.029017 -6.761930 0.000000 
1.617512 -6.573554 0.000000 
1.058997 -6.373865 0.000000 
2.397936 -6.183761 0.000000 
0.532990 -5.485367 0.000000 
1.276546 -6.835762 0.000000 
-0.076541 -7.061847 0.000000 
-0.027916 -6.999219 0.000000 
-0.061767 -7.027899 0.000000 
-0.045357 -7.002649 0.000000 
-0.018524 -6.974342 0.000000 
-0.021262 -6.971385 0.000000 
-0.018147 -6.954182 0.000000 
0.001382 -6.962315 0.000000 
0.008292 -6.946849 0.000000 
-0.011622 -6.977542 0.000000 
-0.013132 -6.970136 0.000000 
-0.009457 -6.959646 0.000000 
-0.012890 -6.953058 0.000000 
-0.015425 -6.932309 0.000000 
-0.025791 -6.917996 0.000000 
-0.054116 -6.881086 0.000000 
-0.001840 -6.966048 0.000000 
-0.004513 -6.967836 0.000000 
0.007502 -6.959690 0.000000 
0.003406 -6.953584 0.000000 
0.023783 -6.936701 0.000000 
0.018481 -6.924599 0.000000 
0.090855 -6.868816 0.000000 
0.067394 -6.837749 0.000000 
0.203568 -6.769103 0.000000 
-0.016661 -7.041230 0.000000 
-0.000199 -6.992030 0.000000 
-0.013352 -7.012180 0.000000 
-0.016250 -7.000866 0.000000 
0.002019 -6.982096 0.000000 
0.006477 -6.984404 0.000000 
0.001783 -6.983976 0.000000 
-0.002665 -6.984464 0.000000 
-0.010950 -6.984158 0.000000 
-0.000740 -6.974709 0.000000 
0.000124 -6.978149 0.000000 
-0.001931 -6.975310 0.000000 
-0.002537 -6.979593 0.000000 
-0.005977 -6.978354 0.000000 
-0.012368 -6.984108 0.000000 
-0.011427 -6.980016 0.000000 
-0.000449 -6.972053 0.000000 
-0.001114 -6.973018 0.000000 
-0.001103 -6.971972 0.000000 
-0.001553 -6.972500 0.000000 
-0.001278 -6.971446 0.000000 
-0.002200 -6.971626 0.000000 
-0.001240 -6.970095 0.000000 
-0.004231 -6.972182 0.000000 
-0.001916 -6.968539 0.000000 
TENSORS STRESS float 
-1.011931 -0.024231 0.000000 
0.000000 -0.542951 0.000000 
0.000000 0.000000 0.000000 

2.637429 -0.275218 0.000000 
0.000000 2.781991 0.000000 
0.000000 0.000000 0.000000 

0.057067 -0.099906 0.000000 
0.000000 0.514246 0.000000 
0.000000 0.000000 0.000000 

1.157574 -0.048754 0.000000 
0.000000 1.508695 0.000000 
0.000000 0.000000 0.000000 

0.994486 -0.154373 0.000000 
0.000000 1.073250 0.000000 
0.000000 0.000000 0.000000 

1.973514 -0.196293 0.000000 
0.000000 2.130463 0.000000 
0.000000 0.000000 0.000000 

0.349999 -0.060027 0.000000 
0.000000 0.399176 0.000000 
0.000000 0.000000 0.000000 

0.157270 -0.016491 0.000000 
0.000000 0.248936 0.000000 
0.000000 0.000000 0.000000 

0.292288 -0.007971 0.000000 
0.000000 0.369140 0.000000 
0.000000 0.000000 0.000000 

0.366139 -0.061270 0.000000 
0.000000 0.332655 0.000000 
0.000000 0.000000 0.000000 
