# vtk DataFile Version 3.0 
vtk output 
ASCII 
DATASET UNSTRUCTURED_GRID 
POINTS 175 float 
-0.027950 -2.899424 0.000000 
-0.113345 -2.844075 0.000000 
-0.058013 -2.853298 0.000000 
-0.030079 -2.810374 0.000000 
-0.194314 -2.780251 0.000000 
-0.142652 -2.785108 0.000000 
-0.117080 -2.734863 0.000000 
-0.059594 -2.751940 0.000000 
-0.029894 -2.712990 0.000000 
-0.270788 -2.713815 0.000000 
-0.221663 -2.718709 0.000000 
-0.197638 -2.663331 0.000000 
-0.144078 -2.674701 0.000000 
-0.116157 -2.628654 0.000000 
-0.058827 -2.650297 0.000000 
-0.029367 -2.611879 0.000000 
-0.345895 -2.643726 0.000000 
-0.298188 -2.648441 0.000000 
-0.276234 -2.590768 0.000000 
-0.224641 -2.601580 0.000000 
-0.199380 -2.549982 0.000000 
-0.144268 -2.566330 0.000000 
-0.116293 -2.522777 0.000000 
-0.058613 -2.547725 0.000000 
-0.029424 -2.510262 0.000000 
-0.063164 -2.922087 0.000000 
-0.178411 -2.929275 0.000000 
-0.134000 -2.912942 0.000000 
-0.153302 -2.881301 0.000000 
-0.295091 -2.935675 0.000000 
-0.252719 -2.920287 0.000000 
-0.279230 -2.889086 0.000000 
-0.224363 -2.865986 0.000000 
-0.235864 -2.821946 0.000000 
-0.416665 -2.940952 0.000000 
-0.372208 -2.926675 0.000000 
-0.399589 -2.896482 0.000000 
-0.348836 -2.873184 0.000000 
-0.364158 -2.826840 0.000000 
-0.306056 -2.800854 0.000000 
-0.313199 -2.754910 0.000000 
-0.541849 -2.937387 0.000000 
-0.496108 -2.926019 0.000000 
-0.523188 -2.892943 0.000000 
-0.471208 -2.874576 0.000000 
-0.486653 -2.825510 0.000000 
-0.431393 -2.802869 0.000000 
-0.440898 -2.752718 0.000000 
-0.381865 -2.732462 0.000000 
-0.387503 -2.685833 0.000000 
-0.050544 -2.943392 0.000000 
-0.104619 -2.968570 0.000000 
-0.109178 -2.955764 0.000000 
-0.166724 -2.950406 0.000000 
-0.158763 -2.982495 0.000000 
-0.167801 -2.975640 0.000000 
-0.235854 -2.973267 0.000000 
-0.230350 -2.961240 0.000000 
-0.286034 -2.955489 0.000000 
-0.218792 -2.990518 0.000000 
-0.226830 -2.986725 0.000000 
-0.314459 -2.985704 0.000000 
-0.311563 -2.979281 0.000000 
-0.382460 -2.976515 0.000000 
-0.361794 -2.965290 0.000000 
-0.413984 -2.959563 0.000000 
-0.294754 -2.995315 0.000000 
-0.306176 -2.993140 0.000000 
-0.408477 -2.992678 0.000000 
-0.405358 -2.989095 0.000000 
-0.484449 -2.986616 0.000000 
-0.467062 -2.980598 0.000000 
-0.525275 -2.976125 0.000000 
-0.495987 -2.965402 0.000000 
-0.543338 -2.957120 0.000000 
-0.000000 -2.950726 0.000000 
0.046255 -2.973489 0.000000 
-0.000000 -2.967852 0.000000 
-0.046255 -2.973489 0.000000 
0.095003 -2.985589 0.000000 
0.046543 -2.983215 0.000000 
-0.000000 -2.987017 0.000000 
-0.046543 -2.983215 0.000000 
-0.095003 -2.985589 0.000000 
0.153818 -2.992238 0.000000 
0.098745 -2.991043 0.000000 
0.049284 -2.993423 0.000000 
-0.000000 -2.991784 0.000000 
-0.049284 -2.993423 0.000000 
-0.098745 -2.991043 0.000000 
-0.153818 -2.992238 0.000000 
0.214558 -2.996250 0.000000 
0.158648 -2.995487 0.000000 
0.104917 -2.996964 0.000000 
0.050428 -2.996092 0.000000 
-0.000000 -2.997180 0.000000 
-0.050428 -2.996092 0.000000 
-0.104917 -2.996964 0.000000 
-0.158648 -2.995487 0.000000 
-0.214558 -2.996250 0.000000 
0.050544 -2.943392 0.000000 
0.166724 -2.950406 0.000000 
0.109178 -2.955764 0.000000 
0.104619 -2.968570 0.000000 
0.286034 -2.955489 0.000000 
0.230350 -2.961240 0.000000 
0.235854 -2.973267 0.000000 
0.167801 -2.975640 0.000000 
0.158763 -2.982495 0.000000 
0.413984 -2.959563 0.000000 
0.361794 -2.965290 0.000000 
0.382460 -2.976515 0.000000 
0.311563 -2.979281 0.000000 
0.314459 -2.985704 0.000000 
0.226830 -2.986725 0.000000 
0.218792 -2.990518 0.000000 
0.543338 -2.957120 0.000000 
0.495987 -2.965402 0.000000 
0.525275 -2.976125 0.000000 
0.467062 -2.980598 0.000000 
0.484449 -2.986616 0.000000 
0.405358 -2.989095 0.000000 
0.408477 -2.992678 0.000000 
0.306176 -2.993140 0.000000 
0.294754 -2.995315 0.000000 
0.063164 -2.922087 0.000000 
0.153302 -2.881301 0.000000 
0.134000 -2.912942 0.000000 
0.178411 -2.929275 0.000000 
0.235864 -2.821946 0.000000 
0.224363 -2.865986 0.000000 
0.279230 -2.889086 0.000000 
0.252719 -2.920287 0.000000 
0.295091 -2.935675 0.000000 
0.313199 -2.754910 0.000000 
0.306056 -2.800854 0.000000 
0.364158 -2.826840 0.000000 
0.348836 -2.873184 0.000000 
0.399589 -2.896482 0.000000 
0.372208 -2.926675 0.000000 
0.416665 -2.940952 0.000000 
0.387503 -2.685833 0.000000 
0.381865 -2.732462 0.000000 
0.440898 -2.752718 0.000000 
0.431393 -2.802869 0.000000 
0.486653 -2.825510 0.000000 
0.471208 -2.874576 0.000000 
0.523188 -2.892943 0.000000 
0.496108 -2.926019 0.000000 
0.541849 -2.937387 0.000000 
0.027950 -2.899424 0.000000 
0.030079 -2.810374 0.000000 
0.058013 -2.853298 0.000000 
0.113345 -2.844075 0.000000 
0.029894 -2.712990 0.000000 
0.059594 -2.751940 0.000000 
0.117080 -2.734863 0.000000 
0.142652 -2.785108 0.000000 
0.194314 -2.780251 0.000000 
0.029367 -2.611879 0.000000 
0.058827 -2.650297 0.000000 
0.116157 -2.628654 0.000000 
0.144078 -2.674701 0.000000 
0.197638 -2.663331 0.000000 
0.221663 -2.718709 0.000000 
0.270788 -2.713815 0.000000 
0.029424 -2.510262 0.000000 
0.058613 -2.547725 0.000000 
0.116293 -2.522777 0.000000 
0.144268 -2.566330 0.000000 
0.199380 -2.549982 0.000000 
0.224641 -2.601580 0.000000 
0.276234 -2.590768 0.000000 
0.298188 -2.648441 0.000000 
0.345895 -2.643726 0.000000 
CELLS 175 350 
1 0 
1 1 
1 2 
1 3 
1 4 
1 5 
1 6 
1 7 
1 8 
1 9 
1 10 
1 11 
1 12 
1 13 
1 14 
1 15 
1 16 
1 17 
1 18 
1 19 
1 20 
1 21 
1 22 
1 23 
1 24 
1 25 
1 26 
1 27 
1 28 
1 29 
1 30 
1 31 
1 32 
1 33 
1 34 
1 35 
1 36 
1 37 
1 38 
1 39 
1 40 
1 41 
1 42 
1 43 
1 44 
1 45 
1 46 
1 47 
1 48 
1 49 
1 50 
1 51 
1 52 
1 53 
1 54 
1 55 
1 56 
1 57 
1 58 
1 59 
1 60 
1 61 
1 62 
1 63 
1 64 
1 65 
1 66 
1 67 
1 68 
1 69 
1 70 
1 71 
1 72 
1 73 
1 74 
1 75 
1 76 
1 77 
1 78 
1 79 
1 80 
1 81 
1 82 
1 83 
1 84 
1 85 
1 86 
1 87 
1 88 
1 89 
1 90 
1 91 
1 92 
1 93 
1 94 
1 95 
1 96 
1 97 
1 98 
1 99 
1 100 
1 101 
1 102 
1 103 
1 104 
1 105 
1 106 
1 107 
1 108 
1 109 
1 110 
1 111 
1 112 
1 113 
1 114 
1 115 
1 116 
1 117 
1 118 
1 119 
1 120 
1 121 
1 122 
1 123 
1 124 
1 125 
1 126 
1 127 
1 128 
1 129 
1 130 
1 131 
1 132 
1 133 
1 134 
1 135 
1 136 
1 137 
1 138 
1 139 
1 140 
1 141 
1 142 
1 143 
1 144 
1 145 
1 146 
1 147 
1 148 
1 149 
1 150 
1 151 
1 152 
1 153 
1 154 
1 155 
1 156 
1 157 
1 158 
1 159 
1 160 
1 161 
1 162 
1 163 
1 164 
1 165 
1 166 
1 167 
1 168 
1 169 
1 170 
1 171 
1 172 
1 173 
1 174 
CELL_TYPES 175 
1 
1 
1 
1 
1 
1 
1 
1 
1 
1 
1 
1 
1 
1 
1 
1 
1 
1 
1 
1 
1 
1 
1 
1 
1 
1 
1 
1 
1 
1 
1 
1 
1 
1 
1 
1 
1 
1 
1 
1 
1 
1 
1 
1 
1 
1 
1 
1 
1 
1 
1 
1 
1 
1 
1 
1 
1 
1 
1 
1 
1 
1 
1 
1 
1 
1 
1 
1 
1 
1 
1 
1 
1 
1 
1 
1 
1 
1 
1 
1 
1 
1 
1 
1 
1 
1 
1 
1 
1 
1 
1 
1 
1 
1 
1 
1 
1 
1 
1 
1 
1 
1 
1 
1 
1 
1 
1 
1 
1 
1 
1 
1 
1 
1 
1 
1 
1 
1 
1 
1 
1 
1 
1 
1 
1 
1 
1 
1 
1 
1 
1 
1 
1 
1 
1 
1 
1 
1 
1 
1 
1 
1 
1 
1 
1 
1 
1 
1 
1 
1 
1 
1 
1 
1 
1 
1 
1 
1 
1 
1 
1 
1 
1 
1 
1 
1 
1 
1 
1 
1 
1 
1 
1 
1 
1 
POINT_DATA 175 
VECTORS X_GC float 
-0.027950 -2.899424 0.000000 
-0.113345 -2.844075 0.000000 
-0.058013 -2.853298 0.000000 
-0.030079 -2.810374 0.000000 
-0.194314 -2.780251 0.000000 
-0.142652 -2.785108 0.000000 
-0.117080 -2.734863 0.000000 
-0.059594 -2.751940 0.000000 
-0.029894 -2.712990 0.000000 
-0.270788 -2.713815 0.000000 
-0.221663 -2.718709 0.000000 
-0.197638 -2.663331 0.000000 
-0.144078 -2.674701 0.000000 
-0.116157 -2.628654 0.000000 
-0.058827 -2.650297 0.000000 
-0.029367 -2.611879 0.000000 
-0.345895 -2.643726 0.000000 
-0.298188 -2.648441 0.000000 
-0.276234 -2.590768 0.000000 
-0.224641 -2.601580 0.000000 
-0.199380 -2.549982 0.000000 
-0.144268 -2.566330 0.000000 
-0.116293 -2.522777 0.000000 
-0.058613 -2.547725 0.000000 
-0.029424 -2.510262 0.000000 
-0.063164 -2.922087 0.000000 
-0.178411 -2.929275 0.000000 
-0.134000 -2.912942 0.000000 
-0.153302 -2.881301 0.000000 
-0.295091 -2.935675 0.000000 
-0.252719 -2.920287 0.000000 
-0.279230 -2.889086 0.000000 
-0.224363 -2.865986 0.000000 
-0.235864 -2.821946 0.000000 
-0.416665 -2.940952 0.000000 
-0.372208 -2.926675 0.000000 
-0.399589 -2.896482 0.000000 
-0.348836 -2.873184 0.000000 
-0.364158 -2.826840 0.000000 
-0.306056 -2.800854 0.000000 
-0.313199 -2.754910 0.000000 
-0.541849 -2.937387 0.000000 
-0.496108 -2.926019 0.000000 
-0.523188 -2.892943 0.000000 
-0.471208 -2.874576 0.000000 
-0.486653 -2.825510 0.000000 
-0.431393 -2.802869 0.000000 
-0.440898 -2.752718 0.000000 
-0.381865 -2.732462 0.000000 
-0.387503 -2.685833 0.000000 
-0.050544 -2.943392 0.000000 
-0.104619 -2.968570 0.000000 
-0.109178 -2.955764 0.000000 
-0.166724 -2.950406 0.000000 
-0.158763 -2.982495 0.000000 
-0.167801 -2.975640 0.000000 
-0.235854 -2.973267 0.000000 
-0.230350 -2.961240 0.000000 
-0.286034 -2.955489 0.000000 
-0.218792 -2.990518 0.000000 
-0.226830 -2.986725 0.000000 
-0.314459 -2.985704 0.000000 
-0.311563 -2.979281 0.000000 
-0.382460 -2.976515 0.000000 
-0.361794 -2.965290 0.000000 
-0.413984 -2.959563 0.000000 
-0.294754 -2.995315 0.000000 
-0.306176 -2.993140 0.000000 
-0.408477 -2.992678 0.000000 
-0.405358 -2.989095 0.000000 
-0.484449 -2.986616 0.000000 
-0.467062 -2.980598 0.000000 
-0.525275 -2.976125 0.000000 
-0.495987 -2.965402 0.000000 
-0.543338 -2.957120 0.000000 
-0.000000 -2.950726 0.000000 
0.046255 -2.973489 0.000000 
-0.000000 -2.967852 0.000000 
-0.046255 -2.973489 0.000000 
0.095003 -2.985589 0.000000 
0.046543 -2.983215 0.000000 
-0.000000 -2.987017 0.000000 
-0.046543 -2.983215 0.000000 
-0.095003 -2.985589 0.000000 
0.153818 -2.992238 0.000000 
0.098745 -2.991043 0.000000 
0.049284 -2.993423 0.000000 
-0.000000 -2.991784 0.000000 
-0.049284 -2.993423 0.000000 
-0.098745 -2.991043 0.000000 
-0.153818 -2.992238 0.000000 
0.214558 -2.996250 0.000000 
0.158648 -2.995487 0.000000 
0.104917 -2.996964 0.000000 
0.050428 -2.996092 0.000000 
-0.000000 -2.997180 0.000000 
-0.050428 -2.996092 0.000000 
-0.104917 -2.996964 0.000000 
-0.158648 -2.995487 0.000000 
-0.214558 -2.996250 0.000000 
0.050544 -2.943392 0.000000 
0.166724 -2.950406 0.000000 
0.109178 -2.955764 0.000000 
0.104619 -2.968570 0.000000 
0.286034 -2.955489 0.000000 
0.230350 -2.961240 0.000000 
0.235854 -2.973267 0.000000 
0.167801 -2.975640 0.000000 
0.158763 -2.982495 0.000000 
0.413984 -2.959563 0.000000 
0.361794 -2.965290 0.000000 
0.382460 -2.976515 0.000000 
0.311563 -2.979281 0.000000 
0.314459 -2.985704 0.000000 
0.226830 -2.986725 0.000000 
0.218792 -2.990518 0.000000 
0.543338 -2.957120 0.000000 
0.495987 -2.965402 0.000000 
0.525275 -2.976125 0.000000 
0.467062 -2.980598 0.000000 
0.484449 -2.986616 0.000000 
0.405358 -2.989095 0.000000 
0.408477 -2.992678 0.000000 
0.306176 -2.993140 0.000000 
0.294754 -2.995315 0.000000 
0.063164 -2.922087 0.000000 
0.153302 -2.881301 0.000000 
0.134000 -2.912942 0.000000 
0.178411 -2.929275 0.000000 
0.235864 -2.821946 0.000000 
0.224363 -2.865986 0.000000 
0.279230 -2.889086 0.000000 
0.252719 -2.920287 0.000000 
0.295091 -2.935675 0.000000 
0.313199 -2.754910 0.000000 
0.306056 -2.800854 0.000000 
0.364158 -2.826840 0.000000 
0.348836 -2.873184 0.000000 
0.399589 -2.896482 0.000000 
0.372208 -2.926675 0.000000 
0.416665 -2.940952 0.000000 
0.387503 -2.685833 0.000000 
0.381865 -2.732462 0.000000 
0.440898 -2.752718 0.000000 
0.431393 -2.802869 0.000000 
0.486653 -2.825510 0.000000 
0.471208 -2.874576 0.000000 
0.523188 -2.892943 0.000000 
0.496108 -2.926019 0.000000 
0.541849 -2.937387 0.000000 
0.027950 -2.899424 0.000000 
0.030079 -2.810374 0.000000 
0.058013 -2.853298 0.000000 
0.113345 -2.844075 0.000000 
0.029894 -2.712990 0.000000 
0.059594 -2.751940 0.000000 
0.117080 -2.734863 0.000000 
0.142652 -2.785108 0.000000 
0.194314 -2.780251 0.000000 
0.029367 -2.611879 0.000000 
0.058827 -2.650297 0.000000 
0.116157 -2.628654 0.000000 
0.144078 -2.674701 0.000000 
0.197638 -2.663331 0.000000 
0.221663 -2.718709 0.000000 
0.270788 -2.713815 0.000000 
0.029424 -2.510262 0.000000 
0.058613 -2.547725 0.000000 
0.116293 -2.522777 0.000000 
0.144268 -2.566330 0.000000 
0.199380 -2.549982 0.000000 
0.224641 -2.601580 0.000000 
0.276234 -2.590768 0.000000 
0.298188 -2.648441 0.000000 
0.345895 -2.643726 0.000000 
VECTORS X_EC float 
0.363351 -0.357775 0.000000 
-0.526520 0.895016 0.000000 
0.754172 -0.980473 0.000000 
0.391031 0.440043 0.000000 
0.526086 0.033394 0.000000 
-0.145528 0.098954 0.000000 
-0.477966 -0.579345 0.000000 
0.774717 -0.348811 0.000000 
0.388625 -0.874639 0.000000 
-0.479761 -0.863492 0.000000 
0.881613 -0.797423 0.000000 
0.569299 0.454966 0.000000 
-0.126991 0.608462 0.000000 
-0.489958 -0.013168 0.000000 
0.764748 0.279015 0.000000 
0.381776 -0.239635 0.000000 
0.496640 0.190296 0.000000 
-0.123560 0.253948 0.000000 
-0.408958 -0.524631 0.000000 
0.920338 -0.378673 0.000000 
0.591940 0.924755 0.000000 
-0.124521 -0.854543 0.000000 
-0.488194 0.557486 0.000000 
0.761972 0.894286 0.000000 
0.382518 0.388531 0.000000 
0.821132 -0.051830 0.000000 
0.319340 0.045212 0.000000 
-0.257994 -0.175288 0.000000 
-0.007077 -0.602440 0.000000 
-0.163817 0.131614 0.000000 
-0.714656 -0.076128 0.000000 
-0.370013 -0.497338 0.000000 
0.916716 -0.809194 0.000000 
-0.933768 0.596271 0.000000 
-0.583352 0.202857 0.000000 
0.838706 0.010106 0.000000 
-0.805346 -0.397492 0.000000 
0.534871 -0.712020 0.000000 
0.734055 0.662343 0.000000 
-0.021276 0.311536 0.000000 
0.071588 -0.308716 0.000000 
-0.955967 0.154729 0.000000 
0.449406 0.001250 0.000000 
0.801447 -0.445270 0.000000 
0.125704 -0.693231 0.000000 
0.326492 0.644384 0.000000 
-0.391892 0.338730 0.000000 
-0.268324 -0.338311 0.000000 
0.964240 -0.611756 0.000000 
-0.962466 0.758751 0.000000 
0.657076 0.235788 0.000000 
-0.639959 0.575695 0.000000 
-0.580692 0.402819 0.000000 
0.167416 0.330483 0.000000 
0.063918 0.763684 0.000000 
0.181415 0.671143 0.000000 
-0.933892 0.639108 0.000000 
0.994547 0.476737 0.000000 
-0.281552 0.399097 0.000000 
0.844299 0.871996 0.000000 
0.948793 0.820792 0.000000 
0.087966 0.807004 0.000000 
0.050314 0.720296 0.000000 
0.971983 0.682959 0.000000 
0.703320 0.531416 0.000000 
-0.618209 0.454104 0.000000 
-0.168204 0.936752 0.000000 
-0.019712 0.907385 0.000000 
-0.689798 0.901147 0.000000 
-0.730341 0.852780 0.000000 
0.297843 0.819312 0.000000 
0.071809 0.738075 0.000000 
0.828569 0.677694 0.000000 
0.447826 0.532931 0.000000 
-0.936611 0.421126 0.000000 
0.000000 0.334794 0.000000 
-0.601317 0.642100 0.000000 
0.000000 0.566004 0.000000 
0.601317 0.642100 0.000000 
0.764958 0.805445 0.000000 
-0.605059 0.773407 0.000000 
0.000000 0.824731 0.000000 
0.605059 0.773407 0.000000 
-0.764958 0.805445 0.000000 
0.000361 0.895209 0.000000 
0.716313 0.879079 0.000000 
-0.640693 0.911217 0.000000 
0.000000 0.889088 0.000000 
0.640693 0.911217 0.000000 
-0.716313 0.879079 0.000000 
-0.000361 0.895209 0.000000 
-0.789256 0.949376 0.000000 
-0.062422 0.939074 0.000000 
0.636075 0.959007 0.000000 
-0.655565 0.947244 0.000000 
0.000000 0.961932 0.000000 
0.655565 0.947244 0.000000 
-0.636075 0.959007 0.000000 
0.062422 0.939074 0.000000 
0.789256 0.949376 0.000000 
-0.657076 0.235788 0.000000 
-0.167416 0.330483 0.000000 
0.580692 0.402819 0.000000 
0.639959 0.575695 0.000000 
0.281552 0.399097 0.000000 
-0.994547 0.476737 0.000000 
0.933892 0.639108 0.000000 
-0.181415 0.671143 0.000000 
-0.063918 0.763684 0.000000 
0.618209 0.454104 0.000000 
-0.703320 0.531416 0.000000 
-0.971983 0.682959 0.000000 
-0.050314 0.720296 0.000000 
-0.087966 0.807004 0.000000 
-0.948793 0.820792 0.000000 
-0.844299 0.871996 0.000000 
0.936611 0.421126 0.000000 
-0.447826 0.532931 0.000000 
-0.828569 0.677694 0.000000 
-0.071809 0.738075 0.000000 
-0.297843 0.819312 0.000000 
0.730341 0.852780 0.000000 
0.689798 0.901147 0.000000 
0.019712 0.907385 0.000000 
0.168204 0.936752 0.000000 
-0.821132 -0.051830 0.000000 
0.007077 -0.602440 0.000000 
0.257994 -0.175288 0.000000 
-0.319340 0.045212 0.000000 
0.933768 0.596271 0.000000 
-0.916716 -0.809194 0.000000 
0.370013 -0.497338 0.000000 
0.714656 -0.076128 0.000000 
0.163817 0.131614 0.000000 
-0.071588 -0.308716 0.000000 
0.021276 0.311536 0.000000 
-0.734055 0.662343 0.000000 
-0.534871 -0.712020 0.000000 
0.805346 -0.397492 0.000000 
-0.838706 0.010106 0.000000 
0.583352 0.202857 0.000000 
0.962466 0.758751 0.000000 
-0.964240 -0.611756 0.000000 
0.268324 -0.338311 0.000000 
0.391892 0.338730 0.000000 
-0.326492 0.644384 0.000000 
-0.125704 -0.693231 0.000000 
-0.801447 -0.445270 0.000000 
-0.449406 0.001250 0.000000 
0.955967 0.154729 0.000000 
-0.363351 -0.357775 0.000000 
-0.391031 0.440043 0.000000 
-0.754172 -0.980473 0.000000 
0.526520 0.895016 0.000000 
-0.388625 -0.874639 0.000000 
-0.774717 -0.348811 0.000000 
0.477966 -0.579345 0.000000 
0.145528 0.098954 0.000000 
-0.526086 0.033394 0.000000 
-0.381776 -0.239635 0.000000 
-0.764748 0.279015 0.000000 
0.489958 -0.013168 0.000000 
0.126991 0.608462 0.000000 
-0.569299 0.454966 0.000000 
-0.881613 -0.797423 0.000000 
0.479761 -0.863492 0.000000 
-0.382518 0.388531 0.000000 
-0.761972 0.894286 0.000000 
0.488194 0.557486 0.000000 
0.124521 -0.854543 0.000000 
-0.591940 0.924755 0.000000 
-0.920338 -0.378673 0.000000 
0.408958 -0.524631 0.000000 
0.123560 0.253948 0.000000 
-0.496640 0.190296 0.000000 
CELL_DATA 175 
SCALARS MASS float 
LOOKUP_TABLE default 
0.781831 
0.864274 
0.946717 
0.864274 
0.881307 
0.921110 
0.858535 
0.921110 
0.881307 
0.887046 
0.910001 
0.869829 
0.915556 
0.869829 
0.910001 
0.887046 
0.892784 
0.915740 
0.892784 
0.927218 
0.892784 
0.927218 
0.892784 
0.915740 
0.892784 
0.781831 
0.864274 
0.946717 
0.864274 
0.881307 
0.921110 
0.858535 
0.921110 
0.881307 
0.887046 
0.910001 
0.869829 
0.915556 
0.869829 
0.910001 
0.887046 
0.892784 
0.915740 
0.892784 
0.927218 
0.892784 
0.927218 
0.892784 
0.915740 
0.892784 
0.781831 
0.864274 
0.946717 
0.864274 
0.881307 
0.921110 
0.858535 
0.921110 
0.881307 
0.887046 
0.910001 
0.869829 
0.915556 
0.869829 
0.910001 
0.887046 
0.892784 
0.915740 
0.892784 
0.927218 
0.892784 
0.927218 
0.892784 
0.915740 
0.892784 
0.781831 
0.864274 
0.946717 
0.864274 
0.881307 
0.921110 
0.858535 
0.921110 
0.881307 
0.887046 
0.910001 
0.869829 
0.915556 
0.869829 
0.910001 
0.887046 
0.892784 
0.915740 
0.892784 
0.927218 
0.892784 
0.927218 
0.892784 
0.915740 
0.892784 
0.781831 
0.864274 
0.946717 
0.864274 
0.881307 
0.921110 
0.858535 
0.921110 
0.881307 
0.887046 
0.910001 
0.869829 
0.915556 
0.869829 
0.910001 
0.887046 
0.892784 
0.915740 
0.892784 
0.927218 
0.892784 
0.927218 
0.892784 
0.915740 
0.892784 
0.781831 
0.864274 
0.946717 
0.864274 
0.881307 
0.921110 
0.858535 
0.921110 
0.881307 
0.887046 
0.910001 
0.869829 
0.915556 
0.869829 
0.910001 
0.887046 
0.892784 
0.915740 
0.892784 
0.927218 
0.892784 
0.927218 
0.892784 
0.915740 
0.892784 
0.781831 
0.864274 
0.946717 
0.864274 
0.881307 
0.921110 
0.858535 
0.921110 
0.881307 
0.887046 
0.910001 
0.869829 
0.915556 
0.869829 
0.910001 
0.887046 
0.892784 
0.915740 
0.892784 
0.927218 
0.892784 
0.927218 
0.892784 
0.915740 
0.892784 
SCALARS MASS float 
LOOKUP_TABLE default 
0.781831 
0.864274 
0.946717 
0.864274 
0.881307 
0.921110 
0.858535 
0.921110 
0.881307 
0.887046 
0.910001 
0.869829 
0.915556 
0.869829 
0.910001 
0.887046 
0.892784 
0.915740 
0.892784 
0.927218 
0.892784 
0.927218 
0.892784 
0.915740 
0.892784 
0.781831 
0.864274 
0.946717 
0.864274 
0.881307 
0.921110 
0.858535 
0.921110 
0.881307 
0.887046 
0.910001 
0.869829 
0.915556 
0.869829 
0.910001 
0.887046 
0.892784 
0.915740 
0.892784 
0.927218 
0.892784 
0.927218 
0.892784 
0.915740 
0.892784 
0.781831 
0.864274 
0.946717 
0.864274 
0.881307 
0.921110 
0.858535 
0.921110 
0.881307 
0.887046 
0.910001 
0.869829 
0.915556 
0.869829 
0.910001 
0.887046 
0.892784 
0.915740 
0.892784 
0.927218 
0.892784 
0.927218 
0.892784 
0.915740 
0.892784 
0.781831 
0.864274 
0.946717 
0.864274 
0.881307 
0.921110 
0.858535 
0.921110 
0.881307 
0.887046 
0.910001 
0.869829 
0.915556 
0.869829 
0.910001 
0.887046 
0.892784 
0.915740 
0.892784 
0.927218 
0.892784 
0.927218 
0.892784 
0.915740 
0.892784 
0.781831 
0.864274 
0.946717 
0.864274 
0.881307 
0.921110 
0.858535 
0.921110 
0.881307 
0.887046 
0.910001 
0.869829 
0.915556 
0.869829 
0.910001 
0.887046 
0.892784 
0.915740 
0.892784 
0.927218 
0.892784 
0.927218 
0.892784 
0.915740 
0.892784 
0.781831 
0.864274 
0.946717 
0.864274 
0.881307 
0.921110 
0.858535 
0.921110 
0.881307 
0.887046 
0.910001 
0.869829 
0.915556 
0.869829 
0.910001 
0.887046 
0.892784 
0.915740 
0.892784 
0.927218 
0.892784 
0.927218 
0.892784 
0.915740 
0.892784 
0.781831 
0.864274 
0.946717 
0.864274 
0.881307 
0.921110 
0.858535 
0.921110 
0.881307 
0.887046 
0.910001 
0.869829 
0.915556 
0.869829 
0.910001 
0.887046 
0.892784 
0.915740 
0.892784 
0.927218 
0.892784 
0.927218 
0.892784 
0.915740 
0.892784 
SCALARS DENSITY float 
LOOKUP_TABLE default 
2452718993.985261 
131.347215 
59.282136 
1220.307880 
72.310337 
195.364607 
306.474956 
278.229594 
189.655694 
205.950763 
1058.668484 
172.687136 
150.755566 
270.636202 
134.390713 
347.501145 
518.116923 
173.213483 
680.192313 
3590.911267 
174.593511 
304.087814 
452.691348 
220.289257 
238.142390 
21881207040907916.000000 
1449392951249143595008.000000 
679160805262.999023 
5420.668939 
68997321640138248055422976.000000 
520773147305727552.000000 
81654.837641 
180.727433 
2043.996604 
49271667751927638502390039052288.000000 
669661749771499776.000000 
235014.362684 
295.657023 
1312.246905 
120.838257 
305.217464 
2625791910862596435518330765312.000000 
980148737584371584.000000 
28450357.008606 
629.498152 
69361.908640 
186.994714 
1864.370829 
393.941753 
475.602740 
4100597029874330478169149941510044137009885435811332096.000000 
2426277154969261140995557670251976067451054289378758469354873315719525216642790271685464939683551117312.000000 
-97679560752344560529132650464539942082177995596521523086873474761764339915423744.000000 
385285823782976070694804874478361001543238125518894392193727118442496.000000 
24534954117290902173107739246604240598125550733669375653627784452192964982974369756042391939369162488926912741638144.000000 
-12465448897534431324367865371714275079972930254933999715915666092788385612786495471154495006980458472229830656.000000 
970660821051050666927485655652858101219286016183874093246004789245890455008920114493315930850524638830742751630076149760.000000 
27149424888966905010448423692104013421287267413472336822606786360652436352818758866492719104.000000 
-23508465508286971560307228509061963176199223824837255749697363676432851139559424.000000 
-16332558053757137717771747023237083264905031925656607130390924650412768516838060488500213323389033146344275968.000000 
-74424645290795552244307029877238536337513724483515388240744602903820389565587841613440546588896329456176645879627776.000000 
-8970979438056950405450875909451112087891404881856500367779880144263315658021982166717624052937529380663230713762124424009482240.000000 
-1104418171216550288511607979243480778920636762093577260566059761865701421668784331804176657426704308017057228615954099863552.000000 
-443392274329374113768451975616568089568156059986431819504768043712664889043846291806780359127613285537996423576517626298368.000000 
-1639534296739526348608528739126443456696547056753172295901087229759279856828283935119488267304796967403520.000000 
-10858963835452441252228054918352571298540684027684643440040926401658053777984247774477975742840832.000000 
2119554149413863054040501903118243114380560132668463300602656568679270330828021907383901717900658277875712.000000 
-12776817275620816477362013193236437890480268852784596815566502901405027824744159393737432792803002799037088490250567680.000000 
-6342903086627615245447402605073009559633343602120492383546334276146613735876073129648109243737090110172672731544951980032.000000 
64094063286632564209965259096827214090537429626200161185162881778266792265862760493593204558955660542658133102111688153366528.000000 
1039774696004410272997432694274661271858745453381359150247128206484954157019433855480127247068202898088808536866816.000000 
-132735543099684023699028121237063523532950183718476947448976007548632643349455364803161954859725725076988771595037179904.000000 
-130659110627410639801990065972374334314890945228809908752742614819620509069173671745090241249547137576084853659224087531647664128.000000 
-205416912719934303575497083596793653095232382242561497456310871795434529146537366215644494760554780485406541207004250112.000000 
-223823716682464046936428943880418243577911470829061648065351834313345558292968381733143639625583034368.000000 
-4045157799315279731239283401538796638080704501559972241348082052518656344064.000000 
-2098314123411814066623332125271088169410461488726761323307605077354311584594337192886193095718601752576.000000 
-7401145731568221367258879563496852044375423960550841863208377276475524676553880106705178933621424128.000000 
-2098314303646355678790038178608194338995940180723839692117444141512498542925577528735151335155152453632.000000 
-9322357978069206447847613983082997577830186435405370546610222176262621877837118419525398438188398947191320739840.000000 
37354098784905287966394664094038000535679903895517491683493484690092453608483928834892180939250404950016.000000 
44977144487620176428584642387000482287267594765985600203054035025519562823456296006452416416879476736.000000 
37354102066181943815434770218895356589951053986616079324072628124700682292657654108912180741621376090112.000000 
-9322353444274258463770301718327419684473713972552282837292009775658252316963988506663092603896347916495321300992.000000 
-33517571401557552796576189145797942399518039584531187189492651726036920067498747730236314744849956864.000000 
-47001102043064828013417272300977403554401714779680661530264973193753620354592500585940336955784450539520.000000 
-80767723908746170095790308813203150563919206197564651352367452221811406460744080818176.000000 
629562685071470305711419636905345897960380857440972645626044111165248759312180018665226240.000000 
-80767717716770986688013461736286048050199469426187252268023317004032759496416002310144.000000 
-47001050514333140958742641163896450074829953024043469333936197021985526474921822175759870889760164675584.000000 
-33517590420333404922096316785202303233370815827978402951997758881319913130544509675977948564828454912.000000 
182447418366614798635620650718811908896655237814373974346052598816233263988736.000000 
108498411103612823431089960094785846054368140558928859953696323417096198223608938496.000000 
-48511884967179402566997944706586271312850555700142029151566770995200.000000 
467206084538683823158966335043149433543597992334551814780466095133294592.000000 
-3247026318392343966807871598615653276813943592096660198246055936.000000 
467206061235789764233901200786368877312542868463490274401790953909125120.000000 
-48511862196363199332770908314960505754553322808923553432154083950592.000000 
108498334871289554583854089697173473111587627991787540283164078130339101062117457920.000000 
182447343196583797076189451327126345765661464526576451882604507673638050201600.000000 
4100597943209459012794546666689718210218629949718265856.000000 
385285526396713988320078588154211561723102457625946637733122210267136.000000 
-97679660438829057223999202585637634750732064346706584919535952855888294695665664.000000 
2426277037076897127110804138505139380939719930731565988558265380435830850079183712456786617678849638400.000000 
-23508468149688585481715396206644265361230643323194021743401425638289373097099264.000000 
27149445445305925457990425366130475329973154243488529412749601108610876664332406083079372800.000000 
970662146806500087254821613463941029727905940224127217044828456023145917556707203191790486886233243231978352033430241280.000000 
-12465446581716379448975536939406899096331802905909255165204930614255996747713600007469626104657581171045040128.000000 
24535043064750441464173672280582599558033189003602001539578671352507561270095253052487563066323763411480916889960448.000000 
-10858961193288921842495800543673704422491262158861477074410887485551942061203919849317601218920448.000000 
-1639535056491853609259199279618093606143350668534792799453780481215901950905513173255343525902488988286976.000000 
-443392275281615583827088918160115951721464994775036070096648832804566318815310110378858160413167987994365032864263406878720.000000 
-1104418428509479717104545905447670108928852402302770636682771046783977794241671123844488066411077348446717011160699852816384.000000 
-8970970316783571085448868689454993758626738384105274659391630073541972664455967541203231747769493259609372071488587109133975552.000000 
-74424664794920514629367560355423899553070528871498305386655953009842650161159411898617485718626823996282746555072512.000000 
-16332568647265388269288044823380048848894477779559987352376626060244855972703633459004300121447810591520456704.000000 
-223827085362715908293550356218656724331802473612685814448922368736385783209208654742136490599450148864.000000 
-205416707755376616846271280516550738075700614001756457412318792187739739593484684533414371519570337357890923774800297984.000000 
-130659122714105212943263455224434358410522782780324278292950951017900431154515673675284319089957801195448398997952328880688726016.000000 
-132735484318558073826184145239160206732786469555946312538651395084792280611128378743515427147175924236811606162130599936.000000 
1039774027977746485039000736747653060360333212541561544788850809156993626193806950815968991037616687257640501248000.000000 
64094094437240382001431352550928967978998788193475862426227334915713363109699269239801801940874798714439267099441665237057536.000000 
-6342904642014641430124845687259831846238709505309601894708100446691258883035024799593445128249811048878259515124439056384.000000 
-12776820794603692366916923681858829236380147579463914177555335849577379965444967694087537537393433897293803387688583168.000000 
2119554755126240709833075335634137993855442078716250837606639958782423657743761936489852659420298731323392.000000 
21881208224980800.000000 