# vtk DataFile Version 3.0 
vtk output 
ASCII 
DATASET UNSTRUCTURED_GRID 
POINTS 175 float 
-0.026061 -1.726429 0.000000 
-0.106992 -1.658374 0.000000 
-0.054870 -1.666606 0.000000 
-0.028809 -1.620723 0.000000 
-0.186430 -1.594298 0.000000 
-0.137056 -1.596825 0.000000 
-0.114311 -1.543177 0.000000 
-0.058186 -1.558843 0.000000 
-0.029377 -1.518666 0.000000 
-0.265318 -1.531143 0.000000 
-0.217198 -1.531942 0.000000 
-0.196633 -1.474646 0.000000 
-0.143120 -1.483354 0.000000 
-0.116563 -1.436086 0.000000 
-0.058945 -1.455732 0.000000 
-0.029568 -1.417611 0.000000 
-0.344206 -1.467987 0.000000 
-0.296791 -1.467980 0.000000 
-0.278030 -1.408037 0.000000 
-0.225992 -1.413903 0.000000 
-0.201664 -1.361786 0.000000 
-0.145749 -1.375260 0.000000 
-0.117890 -1.330917 0.000000 
-0.059328 -1.353623 0.000000 
-0.029759 -1.316557 0.000000 
-0.058559 -1.767180 0.000000 
-0.162226 -1.788023 0.000000 
-0.123292 -1.752405 0.000000 
-0.142917 -1.703422 0.000000 
-0.261851 -1.810179 0.000000 
-0.229092 -1.773152 0.000000 
-0.256854 -1.721920 0.000000 
-0.209613 -1.687808 0.000000 
-0.223062 -1.640234 0.000000 
-0.360414 -1.832479 0.000000 
-0.329787 -1.795356 0.000000 
-0.361761 -1.743554 0.000000 
-0.321587 -1.707145 0.000000 
-0.341985 -1.656911 0.000000 
-0.290702 -1.624112 0.000000 
-0.302189 -1.577377 0.000000 
-0.458977 -1.854779 0.000000 
-0.429420 -1.817705 0.000000 
-0.464588 -1.765663 0.000000 
-0.427556 -1.728635 0.000000 
-0.453135 -1.677121 0.000000 
-0.407738 -1.641805 0.000000 
-0.425037 -1.592377 0.000000 
-0.370772 -1.560748 0.000000 
-0.381315 -1.514521 0.000000 
-0.046960 -1.817995 0.000000 
-0.095301 -1.912041 0.000000 
-0.098873 -1.859394 0.000000 
-0.149405 -1.844196 0.000000 
-0.140093 -2.003745 0.000000 
-0.148617 -1.955047 0.000000 
-0.205981 -1.944810 0.000000 
-0.203197 -1.886606 0.000000 
-0.248777 -1.867460 0.000000 
-0.184111 -2.094709 0.000000 
-0.194039 -2.047618 0.000000 
-0.254475 -2.040318 0.000000 
-0.257893 -1.986208 0.000000 
-0.309886 -1.970836 0.000000 
-0.303554 -1.910291 0.000000 
-0.347255 -1.890133 0.000000 
-0.228129 -2.185672 0.000000 
-0.238687 -2.139448 0.000000 
-0.301302 -2.134496 0.000000 
-0.307162 -2.082457 0.000000 
-0.363386 -2.070336 0.000000 
-0.362692 -2.012825 0.000000 
-0.412122 -1.995532 0.000000 
-0.403017 -1.933385 0.000000 
-0.445733 -1.912806 0.000000 
-0.000000 -1.840610 0.000000 
0.043388 -1.937041 0.000000 
-0.000000 -1.907008 0.000000 
-0.043388 -1.937041 0.000000 
0.087158 -2.029237 0.000000 
0.043769 -2.005539 0.000000 
-0.000000 -2.044005 0.000000 
-0.043769 -2.005539 0.000000 
-0.087158 -2.029237 0.000000 
0.130831 -2.120367 0.000000 
0.087824 -2.098768 0.000000 
0.044436 -2.141468 0.000000 
-0.000000 -2.110403 0.000000 
-0.044436 -2.141468 0.000000 
-0.087824 -2.098768 0.000000 
-0.130831 -2.120367 0.000000 
0.174505 -2.211497 0.000000 
0.131782 -2.190931 0.000000 
0.088871 -2.236797 0.000000 
0.044532 -2.208933 0.000000 
-0.000000 -2.245334 0.000000 
-0.044532 -2.208933 0.000000 
-0.088871 -2.236797 0.000000 
-0.131782 -2.190931 0.000000 
-0.174505 -2.211497 0.000000 
0.046960 -1.817995 0.000000 
0.149405 -1.844196 0.000000 
0.098873 -1.859394 0.000000 
0.095301 -1.912041 0.000000 
0.248777 -1.867460 0.000000 
0.203197 -1.886606 0.000000 
0.205981 -1.944810 0.000000 
0.148617 -1.955047 0.000000 
0.140093 -2.003745 0.000000 
0.347255 -1.890133 0.000000 
0.303554 -1.910291 0.000000 
0.309886 -1.970836 0.000000 
0.257893 -1.986208 0.000000 
0.254475 -2.040318 0.000000 
0.194039 -2.047618 0.000000 
0.184111 -2.094709 0.000000 
0.445733 -1.912806 0.000000 
0.403017 -1.933385 0.000000 
0.412122 -1.995532 0.000000 
0.362692 -2.012825 0.000000 
0.363386 -2.070336 0.000000 
0.307162 -2.082457 0.000000 
0.301302 -2.134496 0.000000 
0.238687 -2.139448 0.000000 
0.228129 -2.185672 0.000000 
0.058559 -1.767180 0.000000 
0.142917 -1.703422 0.000000 
0.123292 -1.752405 0.000000 
0.162226 -1.788023 0.000000 
0.223062 -1.640234 0.000000 
0.209613 -1.687808 0.000000 
0.256854 -1.721920 0.000000 
0.229092 -1.773152 0.000000 
0.261851 -1.810179 0.000000 
0.302189 -1.577377 0.000000 
0.290702 -1.624112 0.000000 
0.341985 -1.656911 0.000000 
0.321587 -1.707145 0.000000 
0.361761 -1.743554 0.000000 
0.329787 -1.795356 0.000000 
0.360414 -1.832479 0.000000 
0.381315 -1.514521 0.000000 
0.370772 -1.560748 0.000000 
0.425037 -1.592377 0.000000 
0.407738 -1.641805 0.000000 
0.453135 -1.677121 0.000000 
0.427556 -1.728635 0.000000 
0.464588 -1.765663 0.000000 
0.429420 -1.817705 0.000000 
0.458977 -1.854779 0.000000 
0.026061 -1.726429 0.000000 
0.028809 -1.620723 0.000000 
0.054870 -1.666606 0.000000 
0.106992 -1.658374 0.000000 
0.029377 -1.518666 0.000000 
0.058186 -1.558843 0.000000 
0.114311 -1.543177 0.000000 
0.137056 -1.596825 0.000000 
0.186430 -1.594298 0.000000 
0.029568 -1.417611 0.000000 
0.058945 -1.455732 0.000000 
0.116563 -1.436086 0.000000 
0.143120 -1.483354 0.000000 
0.196633 -1.474646 0.000000 
0.217198 -1.531942 0.000000 
0.265318 -1.531143 0.000000 
0.029759 -1.316557 0.000000 
0.059328 -1.353623 0.000000 
0.117890 -1.330917 0.000000 
0.145749 -1.375260 0.000000 
0.201664 -1.361786 0.000000 
0.225992 -1.413903 0.000000 
0.278030 -1.408037 0.000000 
0.296791 -1.467980 0.000000 
0.344206 -1.467987 0.000000 
CELLS 175 350 
1 0 
1 1 
1 2 
1 3 
1 4 
1 5 
1 6 
1 7 
1 8 
1 9 
1 10 
1 11 
1 12 
1 13 
1 14 
1 15 
1 16 
1 17 
1 18 
1 19 
1 20 
1 21 
1 22 
1 23 
1 24 
1 25 
1 26 
1 27 
1 28 
1 29 
1 30 
1 31 
1 32 
1 33 
1 34 
1 35 
1 36 
1 37 
1 38 
1 39 
1 40 
1 41 
1 42 
1 43 
1 44 
1 45 
1 46 
1 47 
1 48 
1 49 
1 50 
1 51 
1 52 
1 53 
1 54 
1 55 
1 56 
1 57 
1 58 
1 59 
1 60 
1 61 
1 62 
1 63 
1 64 
1 65 
1 66 
1 67 
1 68 
1 69 
1 70 
1 71 
1 72 
1 73 
1 74 
1 75 
1 76 
1 77 
1 78 
1 79 
1 80 
1 81 
1 82 
1 83 
1 84 
1 85 
1 86 
1 87 
1 88 
1 89 
1 90 
1 91 
1 92 
1 93 
1 94 
1 95 
1 96 
1 97 
1 98 
1 99 
1 100 
1 101 
1 102 
1 103 
1 104 
1 105 
1 106 
1 107 
1 108 
1 109 
1 110 
1 111 
1 112 
1 113 
1 114 
1 115 
1 116 
1 117 
1 118 
1 119 
1 120 
1 121 
1 122 
1 123 
1 124 
1 125 
1 126 
1 127 
1 128 
1 129 
1 130 
1 131 
1 132 
1 133 
1 134 
1 135 
1 136 
1 137 
1 138 
1 139 
1 140 
1 141 
1 142 
1 143 
1 144 
1 145 
1 146 
1 147 
1 148 
1 149 
1 150 
1 151 
1 152 
1 153 
1 154 
1 155 
1 156 
1 157 
1 158 
1 159 
1 160 
1 161 
1 162 
1 163 
1 164 
1 165 
1 166 
1 167 
1 168 
1 169 
1 170 
1 171 
1 172 
1 173 
1 174 
CELL_TYPES 175 
1 
1 
1 
1 
1 
1 
1 
1 
1 
1 
1 
1 
1 
1 
1 
1 
1 
1 
1 
1 
1 
1 
1 
1 
1 
1 
1 
1 
1 
1 
1 
1 
1 
1 
1 
1 
1 
1 
1 
1 
1 
1 
1 
1 
1 
1 
1 
1 
1 
1 
1 
1 
1 
1 
1 
1 
1 
1 
1 
1 
1 
1 
1 
1 
1 
1 
1 
1 
1 
1 
1 
1 
1 
1 
1 
1 
1 
1 
1 
1 
1 
1 
1 
1 
1 
1 
1 
1 
1 
1 
1 
1 
1 
1 
1 
1 
1 
1 
1 
1 
1 
1 
1 
1 
1 
1 
1 
1 
1 
1 
1 
1 
1 
1 
1 
1 
1 
1 
1 
1 
1 
1 
1 
1 
1 
1 
1 
1 
1 
1 
1 
1 
1 
1 
1 
1 
1 
1 
1 
1 
1 
1 
1 
1 
1 
1 
1 
1 
1 
1 
1 
1 
1 
1 
1 
1 
1 
1 
1 
1 
1 
1 
1 
1 
1 
1 
1 
1 
1 
1 
1 
1 
1 
1 
1 
POINT_DATA 175 
VECTORS X_GC float 
-0.026061 -1.726429 0.000000 
-0.106992 -1.658374 0.000000 
-0.054870 -1.666606 0.000000 
-0.028809 -1.620723 0.000000 
-0.186430 -1.594298 0.000000 
-0.137056 -1.596825 0.000000 
-0.114311 -1.543177 0.000000 
-0.058186 -1.558843 0.000000 
-0.029377 -1.518666 0.000000 
-0.265318 -1.531143 0.000000 
-0.217198 -1.531942 0.000000 
-0.196633 -1.474646 0.000000 
-0.143120 -1.483354 0.000000 
-0.116563 -1.436086 0.000000 
-0.058945 -1.455732 0.000000 
-0.029568 -1.417611 0.000000 
-0.344206 -1.467987 0.000000 
-0.296791 -1.467980 0.000000 
-0.278030 -1.408037 0.000000 
-0.225992 -1.413903 0.000000 
-0.201664 -1.361786 0.000000 
-0.145749 -1.375260 0.000000 
-0.117890 -1.330917 0.000000 
-0.059328 -1.353623 0.000000 
-0.029759 -1.316557 0.000000 
-0.058559 -1.767180 0.000000 
-0.162226 -1.788023 0.000000 
-0.123292 -1.752405 0.000000 
-0.142917 -1.703422 0.000000 
-0.261851 -1.810179 0.000000 
-0.229092 -1.773152 0.000000 
-0.256854 -1.721920 0.000000 
-0.209613 -1.687808 0.000000 
-0.223062 -1.640234 0.000000 
-0.360414 -1.832479 0.000000 
-0.329787 -1.795356 0.000000 
-0.361761 -1.743554 0.000000 
-0.321587 -1.707145 0.000000 
-0.341985 -1.656911 0.000000 
-0.290702 -1.624112 0.000000 
-0.302189 -1.577377 0.000000 
-0.458977 -1.854779 0.000000 
-0.429420 -1.817705 0.000000 
-0.464588 -1.765663 0.000000 
-0.427556 -1.728635 0.000000 
-0.453135 -1.677121 0.000000 
-0.407738 -1.641805 0.000000 
-0.425037 -1.592377 0.000000 
-0.370772 -1.560748 0.000000 
-0.381315 -1.514521 0.000000 
-0.046960 -1.817995 0.000000 
-0.095301 -1.912041 0.000000 
-0.098873 -1.859394 0.000000 
-0.149405 -1.844196 0.000000 
-0.140093 -2.003745 0.000000 
-0.148617 -1.955047 0.000000 
-0.205981 -1.944810 0.000000 
-0.203197 -1.886606 0.000000 
-0.248777 -1.867460 0.000000 
-0.184111 -2.094709 0.000000 
-0.194039 -2.047618 0.000000 
-0.254475 -2.040318 0.000000 
-0.257893 -1.986208 0.000000 
-0.309886 -1.970836 0.000000 
-0.303554 -1.910291 0.000000 
-0.347255 -1.890133 0.000000 
-0.228129 -2.185672 0.000000 
-0.238687 -2.139448 0.000000 
-0.301302 -2.134496 0.000000 
-0.307162 -2.082457 0.000000 
-0.363386 -2.070336 0.000000 
-0.362692 -2.012825 0.000000 
-0.412122 -1.995532 0.000000 
-0.403017 -1.933385 0.000000 
-0.445733 -1.912806 0.000000 
-0.000000 -1.840610 0.000000 
0.043388 -1.937041 0.000000 
-0.000000 -1.907008 0.000000 
-0.043388 -1.937041 0.000000 
0.087158 -2.029237 0.000000 
0.043769 -2.005539 0.000000 
-0.000000 -2.044005 0.000000 
-0.043769 -2.005539 0.000000 
-0.087158 -2.029237 0.000000 
0.130831 -2.120367 0.000000 
0.087824 -2.098768 0.000000 
0.044436 -2.141468 0.000000 
-0.000000 -2.110403 0.000000 
-0.044436 -2.141468 0.000000 
-0.087824 -2.098768 0.000000 
-0.130831 -2.120367 0.000000 
0.174505 -2.211497 0.000000 
0.131782 -2.190931 0.000000 
0.088871 -2.236797 0.000000 
0.044532 -2.208933 0.000000 
-0.000000 -2.245334 0.000000 
-0.044532 -2.208933 0.000000 
-0.088871 -2.236797 0.000000 
-0.131782 -2.190931 0.000000 
-0.174505 -2.211497 0.000000 
0.046960 -1.817995 0.000000 
0.149405 -1.844196 0.000000 
0.098873 -1.859394 0.000000 
0.095301 -1.912041 0.000000 
0.248777 -1.867460 0.000000 
0.203197 -1.886606 0.000000 
0.205981 -1.944810 0.000000 
0.148617 -1.955047 0.000000 
0.140093 -2.003745 0.000000 
0.347255 -1.890133 0.000000 
0.303554 -1.910291 0.000000 
0.309886 -1.970836 0.000000 
0.257893 -1.986208 0.000000 
0.254475 -2.040318 0.000000 
0.194039 -2.047618 0.000000 
0.184111 -2.094709 0.000000 
0.445733 -1.912806 0.000000 
0.403017 -1.933385 0.000000 
0.412122 -1.995532 0.000000 
0.362692 -2.012825 0.000000 
0.363386 -2.070336 0.000000 
0.307162 -2.082457 0.000000 
0.301302 -2.134496 0.000000 
0.238687 -2.139448 0.000000 
0.228129 -2.185672 0.000000 
0.058559 -1.767180 0.000000 
0.142917 -1.703422 0.000000 
0.123292 -1.752405 0.000000 
0.162226 -1.788023 0.000000 
0.223062 -1.640234 0.000000 
0.209613 -1.687808 0.000000 
0.256854 -1.721920 0.000000 
0.229092 -1.773152 0.000000 
0.261851 -1.810179 0.000000 
0.302189 -1.577377 0.000000 
0.290702 -1.624112 0.000000 
0.341985 -1.656911 0.000000 
0.321587 -1.707145 0.000000 
0.361761 -1.743554 0.000000 
0.329787 -1.795356 0.000000 
0.360414 -1.832479 0.000000 
0.381315 -1.514521 0.000000 
0.370772 -1.560748 0.000000 
0.425037 -1.592377 0.000000 
0.407738 -1.641805 0.000000 
0.453135 -1.677121 0.000000 
0.427556 -1.728635 0.000000 
0.464588 -1.765663 0.000000 
0.429420 -1.817705 0.000000 
0.458977 -1.854779 0.000000 
0.026061 -1.726429 0.000000 
0.028809 -1.620723 0.000000 
0.054870 -1.666606 0.000000 
0.106992 -1.658374 0.000000 
0.029377 -1.518666 0.000000 
0.058186 -1.558843 0.000000 
0.114311 -1.543177 0.000000 
0.137056 -1.596825 0.000000 
0.186430 -1.594298 0.000000 
0.029568 -1.417611 0.000000 
0.058945 -1.455732 0.000000 
0.116563 -1.436086 0.000000 
0.143120 -1.483354 0.000000 
0.196633 -1.474646 0.000000 
0.217198 -1.531942 0.000000 
0.265318 -1.531143 0.000000 
0.029759 -1.316557 0.000000 
0.059328 -1.353623 0.000000 
0.117890 -1.330917 0.000000 
0.145749 -1.375260 0.000000 
0.201664 -1.361786 0.000000 
0.225992 -1.413903 0.000000 
0.278030 -1.408037 0.000000 
0.296791 -1.467980 0.000000 
0.344206 -1.467987 0.000000 
VECTORS X_EC float 
0.338794 -0.193205 0.000000 
-0.609100 0.888047 0.000000 
0.713312 0.999188 0.000000 
0.374519 0.379758 0.000000 
0.423588 0.023028 0.000000 
-0.218274 0.057131 0.000000 
-0.513962 -0.667108 0.000000 
0.756418 -0.455622 0.000000 
0.381900 -0.998014 0.000000 
-0.550868 -0.829576 0.000000 
0.823577 -0.818780 0.000000 
0.556234 0.407716 0.000000 
-0.139443 0.525285 0.000000 
-0.484677 -0.112840 0.000000 
0.766286 0.152375 0.000000 
0.384386 -0.362245 0.000000 
0.474677 0.317821 0.000000 
-0.141715 0.317725 0.000000 
-0.385608 -0.491503 0.000000 
0.937896 -0.412308 0.000000 
0.621631 0.884112 0.000000 
-0.105264 -0.933989 0.000000 
-0.467428 0.467385 0.000000 
0.771260 0.773913 0.000000 
0.386873 0.273524 0.000000 
0.761262 0.356930 0.000000 
0.108942 0.638306 0.000000 
-0.397202 0.157467 0.000000 
-0.142083 -0.503808 0.000000 
-0.595936 0.937417 0.000000 
0.978194 0.437551 0.000000 
-0.660903 -0.254074 0.000000 
0.724964 -0.714594 0.000000 
0.899809 0.643157 0.000000 
0.685384 -0.761531 0.000000 
0.287229 0.737311 0.000000 
0.702895 0.037982 0.000000 
0.180633 -0.453537 0.000000 
0.445811 0.868304 0.000000 
-0.220880 0.425518 0.000000 
-0.071546 -0.205408 0.000000 
-0.033296 -0.460479 0.000000 
-0.417537 -0.960988 0.000000 
0.039645 0.336449 0.000000 
-0.441768 -0.163422 0.000000 
-0.109248 -0.858873 0.000000 
-0.699407 0.664372 0.000000 
-0.474522 -0.002907 0.000000 
0.820030 -0.429901 0.000000 
0.957100 0.946027 0.000000 
0.610485 -0.957064 0.000000 
-0.761092 0.312556 0.000000 
-0.714655 -0.398182 0.000000 
-0.057734 -0.603349 0.000000 
-0.178789 -0.449440 0.000000 
-0.067979 0.893134 0.000000 
0.677748 0.754930 0.000000 
0.641556 -0.030815 0.000000 
-0.765897 -0.289294 0.000000 
0.393446 0.778569 0.000000 
0.522510 0.142839 0.000000 
-0.691820 0.044295 0.000000 
-0.647393 -0.686188 0.000000 
0.028512 -0.893715 0.000000 
-0.053800 0.288925 0.000000 
0.514316 0.016794 0.000000 
0.965681 0.006578 0.000000 
-0.897068 -0.617451 0.000000 
-0.083078 -0.684304 0.000000 
-0.006893 0.613171 0.000000 
0.724017 0.449539 0.000000 
0.714996 -0.326865 0.000000 
-0.642413 -0.560322 0.000000 
-0.760780 0.600697 0.000000 
-0.205471 0.322882 0.000000 
0.000000 -0.651762 0.000000 
-0.564049 0.650051 0.000000 
0.000000 0.244615 0.000000 
0.564049 0.650051 0.000000 
0.866949 -0.105294 0.000000 
-0.569003 -0.425225 0.000000 
0.000000 0.094063 0.000000 
0.569003 -0.425225 0.000000 
-0.866949 -0.105294 0.000000 
0.299194 -0.875044 0.000000 
0.858290 0.833372 0.000000 
-0.577662 -0.590182 0.000000 
0.000000 0.990440 0.000000 
0.577662 -0.590182 0.000000 
-0.858290 0.833372 0.000000 
-0.299194 -0.875044 0.000000 
-0.268560 0.355206 0.000000 
0.286830 0.077564 0.000000 
0.844677 0.696763 0.000000 
-0.578910 0.320600 0.000000 
0.000000 0.812004 0.000000 
0.578910 0.320600 0.000000 
-0.844677 0.696763 0.000000 
-0.286830 0.077564 0.000000 
0.268560 0.355206 0.000000 
-0.610485 -0.957064 0.000000 
0.057734 -0.603349 0.000000 
0.714655 -0.398182 0.000000 
0.761092 0.312556 0.000000 
0.765897 -0.289294 0.000000 
-0.641556 -0.030815 0.000000 
-0.677748 0.754930 0.000000 
0.067979 0.893134 0.000000 
0.178789 -0.449440 0.000000 
-0.514316 0.016794 0.000000 
0.053800 0.288925 0.000000 
-0.028512 -0.893715 0.000000 
0.647393 -0.686188 0.000000 
0.691820 0.044295 0.000000 
-0.522510 0.142839 0.000000 
-0.393446 0.778569 0.000000 
0.205471 0.322882 0.000000 
0.760780 0.600697 0.000000 
0.642413 -0.560322 0.000000 
-0.714996 -0.326865 0.000000 
-0.724017 0.449539 0.000000 
0.006894 0.613171 0.000000 
0.083078 -0.684304 0.000000 
0.897068 -0.617451 0.000000 
-0.965681 0.006578 0.000000 
-0.761262 0.356930 0.000000 
0.142083 -0.503808 0.000000 
0.397202 0.157467 0.000000 
-0.108942 0.638306 0.000000 
-0.899809 0.643157 0.000000 
-0.724964 -0.714594 0.000000 
0.660903 -0.254074 0.000000 
-0.978194 0.437551 0.000000 
0.595936 0.937417 0.000000 
0.071546 -0.205408 0.000000 
0.220880 0.425518 0.000000 
-0.445811 0.868304 0.000000 
-0.180633 -0.453537 0.000000 
-0.702895 0.037982 0.000000 
-0.287229 0.737311 0.000000 
-0.685384 -0.761531 0.000000 
-0.957100 0.946027 0.000000 
-0.820030 -0.429901 0.000000 
0.474522 -0.002907 0.000000 
0.699407 0.664372 0.000000 
0.109248 -0.858873 0.000000 
0.441768 -0.163422 0.000000 
-0.039645 0.336449 0.000000 
0.417537 -0.960988 0.000000 
0.033296 -0.460479 0.000000 
-0.338794 -0.193205 0.000000 
-0.374519 0.379758 0.000000 
-0.713312 0.999188 0.000000 
0.609100 0.888047 0.000000 
-0.381900 -0.998014 0.000000 
-0.756418 -0.455622 0.000000 
0.513962 -0.667108 0.000000 
0.218274 0.057131 0.000000 
-0.423588 0.023028 0.000000 
-0.384386 -0.362245 0.000000 
-0.766286 0.152375 0.000000 
0.484677 -0.112840 0.000000 
0.139443 0.525285 0.000000 
-0.556234 0.407716 0.000000 
-0.823577 -0.818780 0.000000 
0.550868 -0.829576 0.000000 
-0.386873 0.273524 0.000000 
-0.771260 0.773913 0.000000 
0.467428 0.467385 0.000000 
0.105264 -0.933989 0.000000 
-0.621631 0.884112 0.000000 
-0.937896 -0.412308 0.000000 
0.385608 -0.491503 0.000000 
0.141715 0.317725 0.000000 
-0.474677 0.317821 0.000000 
CELL_DATA 175 
SCALARS MASS float 
LOOKUP_TABLE default 
0.781831 
0.864274 
0.946717 
0.864274 
0.881307 
0.921110 
0.858535 
0.921110 
0.881307 
0.887046 
0.910001 
0.869829 
0.915556 
0.869829 
0.910001 
0.887046 
0.892784 
0.915740 
0.892784 
0.927218 
0.892784 
0.927218 
0.892784 
0.915740 
0.892784 
0.781831 
0.864274 
0.946717 
0.864274 
0.881307 
0.921110 
0.858535 
0.921110 
0.881307 
0.887046 
0.910001 
0.869829 
0.915556 
0.869829 
0.910001 
0.887046 
0.892784 
0.915740 
0.892784 
0.927218 
0.892784 
0.927218 
0.892784 
0.915740 
0.892784 
0.781831 
0.864274 
0.946717 
0.864274 
0.881307 
0.921110 
0.858535 
0.921110 
0.881307 
0.887046 
0.910001 
0.869829 
0.915556 
0.869829 
0.910001 
0.887046 
0.892784 
0.915740 
0.892784 
0.927218 
0.892784 
0.927218 
0.892784 
0.915740 
0.892784 
0.781831 
0.864274 
0.946717 
0.864274 
0.881307 
0.921110 
0.858535 
0.921110 
0.881307 
0.887046 
0.910001 
0.869829 
0.915556 
0.869829 
0.910001 
0.887046 
0.892784 
0.915740 
0.892784 
0.927218 
0.892784 
0.927218 
0.892784 
0.915740 
0.892784 
0.781831 
0.864274 
0.946717 
0.864274 
0.881307 
0.921110 
0.858535 
0.921110 
0.881307 
0.887046 
0.910001 
0.869829 
0.915556 
0.869829 
0.910001 
0.887046 
0.892784 
0.915740 
0.892784 
0.927218 
0.892784 
0.927218 
0.892784 
0.915740 
0.892784 
0.781831 
0.864274 
0.946717 
0.864274 
0.881307 
0.921110 
0.858535 
0.921110 
0.881307 
0.887046 
0.910001 
0.869829 
0.915556 
0.869829 
0.910001 
0.887046 
0.892784 
0.915740 
0.892784 
0.927218 
0.892784 
0.927218 
0.892784 
0.915740 
0.892784 
0.781831 
0.864274 
0.946717 
0.864274 
0.881307 
0.921110 
0.858535 
0.921110 
0.881307 
0.887046 
0.910001 
0.869829 
0.915556 
0.869829 
0.910001 
0.887046 
0.892784 
0.915740 
0.892784 
0.927218 
0.892784 
0.927218 
0.892784 
0.915740 
0.892784 
SCALARS MASS float 
LOOKUP_TABLE default 
0.781831 
0.864274 
0.946717 
0.864274 
0.881307 
0.921110 
0.858535 
0.921110 
0.881307 
0.887046 
0.910001 
0.869829 
0.915556 
0.869829 
0.910001 
0.887046 
0.892784 
0.915740 
0.892784 
0.927218 
0.892784 
0.927218 
0.892784 
0.915740 
0.892784 
0.781831 
0.864274 
0.946717 
0.864274 
0.881307 
0.921110 
0.858535 
0.921110 
0.881307 
0.887046 
0.910001 
0.869829 
0.915556 
0.869829 
0.910001 
0.887046 
0.892784 
0.915740 
0.892784 
0.927218 
0.892784 
0.927218 
0.892784 
0.915740 
0.892784 
0.781831 
0.864274 
0.946717 
0.864274 
0.881307 
0.921110 
0.858535 
0.921110 
0.881307 
0.887046 
0.910001 
0.869829 
0.915556 
0.869829 
0.910001 
0.887046 
0.892784 
0.915740 
0.892784 
0.927218 
0.892784 
0.927218 
0.892784 
0.915740 
0.892784 
0.781831 
0.864274 
0.946717 
0.864274 
0.881307 
0.921110 
0.858535 
0.921110 
0.881307 
0.887046 
0.910001 
0.869829 
0.915556 
0.869829 
0.910001 
0.887046 
0.892784 
0.915740 
0.892784 
0.927218 
0.892784 
0.927218 
0.892784 
0.915740 
0.892784 
0.781831 
0.864274 
0.946717 
0.864274 
0.881307 
0.921110 
0.858535 
0.921110 
0.881307 
0.887046 
0.910001 
0.869829 
0.915556 
0.869829 
0.910001 
0.887046 
0.892784 
0.915740 
0.892784 
0.927218 
0.892784 
0.927218 
0.892784 
0.915740 
0.892784 
0.781831 
0.864274 
0.946717 
0.864274 
0.881307 
0.921110 
0.858535 
0.921110 
0.881307 
0.887046 
0.910001 
0.869829 
0.915556 
0.869829 
0.910001 
0.887046 
0.892784 
0.915740 
0.892784 
0.927218 
0.892784 
0.927218 
0.892784 
0.915740 
0.892784 
0.781831 
0.864274 
0.946717 
0.864274 
0.881307 
0.921110 
0.858535 
0.921110 
0.881307 
0.887046 
0.910001 
0.869829 
0.915556 
0.869829 
0.910001 
0.887046 
0.892784 
0.915740 
0.892784 
0.927218 
0.892784 
0.927218 
0.892784 
0.915740 
0.892784 
SCALARS DENSITY float 
LOOKUP_TABLE default 
200.000000 
200.000000 
200.000000 
200.000000 
200.000000 
200.000000 
200.000000 
200.000000 
200.000000 
200.000000 
200.000000 
200.000000 
200.000000 
200.000000 
200.000000 
200.000000 
200.000000 
200.000000 
200.000000 
200.000000 
200.000000 
200.000000 
200.000000 
200.000000 
200.000000 
200.000000 
200.000000 
200.000000 
200.000000 
200.000000 
200.000000 
200.000000 
200.000000 
200.000000 
200.000000 
200.000000 
200.000000 
200.000000 
200.000000 
200.000000 
200.000000 
200.000000 
200.000000 
200.000000 
200.000000 
200.000000 
200.000000 
200.000000 
200.000000 
200.000000 
200.000000 
200.000000 
200.000000 
200.000000 
200.000000 
200.000000 
200.000000 
200.000000 
200.000000 
200.000000 
200.000000 
200.000000 
200.000000 
200.000000 
200.000000 
200.000000 
200.000000 
200.000000 
200.000000 
200.000000 
200.000000 
200.000000 
200.000000 
200.000000 
200.000000 
200.000000 
200.000000 
200.000000 
200.000000 
200.000000 
200.000000 
200.000000 
200.000000 
200.000000 
200.000000 
200.000000 
200.000000 
200.000000 
200.000000 
200.000000 
200.000000 
200.000000 
200.000000 
200.000000 
200.000000 
200.000000 
200.000000 
200.000000 
200.000000 
200.000000 
200.000000 
200.000000 
200.000000 
200.000000 
200.000000 
200.000000 
200.000000 
200.000000 
200.000000 
200.000000 
200.000000 
200.000000 
200.000000 
200.000000 
200.000000 
200.000000 
200.000000 
200.000000 
200.000000 
200.000000 
200.000000 
200.000000 
200.000000 
200.000000 
200.000000 
200.000000 
200.000000 
200.000000 
200.000000 
200.000000 
200.000000 
200.000000 
200.000000 
200.000000 
200.000000 
200.000000 
200.000000 
200.000000 
200.000000 
200.000000 
200.000000 
200.000000 
200.000000 
200.000000 
200.000000 
200.000000 
200.000000 
200.000000 
200.000000 
200.000000 
200.000000 
200.000000 
200.000000 
200.000000 
200.000000 
200.000000 
200.000000 
200.000000 
200.000000 
200.000000 
200.000000 
200.000000 
200.000000 
200.000000 
200.000000 
200.000000 
200.000000 
200.000000 
200.000000 
200.000000 
200.000000 
200.000000 
200.000000 
200.000000 
200.000000 
SCALARS ELEM_i float 
LOOKUP_TABLE default 
170 
198 
171 
171 
198 
198 
198 
171 
171 
225 
198 
199 
199 
199 
172 
172 
226 
226 
226 
199 
200 
199 
200 
173 
173 
170 
197 
197 
197 
224 
197 
224 
197 
198 
223 
224 
224 
224 
225 
225 
225 
250 
250 
251 
251 
251 
252 
252 
225 
226 
169 
196 
196 
196 
195 
196 
196 
196 
223 
195 
195 
222 
222 
222 
223 
223 
194 
221 
221 
222 
222 
222 
249 
250 
250 
169 
169 
169 
169 
141 
168 
168 
168 
195 
140 
141 
167 
168 
167 
195 
194 
140 
140 
140 
167 
167 
167 
194 
194 
194 
169 
142 
142 
142 
115 
142 
142 
142 
141 
115 
115 
114 
114 
114 
141 
141 
88 
88 
87 
114 
114 
114 
113 
113 
140 
170 
143 
143 
143 
144 
143 
116 
143 
116 
117 
117 
117 
116 
116 
116 
115 
118 
117 
90 
90 
89 
89 
89 
88 
88 
170 
171 
171 
144 
171 
171 
144 
144 
144 
172 
172 
145 
145 
145 
144 
117 
173 
173 
146 
145 
146 
145 
118 
118 
118 
VECTORS VELOCITY float 
-0.000000 -5.909544 0.000000 
-0.000000 -5.909544 0.000000 
-0.000000 -5.909544 0.000000 
-0.000000 -5.909544 0.000000 
0.000000 -5.909544 0.000000 
-0.000000 -5.909544 0.000000 
-0.000000 -5.909544 0.000000 
-0.000000 -5.909544 0.000000 
0.000000 -5.909544 0.000000 
-0.000000 -5.909544 0.000000 
-0.000000 -5.909544 0.000000 
-0.000000 -5.909544 0.000000 
0.000000 -5.909544 0.000000 
-0.000000 -5.909544 0.000000 
-0.000000 -5.909544 0.000000 
-0.000000 -5.909544 0.000000 
-0.000000 -5.909544 0.000000 
-0.000000 -5.909544 0.000000 
-0.000000 -5.909544 0.000000 
-0.000000 -5.909544 0.000000 
0.000000 -5.909544 0.000000 
-0.000000 -5.909544 0.000000 
0.000000 -5.909544 0.000000 
0.000000 -5.909544 0.000000 
0.000000 -5.909544 0.000000 
-0.000000 -5.909544 0.000000 
0.000000 -5.909544 0.000000 
0.000000 -5.909544 0.000000 
0.000000 -5.909544 0.000000 
0.000000 -5.909544 0.000000 
0.000000 -5.909544 0.000000 
0.000000 -5.909544 0.000000 
0.000000 -5.909544 0.000000 
0.000000 -5.909544 0.000000 
-0.000000 -5.909544 0.000000 
0.000000 -5.909544 0.000000 
0.000000 -5.909544 0.000000 
0.000000 -5.909544 0.000000 
0.000000 -5.909544 0.000000 
0.000000 -5.909544 0.000000 
0.000000 -5.909544 0.000000 
0.000000 -5.909544 0.000000 
-0.000000 -5.909544 0.000000 
-0.000000 -5.909544 0.000000 
-0.000000 -5.909544 0.000000 
-0.000000 -5.909544 0.000000 
-0.000000 -5.909544 0.000000 
-0.000000 -5.909544 0.000000 
0.000000 -5.909544 0.000000 
0.000000 -5.909544 0.000000 
-0.000000 -5.909544 0.000000 
-0.000000 -5.909544 0.000000 
-0.000000 -5.909544 0.000000 
-0.000000 -5.909544 0.000000 
0.000000 -5.909544 0.000000 
-0.000000 -5.909544 0.000000 
-0.000000 -5.909544 0.000000 
-0.000000 -5.909544 0.000000 
0.000000 -5.909544 0.000000 
0.000000 -5.909544 0.000000 
0.000000 -5.909544 0.000000 
0.000000 -5.909544 0.000000 
-0.000000 -5.909544 0.000000 
-0.000000 -5.909544 0.000000 
0.000000 -5.909544 0.000000 
0.000000 -5.909544 0.000000 
-0.000000 -5.909544 0.000000 
0.000000 -5.909544 0.000000 
-0.000000 -5.909544 0.000000 
-0.000000 -5.909544 0.000000 
-0.000000 -5.909544 0.000000 
-0.000000 -5.909544 0.000000 
-0.000000 -5.909544 0.000000 
0.000000 -5.909544 0.000000 
-0.000000 -5.909544 0.000000 
-0.000000 -5.909544 0.000000 
-0.000000 -5.909544 0.000000 
-0.000000 -5.909544 0.000000 
-0.000000 -5.909544 0.000000 
0.000000 -5.909544 0.000000 
0.000000 -5.909544 0.000000 
-0.000000 -5.909544 0.000000 
-0.000000 -5.909544 0.000000 
-0.000000 -5.909544 0.000000 
-0.000000 -5.909544 0.000000 
-0.000000 -5.909544 0.000000 
-0.000000 -5.909544 0.000000 
-0.000000 -5.909544 0.000000 
-0.000000 -5.909544 0.000000 
-0.000000 -5.909544 0.000000 
0.000000 -5.909544 0.000000 
-0.000000 -5.909544 0.000000 
-0.000000 -5.909544 0.000000 
-0.000000 -5.909544 0.000000 
-0.000000 -5.909544 0.000000 
-0.000000 -5.909544 0.000000 
0.000000 -5.909544 0.000000 
-0.000000 -5.909544 0.000000 
0.000000 -5.909544 0.000000 
-0.000000 -5.909544 0.000000 
0.000000 -5.909544 0.000000 
0.000000 -5.909544 0.000000 
0.000000 -5.909544 0.000000 
-0.000000 -5.909544 0.000000 
0.000000 -5.909544 0.000000 
0.000000 -5.909544 0.000000 
0.000000 -5.909544 0.000000 
-0.000000 -5.909544 0.000000 
-0.000000 -5.909544 0.000000 
-0.000000 -5.909544 0.000000 
0.000000 -5.909544 0.000000 
-0.000000 -5.909544 0.000000 
-0.000000 -5.909544 0.000000 
-0.000000 -5.909544 0.000000 
-0.000000 -5.909544 0.000000 
0.000000 -5.909544 0.000000 
-0.000000 -5.909544 0.000000 
-0.000000 -5.909544 0.000000 
-0.000000 -5.909544 0.000000 
0.000000 -5.909544 0.000000 
0.000000 -5.909544 0.000000 
0.000000 -5.909544 0.000000 
0.000000 -5.909544 0.000000 
0.000000 -5.909544 0.000000 
0.000000 -5.909544 0.000000 
-0.000000 -5.909544 0.000000 
0.000000 -5.909544 0.000000 
0.000000 -5.909544 0.000000 
0.000000 -5.909544 0.000000 
-0.000000 -5.909544 0.000000 
-0.000000 -5.909544 0.000000 
0.000000 -5.909544 0.000000 
0.000000 -5.909544 0.000000 
0.000000 -5.909544 0.000000 
0.000000 -5.909544 0.000000 
-0.000000 -5.909544 0.000000 
0.000000 -5.909544 0.000000 
0.000000 -5.909544 0.000000 
0.000000 -5.909544 0.000000 
0.000000 -5.909544 0.000000 
0.000000 -5.909544 0.000000 
0.000000 -5.909544 0.000000 
0.000000 -5.909544 0.000000 
-0.000000 -5.909544 0.000000 
-0.000000 -5.909544 0.000000 
-0.000000 -5.909544 0.000000 
0.000000 -5.909544 0.000000 
0.000000 -5.909544 0.000000 
0.000000 -5.909544 0.000000 
0.000000 -5.909544 0.000000 
0.000000 -5.909544 0.000000 
0.000000 -5.909544 0.000000 
0.000000 -5.909544 0.000000 
0.000000 -5.909544 0.000000 
0.000000 -5.909544 0.000000 
0.000000 -5.909544 0.000000 
0.000000 -5.909544 0.000000 
0.000000 -5.909544 0.000000 
-0.000000 -5.909544 0.000000 
0.000000 -5.909544 0.000000 
0.000000 -5.909544 0.000000 
0.000000 -5.909544 0.000000 
-0.000000 -5.909544 0.000000 
-0.000000 -5.909544 0.000000 
0.000000 -5.909544 0.000000 
0.000000 -5.909544 0.000000 
0.000000 -5.909544 0.000000 
0.000000 -5.909544 0.000000 
0.000000 -5.909544 0.000000 
0.000000 -5.909544 0.000000 
0.000000 -5.909544 0.000000 
-0.000000 -5.909544 0.000000 
-0.000000 -5.909544 0.000000 
0.000000 -5.909544 0.000000 
0.000000 -5.909544 0.000000 
TENSORS STRESS float 
0.000000 -0.000000 0.000000 
0.000000 -0.000000 0.000000 
0.000000 0.000000 0.000000 

0.000000 -0.000000 0.000000 
0.000000 -0.000000 0.000000 
0.000000 0.000000 0.000000 

0.000000 -0.000000 0.000000 
0.000000 0.000000 0.000000 
0.000000 0.000000 0.000000 

0.000000 0.000000 0.000000 
0.000000 0.000000 0.000000 
0.000000 0.000000 0.000000 

0.000000 0.000000 0.000000 
0.000000 0.000000 0.000000 
0.000000 0.000000 0.000000 

0.000000 0.000000 0.000000 
0.000000 0.000000 0.000000 
0.000000 0.000000 0.000000 

-0.000000 -0.000000 0.000000 
0.000000 -0.000000 0.000000 
0.000000 0.000000 0.000000 

-0.000000 0.000000 0.000000 
0.000000 -0.000000 0.000000 
0.000000 0.000000 0.000000 

0.000000 0.000000 0.000000 
0.000000 0.000000 0.000000 
0.000000 0.000000 0.000000 

-0.000000 0.000000 0.000000 
0.000000 -0.000000 0.000000 
0.000000 0.000000 0.000000 

-0.000000 -0.000000 0.000000 
0.000000 -0.000000 0.000000 