# vtk DataFile Version 3.0 
vtk output 
ASCII 
DATASET UNSTRUCTURED_GRID 
POINTS 175 float 
-0.026114 -2.590643 0.000000 
-0.106922 -2.522746 0.000000 
-0.054678 -2.531187 0.000000 
-0.028683 -2.485335 0.000000 
-0.186544 -2.457871 0.000000 
-0.137007 -2.460854 0.000000 
-0.114298 -2.407278 0.000000 
-0.058178 -2.423296 0.000000 
-0.029371 -2.382966 0.000000 
-0.265356 -2.393775 0.000000 
-0.217083 -2.395251 0.000000 
-0.196374 -2.338094 0.000000 
-0.142973 -2.347127 0.000000 
-0.116440 -2.299844 0.000000 
-0.058924 -2.319754 0.000000 
-0.029544 -2.281493 0.000000 
-0.344232 -2.329598 0.000000 
-0.296664 -2.330279 0.000000 
-0.277701 -2.270713 0.000000 
-0.225640 -2.277195 0.000000 
-0.201371 -2.225078 0.000000 
-0.145527 -2.238789 0.000000 
-0.117660 -2.194447 0.000000 
-0.059203 -2.217354 0.000000 
-0.029672 -2.180196 0.000000 
-0.059511 -2.630532 0.000000 
-0.164522 -2.650753 0.000000 
-0.124544 -2.615853 0.000000 
-0.143383 -2.567515 0.000000 
-0.265764 -2.671031 0.000000 
-0.231563 -2.635816 0.000000 
-0.258744 -2.584386 0.000000 
-0.210556 -2.551442 0.000000 
-0.223642 -2.503697 0.000000 
-0.367009 -2.688476 0.000000 
-0.334381 -2.653641 0.000000 
-0.365138 -2.601780 0.000000 
-0.323775 -2.567393 0.000000 
-0.343555 -2.517114 0.000000 
-0.291566 -2.485935 0.000000 
-0.302723 -2.439159 0.000000 
-0.469817 -2.706537 0.000000 
-0.437305 -2.671746 0.000000 
-0.471011 -2.620294 0.000000 
-0.431749 -2.585124 0.000000 
-0.456628 -2.533947 0.000000 
-0.409781 -2.500441 0.000000 
-0.426734 -2.451413 0.000000 
-0.371555 -2.421401 0.000000 
-0.381783 -2.375334 0.000000 
-0.048378 -2.680459 0.000000 
-0.099052 -2.772501 0.000000 
-0.102470 -2.720716 0.000000 
-0.153121 -2.706004 0.000000 
-0.146810 -2.860800 0.000000 
-0.154512 -2.813978 0.000000 
-0.213719 -2.804278 0.000000 
-0.208690 -2.747864 0.000000 
-0.254539 -2.728025 0.000000 
-0.199536 -2.923488 0.000000 
-0.206412 -2.895493 0.000000 
-0.271352 -2.888422 0.000000 
-0.270642 -2.841783 0.000000 
-0.324548 -2.823664 0.000000 
-0.313071 -2.766453 0.000000 
-0.356659 -2.744667 0.000000 
-0.255765 -2.958911 0.000000 
-0.263997 -2.942884 0.000000 
-0.334901 -2.939101 0.000000 
-0.334654 -2.912976 0.000000 
-0.395029 -2.902695 0.000000 
-0.385549 -2.859202 0.000000 
-0.434385 -2.842141 0.000000 
-0.418194 -2.783108 0.000000 
-0.460745 -2.762251 0.000000 
-0.000000 -2.702349 0.000000 
0.045124 -2.796471 0.000000 
-0.000000 -2.767562 0.000000 
-0.045124 -2.796471 0.000000 
0.091316 -2.882047 0.000000 
0.045595 -2.862475 0.000000 
-0.000000 -2.892712 0.000000 
-0.045595 -2.862475 0.000000 
-0.091316 -2.882047 0.000000 
0.142996 -2.935363 0.000000 
0.094940 -2.925148 0.000000 
0.048774 -2.943665 0.000000 
-0.000000 -2.930628 0.000000 
-0.048774 -2.943665 0.000000 
-0.094940 -2.925148 0.000000 
-0.142996 -2.935363 0.000000 
0.196058 -2.966189 0.000000 
0.147368 -2.960320 0.000000 
0.100699 -2.971750 0.000000 
0.050039 -2.964890 0.000000 
-0.000000 -2.973544 0.000000 
-0.050039 -2.964890 0.000000 
-0.100699 -2.971750 0.000000 
-0.147368 -2.960320 0.000000 
-0.196058 -2.966189 0.000000 
0.048378 -2.680459 0.000000 
0.153121 -2.706004 0.000000 
0.102470 -2.720716 0.000000 
0.099052 -2.772501 0.000000 
0.254539 -2.728025 0.000000 
0.208690 -2.747864 0.000000 
0.213719 -2.804278 0.000000 
0.154512 -2.813978 0.000000 
0.146810 -2.860800 0.000000 
0.356659 -2.744667 0.000000 
0.313071 -2.766453 0.000000 
0.324548 -2.823664 0.000000 
0.270642 -2.841783 0.000000 
0.271352 -2.888422 0.000000 
0.206412 -2.895493 0.000000 
0.199536 -2.923488 0.000000 
0.460745 -2.762251 0.000000 
0.418194 -2.783108 0.000000 
0.434385 -2.842141 0.000000 
0.385549 -2.859202 0.000000 
0.395029 -2.902695 0.000000 
0.334654 -2.912976 0.000000 
0.334901 -2.939101 0.000000 
0.263997 -2.942884 0.000000 
0.255765 -2.958911 0.000000 
0.059511 -2.630532 0.000000 
0.143383 -2.567515 0.000000 
0.124544 -2.615853 0.000000 
0.164522 -2.650753 0.000000 
0.223642 -2.503697 0.000000 
0.210556 -2.551442 0.000000 
0.258744 -2.584386 0.000000 
0.231563 -2.635816 0.000000 
0.265764 -2.671031 0.000000 
0.302723 -2.439159 0.000000 
0.291566 -2.485935 0.000000 
0.343555 -2.517114 0.000000 
0.323775 -2.567393 0.000000 
0.365138 -2.601780 0.000000 
0.334381 -2.653641 0.000000 
0.367009 -2.688476 0.000000 
0.381783 -2.375334 0.000000 
0.371555 -2.421401 0.000000 
0.426734 -2.451413 0.000000 
0.409781 -2.500441 0.000000 
0.456628 -2.533947 0.000000 
0.431749 -2.585124 0.000000 
0.471011 -2.620294 0.000000 
0.437305 -2.671746 0.000000 
0.469817 -2.706537 0.000000 
0.026114 -2.590643 0.000000 
0.028683 -2.485335 0.000000 
0.054678 -2.531187 0.000000 
0.106922 -2.522746 0.000000 
0.029371 -2.382966 0.000000 
0.058178 -2.423296 0.000000 
0.114298 -2.407278 0.000000 
0.137007 -2.460854 0.000000 
0.186544 -2.457871 0.000000 
0.029544 -2.281493 0.000000 
0.058924 -2.319754 0.000000 
0.116440 -2.299844 0.000000 
0.142973 -2.347127 0.000000 
0.196374 -2.338094 0.000000 
0.217083 -2.395251 0.000000 
0.265356 -2.393775 0.000000 
0.029672 -2.180196 0.000000 
0.059203 -2.217354 0.000000 
0.117660 -2.194447 0.000000 
0.145527 -2.238789 0.000000 
0.201371 -2.225078 0.000000 
0.225640 -2.277195 0.000000 
0.277701 -2.270713 0.000000 
0.296664 -2.330279 0.000000 
0.344232 -2.329598 0.000000 
CELLS 175 350 
1 0 
1 1 
1 2 
1 3 
1 4 
1 5 
1 6 
1 7 
1 8 
1 9 
1 10 
1 11 
1 12 
1 13 
1 14 
1 15 
1 16 
1 17 
1 18 
1 19 
1 20 
1 21 
1 22 
1 23 
1 24 
1 25 
1 26 
1 27 
1 28 
1 29 
1 30 
1 31 
1 32 
1 33 
1 34 
1 35 
1 36 
1 37 
1 38 
1 39 
1 40 
1 41 
1 42 
1 43 
1 44 
1 45 
1 46 
1 47 
1 48 
1 49 
1 50 
1 51 
1 52 
1 53 
1 54 
1 55 
1 56 
1 57 
1 58 
1 59 
1 60 
1 61 
1 62 
1 63 
1 64 
1 65 
1 66 
1 67 
1 68 
1 69 
1 70 
1 71 
1 72 
1 73 
1 74 
1 75 
1 76 
1 77 
1 78 
1 79 
1 80 
1 81 
1 82 
1 83 
1 84 
1 85 
1 86 
1 87 
1 88 
1 89 
1 90 
1 91 
1 92 
1 93 
1 94 
1 95 
1 96 
1 97 
1 98 
1 99 
1 100 
1 101 
1 102 
1 103 
1 104 
1 105 
1 106 
1 107 
1 108 
1 109 
1 110 
1 111 
1 112 
1 113 
1 114 
1 115 
1 116 
1 117 
1 118 
1 119 
1 120 
1 121 
1 122 
1 123 
1 124 
1 125 
1 126 
1 127 
1 128 
1 129 
1 130 
1 131 
1 132 
1 133 
1 134 
1 135 
1 136 
1 137 
1 138 
1 139 
1 140 
1 141 
1 142 
1 143 
1 144 
1 145 
1 146 
1 147 
1 148 
1 149 
1 150 
1 151 
1 152 
1 153 
1 154 
1 155 
1 156 
1 157 
1 158 
1 159 
1 160 
1 161 
1 162 
1 163 
1 164 
1 165 
1 166 
1 167 
1 168 
1 169 
1 170 
1 171 
1 172 
1 173 
1 174 
CELL_TYPES 175 
1 
1 
1 
1 
1 
1 
1 
1 
1 
1 
1 
1 
1 
1 
1 
1 
1 
1 
1 
1 
1 
1 
1 
1 
1 
1 
1 
1 
1 
1 
1 
1 
1 
1 
1 
1 
1 
1 
1 
1 
1 
1 
1 
1 
1 
1 
1 
1 
1 
1 
1 
1 
1 
1 
1 
1 
1 
1 
1 
1 
1 
1 
1 
1 
1 
1 
1 
1 
1 
1 
1 
1 
1 
1 
1 
1 
1 
1 
1 
1 
1 
1 
1 
1 
1 
1 
1 
1 
1 
1 
1 
1 
1 
1 
1 
1 
1 
1 
1 
1 
1 
1 
1 
1 
1 
1 
1 
1 
1 
1 
1 
1 
1 
1 
1 
1 
1 
1 
1 
1 
1 
1 
1 
1 
1 
1 
1 
1 
1 
1 
1 
1 
1 
1 
1 
1 
1 
1 
1 
1 
1 
1 
1 
1 
1 
1 
1 
1 
1 
1 
1 
1 
1 
1 
1 
1 
1 
1 
1 
1 
1 
1 
1 
1 
1 
1 
1 
1 
1 
1 
1 
1 
1 
1 
1 
POINT_DATA 175 
VECTORS X_GC float 
-0.026114 -2.590643 0.000000 
-0.106922 -2.522746 0.000000 
-0.054678 -2.531187 0.000000 
-0.028683 -2.485335 0.000000 
-0.186544 -2.457871 0.000000 
-0.137007 -2.460854 0.000000 
-0.114298 -2.407278 0.000000 
-0.058178 -2.423296 0.000000 
-0.029371 -2.382966 0.000000 
-0.265356 -2.393775 0.000000 
-0.217083 -2.395251 0.000000 
-0.196374 -2.338094 0.000000 
-0.142973 -2.347127 0.000000 
-0.116440 -2.299844 0.000000 
-0.058924 -2.319754 0.000000 
-0.029544 -2.281493 0.000000 
-0.344232 -2.329598 0.000000 
-0.296664 -2.330279 0.000000 
-0.277701 -2.270713 0.000000 
-0.225640 -2.277195 0.000000 
-0.201371 -2.225078 0.000000 
-0.145527 -2.238789 0.000000 
-0.117660 -2.194447 0.000000 
-0.059203 -2.217354 0.000000 
-0.029672 -2.180196 0.000000 
-0.059511 -2.630532 0.000000 
-0.164522 -2.650753 0.000000 
-0.124544 -2.615853 0.000000 
-0.143383 -2.567515 0.000000 
-0.265764 -2.671031 0.000000 
-0.231563 -2.635816 0.000000 
-0.258744 -2.584386 0.000000 
-0.210556 -2.551442 0.000000 
-0.223642 -2.503697 0.000000 
-0.367009 -2.688476 0.000000 
-0.334381 -2.653641 0.000000 
-0.365138 -2.601780 0.000000 
-0.323775 -2.567393 0.000000 
-0.343555 -2.517114 0.000000 
-0.291566 -2.485935 0.000000 
-0.302723 -2.439159 0.000000 
-0.469817 -2.706537 0.000000 
-0.437305 -2.671746 0.000000 
-0.471011 -2.620294 0.000000 
-0.431749 -2.585124 0.000000 
-0.456628 -2.533947 0.000000 
-0.409781 -2.500441 0.000000 
-0.426734 -2.451413 0.000000 
-0.371555 -2.421401 0.000000 
-0.381783 -2.375334 0.000000 
-0.048378 -2.680459 0.000000 
-0.099052 -2.772501 0.000000 
-0.102470 -2.720716 0.000000 
-0.153121 -2.706004 0.000000 
-0.146810 -2.860800 0.000000 
-0.154512 -2.813978 0.000000 
-0.213719 -2.804278 0.000000 
-0.208690 -2.747864 0.000000 
-0.254539 -2.728025 0.000000 
-0.199536 -2.923488 0.000000 
-0.206412 -2.895493 0.000000 
-0.271352 -2.888422 0.000000 
-0.270642 -2.841783 0.000000 
-0.324548 -2.823664 0.000000 
-0.313071 -2.766453 0.000000 
-0.356659 -2.744667 0.000000 
-0.255765 -2.958911 0.000000 
-0.263997 -2.942884 0.000000 
-0.334901 -2.939101 0.000000 
-0.334654 -2.912976 0.000000 
-0.395029 -2.902695 0.000000 
-0.385549 -2.859202 0.000000 
-0.434385 -2.842141 0.000000 
-0.418194 -2.783108 0.000000 
-0.460745 -2.762251 0.000000 
-0.000000 -2.702349 0.000000 
0.045124 -2.796471 0.000000 
-0.000000 -2.767562 0.000000 
-0.045124 -2.796471 0.000000 
0.091316 -2.882047 0.000000 
0.045595 -2.862475 0.000000 
-0.000000 -2.892712 0.000000 
-0.045595 -2.862475 0.000000 
-0.091316 -2.882047 0.000000 
0.142996 -2.935363 0.000000 
0.094940 -2.925148 0.000000 
0.048774 -2.943665 0.000000 
-0.000000 -2.930628 0.000000 
-0.048774 -2.943665 0.000000 
-0.094940 -2.925148 0.000000 
-0.142996 -2.935363 0.000000 
0.196058 -2.966189 0.000000 
0.147368 -2.960320 0.000000 
0.100699 -2.971750 0.000000 
0.050039 -2.964890 0.000000 
-0.000000 -2.973544 0.000000 
-0.050039 -2.964890 0.000000 
-0.100699 -2.971750 0.000000 
-0.147368 -2.960320 0.000000 
-0.196058 -2.966189 0.000000 
0.048378 -2.680459 0.000000 
0.153121 -2.706004 0.000000 
0.102470 -2.720716 0.000000 
0.099052 -2.772501 0.000000 
0.254539 -2.728025 0.000000 
0.208690 -2.747864 0.000000 
0.213719 -2.804278 0.000000 
0.154512 -2.813978 0.000000 
0.146810 -2.860800 0.000000 
0.356659 -2.744667 0.000000 
0.313071 -2.766453 0.000000 
0.324548 -2.823664 0.000000 
0.270642 -2.841783 0.000000 
0.271352 -2.888422 0.000000 
0.206412 -2.895493 0.000000 
0.199536 -2.923488 0.000000 
0.460745 -2.762251 0.000000 
0.418194 -2.783108 0.000000 
0.434385 -2.842141 0.000000 
0.385549 -2.859202 0.000000 
0.395029 -2.902695 0.000000 
0.334654 -2.912976 0.000000 
0.334901 -2.939101 0.000000 
0.263997 -2.942884 0.000000 
0.255765 -2.958911 0.000000 
0.059511 -2.630532 0.000000 
0.143383 -2.567515 0.000000 
0.124544 -2.615853 0.000000 
0.164522 -2.650753 0.000000 
0.223642 -2.503697 0.000000 
0.210556 -2.551442 0.000000 
0.258744 -2.584386 0.000000 
0.231563 -2.635816 0.000000 
0.265764 -2.671031 0.000000 
0.302723 -2.439159 0.000000 
0.291566 -2.485935 0.000000 
0.343555 -2.517114 0.000000 
0.323775 -2.567393 0.000000 
0.365138 -2.601780 0.000000 
0.334381 -2.653641 0.000000 
0.367009 -2.688476 0.000000 
0.381783 -2.375334 0.000000 
0.371555 -2.421401 0.000000 
0.426734 -2.451413 0.000000 
0.409781 -2.500441 0.000000 
0.456628 -2.533947 0.000000 
0.431749 -2.585124 0.000000 
0.471011 -2.620294 0.000000 
0.437305 -2.671746 0.000000 
0.469817 -2.706537 0.000000 
0.026114 -2.590643 0.000000 
0.028683 -2.485335 0.000000 
0.054678 -2.531187 0.000000 
0.106922 -2.522746 0.000000 
0.029371 -2.382966 0.000000 
0.058178 -2.423296 0.000000 
0.114298 -2.407278 0.000000 
0.137007 -2.460854 0.000000 
0.186544 -2.457871 0.000000 
0.029544 -2.281493 0.000000 
0.058924 -2.319754 0.000000 
0.116440 -2.299844 0.000000 
0.142973 -2.347127 0.000000 
0.196374 -2.338094 0.000000 
0.217083 -2.395251 0.000000 
0.265356 -2.393775 0.000000 
0.029672 -2.180196 0.000000 
0.059203 -2.217354 0.000000 
0.117660 -2.194447 0.000000 
0.145527 -2.238789 0.000000 
0.201371 -2.225078 0.000000 
0.225640 -2.277195 0.000000 
0.277701 -2.270713 0.000000 
0.296664 -2.330279 0.000000 
0.344232 -2.329598 0.000000 
VECTORS X_EC float 
0.339479 -0.526323 0.000000 
-0.610019 0.557067 0.000000 
0.710817 0.671018 0.000000 
0.372876 0.052023 0.000000 
0.425070 -0.318737 0.000000 
-0.218905 -0.278473 0.000000 
-0.514121 0.998248 0.000000 
0.756317 -0.785507 0.000000 
0.381823 0.670042 0.000000 
-0.550368 0.815957 0.000000 
0.822083 0.835893 0.000000 
0.552861 0.064263 0.000000 
-0.141352 0.186213 0.000000 
-0.486276 -0.452101 0.000000 
0.766008 -0.183318 0.000000 
0.384070 -0.699849 0.000000 
0.475021 -0.050431 0.000000 
-0.143370 -0.041240 0.000000 
-0.389887 -0.845377 0.000000 
0.933322 -0.757869 0.000000 
0.617824 0.538556 0.000000 
-0.108145 0.723648 0.000000 
-0.470424 0.125029 0.000000 
0.769633 0.434274 0.000000 
0.385736 -0.067360 0.000000 
0.773649 0.012179 0.000000 
0.138782 0.285164 0.000000 
-0.380932 -0.185979 0.000000 
-0.136019 -0.838551 0.000000 
-0.545065 0.558913 0.000000 
-0.989681 0.083516 0.000000 
-0.636334 -0.610791 0.000000 
0.737231 0.944467 0.000000 
0.907351 0.299909 0.000000 
0.771122 0.794431 0.000000 
0.346957 0.324158 0.000000 
0.746794 -0.375971 0.000000 
0.209074 -0.840189 0.000000 
0.466214 0.481038 0.000000 
-0.209645 0.060117 0.000000 
-0.064598 -0.571349 0.000000 
0.107618 -0.961750 0.000000 
-0.315038 0.568572 0.000000 
0.123141 -0.126029 0.000000 
-0.387258 -0.600833 0.000000 
-0.063839 0.708278 0.000000 
-0.672841 0.255954 0.000000 
-0.452458 -0.405921 0.000000 
0.830212 -0.811086 0.000000 
0.963180 0.567003 0.000000 
0.628912 0.686195 0.000000 
-0.712320 -0.071237 0.000000 
-0.667895 -0.770338 0.000000 
-0.009425 -0.968949 0.000000 
-0.091467 -0.879204 0.000000 
0.008658 0.488703 0.000000 
0.778341 0.357756 0.000000 
0.712968 -0.403842 0.000000 
-0.690998 -0.671668 0.000000 
0.593963 -0.032916 0.000000 
0.683352 -0.410842 0.000000 
-0.472421 -0.506302 0.000000 
-0.481658 0.864066 0.000000 
0.219121 0.619469 0.000000 
0.069917 -0.152878 0.000000 
0.636563 -0.446990 0.000000 
-0.675061 0.445300 0.000000 
-0.568036 0.228940 0.000000 
0.353716 0.177861 0.000000 
0.350496 -0.174825 0.000000 
-0.864620 -0.313613 0.000000 
-0.987860 -0.900775 0.000000 
-0.352993 0.868909 0.000000 
-0.563477 0.071964 0.000000 
-0.010321 -0.209608 0.000000 
0.000000 0.981707 0.000000 
-0.586606 0.252355 0.000000 
0.000000 -0.137919 0.000000 
0.586606 0.252355 0.000000 
0.812898 -0.592370 0.000000 
-0.592732 -0.856590 0.000000 
0.000000 -0.448391 0.000000 
0.592732 -0.856590 0.000000 
-0.812898 -0.592370 0.000000 
0.141048 0.127397 0.000000 
0.765776 -0.010504 0.000000 
-0.634062 0.239477 0.000000 
0.000000 0.063477 0.000000 
0.634062 0.239477 0.000000 
-0.765776 -0.010504 0.000000 
-0.141048 0.127397 0.000000 
-0.548751 0.543548 0.000000 
0.084215 0.464322 0.000000 
0.690915 0.618626 0.000000 
-0.650509 0.526017 0.000000 
0.000000 0.642844 0.000000 
0.650509 0.526017 0.000000 
-0.690915 0.618626 0.000000 
-0.084215 0.464322 0.000000 
0.548751 0.543548 0.000000 
-0.628912 0.686195 0.000000 
0.009425 -0.968949 0.000000 
0.667895 -0.770338 0.000000 
0.712320 -0.071237 0.000000 
0.690998 -0.671668 0.000000 
-0.712968 -0.403842 0.000000 
-0.778341 0.357756 0.000000 
-0.008658 0.488703 0.000000 
0.091467 -0.879204 0.000000 
-0.636563 -0.446990 0.000000 
-0.069917 -0.152878 0.000000 
-0.219121 0.619469 0.000000 
0.481658 0.864066 0.000000 
0.472421 -0.506302 0.000000 
-0.683352 -0.410842 0.000000 
-0.593963 -0.032916 0.000000 
0.010321 -0.209608 0.000000 
0.563477 0.071964 0.000000 
0.352993 0.868909 0.000000 
0.987860 -0.900775 0.000000 
0.864620 -0.313613 0.000000 
-0.350496 -0.174825 0.000000 
-0.353716 0.177861 0.000000 
0.568036 0.228940 0.000000 
0.675061 0.445300 0.000000 
-0.773649 0.012179 0.000000 
0.136019 -0.838551 0.000000 
0.380932 -0.185979 0.000000 
-0.138782 0.285164 0.000000 
-0.907351 0.299909 0.000000 
-0.737231 0.944467 0.000000 
0.636334 -0.610791 0.000000 
0.989681 0.083516 0.000000 
0.545065 0.558913 0.000000 
0.064598 -0.571349 0.000000 
0.209645 0.060117 0.000000 
-0.466214 0.481038 0.000000 
-0.209074 -0.840189 0.000000 
-0.746794 -0.375971 0.000000 
-0.346957 0.324158 0.000000 
-0.771122 0.794432 0.000000 
-0.963180 0.567003 0.000000 
-0.830212 -0.811086 0.000000 
0.452458 -0.405921 0.000000 
0.672841 0.255954 0.000000 
0.063839 0.708278 0.000000 
0.387258 -0.600833 0.000000 
-0.123141 -0.126029 0.000000 
0.315038 0.568572 0.000000 
-0.107618 -0.961750 0.000000 
-0.339479 -0.526323 0.000000 
-0.372876 0.052023 0.000000 
-0.710817 0.671018 0.000000 
0.610019 0.557067 0.000000 
-0.381823 0.670042 0.000000 
-0.756317 -0.785507 0.000000 
0.514121 0.998248 0.000000 
0.218905 -0.278473 0.000000 
-0.425070 -0.318737 0.000000 
-0.384070 -0.699849 0.000000 
-0.766008 -0.183318 0.000000 
0.486276 -0.452101 0.000000 
0.141352 0.186213 0.000000 
-0.552861 0.064263 0.000000 
-0.822083 0.835893 0.000000 
0.550368 0.815957 0.000000 
-0.385736 -0.067360 0.000000 
-0.769633 0.434274 0.000000 
0.470424 0.125029 0.000000 
0.108145 0.723648 0.000000 
-0.617824 0.538556 0.000000 
-0.933322 -0.757869 0.000000 
0.389887 -0.845377 0.000000 
0.143370 -0.041240 0.000000 
-0.475021 -0.050431 0.000000 
CELL_DATA 175 
SCALARS MASS float 
LOOKUP_TABLE default 
0.781831 
0.864274 
0.946717 
0.864274 
0.881307 
0.921110 
0.858535 
0.921110 
0.881307 
0.887046 
0.910001 
0.869829 
0.915556 
0.869829 
0.910001 
0.887046 
0.892784 
0.915740 
0.892784 
0.927218 
0.892784 
0.927218 
0.892784 
0.915740 
0.892784 
0.781831 
0.864274 
0.946717 
0.864274 
0.881307 
0.921110 
0.858535 
0.921110 
0.881307 
0.887046 
0.910001 
0.869829 
0.915556 
0.869829 
0.910001 
0.887046 
0.892784 
0.915740 
0.892784 
0.927218 
0.892784 
0.927218 
0.892784 
0.915740 
0.892784 
0.781831 
0.864274 
0.946717 
0.864274 
0.881307 
0.921110 
0.858535 
0.921110 
0.881307 
0.887046 
0.910001 
0.869829 
0.915556 
0.869829 
0.910001 
0.887046 
0.892784 
0.915740 
0.892784 
0.927218 
0.892784 
0.927218 
0.892784 
0.915740 
0.892784 
0.781831 
0.864274 
0.946717 
0.864274 
0.881307 
0.921110 
0.858535 
0.921110 
0.881307 
0.887046 
0.910001 
0.869829 
0.915556 
0.869829 
0.910001 
0.887046 
0.892784 
0.915740 
0.892784 
0.927218 
0.892784 
0.927218 
0.892784 
0.915740 
0.892784 
0.781831 
0.864274 
0.946717 
0.864274 
0.881307 
0.921110 
0.858535 
0.921110 
0.881307 
0.887046 
0.910001 
0.869829 
0.915556 
0.869829 
0.910001 
0.887046 
0.892784 
0.915740 
0.892784 
0.927218 
0.892784 
0.927218 
0.892784 
0.915740 
0.892784 
0.781831 
0.864274 
0.946717 
0.864274 
0.881307 
0.921110 
0.858535 
0.921110 
0.881307 
0.887046 
0.910001 
0.869829 
0.915556 
0.869829 
0.910001 
0.887046 
0.892784 
0.915740 
0.892784 
0.927218 
0.892784 
0.927218 
0.892784 
0.915740 
0.892784 
0.781831 
0.864274 
0.946717 
0.864274 
0.881307 
0.921110 
0.858535 
0.921110 
0.881307 
0.887046 
0.910001 
0.869829 
0.915556 
0.869829 
0.910001 
0.887046 
0.892784 
0.915740 
0.892784 
0.927218 
0.892784 
0.927218 
0.892784 
0.915740 
0.892784 
SCALARS MASS float 
LOOKUP_TABLE default 
0.781831 
0.864274 
0.946717 
0.864274 
0.881307 
0.921110 
0.858535 
0.921110 
0.881307 
0.887046 
0.910001 
0.869829 
0.915556 
0.869829 
0.910001 
0.887046 
0.892784 
0.915740 
0.892784 
0.927218 
0.892784 
0.927218 
0.892784 
0.915740 
0.892784 
0.781831 
0.864274 
0.946717 
0.864274 
0.881307 
0.921110 
0.858535 
0.921110 
0.881307 
0.887046 
0.910001 
0.869829 
0.915556 
0.869829 
0.910001 
0.887046 
0.892784 
0.915740 
0.892784 
0.927218 
0.892784 
0.927218 
0.892784 
0.915740 
0.892784 
0.781831 
0.864274 
0.946717 
0.864274 
0.881307 
0.921110 
0.858535 
0.921110 
0.881307 
0.887046 
0.910001 
0.869829 
0.915556 
0.869829 
0.910001 
0.887046 
0.892784 
0.915740 
0.892784 
0.927218 
0.892784 
0.927218 
0.892784 
0.915740 
0.892784 
0.781831 
0.864274 
0.946717 
0.864274 
0.881307 
0.921110 
0.858535 
0.921110 
0.881307 
0.887046 
0.910001 
0.869829 
0.915556 
0.869829 
0.910001 
0.887046 
0.892784 
0.915740 
0.892784 
0.927218 
0.892784 
0.927218 
0.892784 
0.915740 
0.892784 
0.781831 
0.864274 
0.946717 
0.864274 
0.881307 
0.921110 
0.858535 
0.921110 
0.881307 
0.887046 
0.910001 
0.869829 
0.915556 
0.869829 
0.910001 
0.887046 
0.892784 
0.915740 
0.892784 
0.927218 
0.892784 
0.927218 
0.892784 
0.915740 
0.892784 
0.781831 
0.864274 
0.946717 
0.864274 
0.881307 
0.921110 
0.858535 
0.921110 
0.881307 
0.887046 
0.910001 
0.869829 
0.915556 
0.869829 
0.910001 
0.887046 
0.892784 
0.915740 
0.892784 
0.927218 
0.892784 
0.927218 
0.892784 
0.915740 
0.892784 
0.781831 
0.864274 
0.946717 
0.864274 
0.881307 
0.921110 
0.858535 
0.921110 
0.881307 
0.887046 
0.910001 
0.869829 
0.915556 
0.869829 
0.910001 
0.887046 
0.892784 
0.915740 
0.892784 
0.927218 
0.892784 
0.927218 
0.892784 
0.915740 
0.892784 
SCALARS DENSITY float 
LOOKUP_TABLE default 
185.552958 
192.343477 
190.215800 
217.498162 
172.507153 
163.362822 
177.449082 
201.593206 
220.826192 
182.475130 
202.919499 
193.211988 
183.680782 
186.404981 
182.678532 
194.578477 
199.067938 
183.826557 
202.356511 
217.697226 
215.882309 
204.717869 
204.431461 
199.219579 
197.131662 
100.404874 
160.072602 
205.523801 
190.503524 
104.286928 
313.710669 
175.837825 
245.893898 
194.534501 
350.455813 
215.816416 
307.889617 
221.332322 
216.934518 
168.007638 
201.823824 
161.504778 
313.782667 
274.054538 
234.823342 
231.677768 
193.748674 
214.642747 
246.615725 
249.756309 
309.774210 
224.369718 
209.027801 
223.747967 
203.729011 
113.013226 
220.054576 
217.086992 
144.597449 
324959383103540.562500 
126471.919758 
4615.385289 
135.954411 
160.559286 
286.529118 
402.227931 
-189162091049278631643456163151219901666192714926650161594983567560630045880877056.000000 
5459032950695467982372352068419584.000000 
22412568456125644822263365632.000000 
10402809929.152353 
20427951.848606 
564.950968 
2207.312098 
270.318986 
192.690654 
391.384984 
337.314801 
195.388176 
337.314805 
6384.507462 
232.756724 
255487.095544 
232.756726 
6384.507342 
1484342618409569720729600.000000 
3714401787601772.000000 
64714470346313093073586993053564928.000000 
15309062714555133952.000000 
64714473601810083923962983671136256.000000 
3714401903442901.000000 
1484342667094019379560448.000000 
-3261165434559826156723278293868433575467495469172842724484766747526149836676185467025096704.000000 
-1892799140737365734380247981449126025932434173599822075408556846225706223310733312.000000 
2246550095285124276704569640653617113953960738631088485125822304211111972722407953648644103962886144.000000 
-29933396374370775931306147834562255035564632068194285187736588641079897594710410972364800.000000 
23797208189690194666854048795829256286473495031809396642311246467181320959737387804123729781976645763072.000000 
-29933396131839326121519033497919267034625740784372238590383525537256577338471962288062464.000000 
2246549701068229228870439795299236256176241200836610786818525212006716720680394755294779039654346752.000000 
-1892798699013582775431033199279398205735932318378668012748042258935371491753066496.000000 
-3261165441927514866893914999303217701520958958880273291515294980630561978134561839996993536.000000 
309.774209 
223.747969 
209.027803 
224.369719 
144.597449 
217.086992 
220.054575 
113.013225 
203.729013 
402.227927 
286.529115 
160.559284 
135.954409 
4615.385279 
126471.919688 
324959383940901.875000 
192.690657 
270.318992 
2207.312161 
564.950969 
20427952.076734 
10402809952.985821 
22412569034033328039561003008.000000 
5459033119965348782628415683428352.000000 
-189162098232389170816622960390933756960533428202163226059483540262465400828067840.000000 
100.404874 
190.503523 
205.523800 
160.072602 
194.534500 
245.893898 
175.837826 
313.710668 
104.286928 
201.823824 
168.007638 
216.934518 
221.332323 
307.889618 
215.816416 
350.455813 
249.756308 
246.615724 
214.642747 
193.748674 
231.677767 
234.823341 
274.054538 
313.782666 
161.504778 
185.552957 
217.498162 
190.215800 
192.343477 
220.826192 
201.593206 
177.449082 
163.362822 
172.507152 
194.578477 
182.678532 
186.404981 
183.680782 
193.211988 
202.919499 
182.475130 
197.131662 
199.219579 
204.431461 
204.717869 
215.882309 
217.697226 
202.356511 
183.826557 
199.067937 
SCALARS ELEM_i float 
LOOKUP_TABLE default 
164 
192 
165 
165 
192 
192 
193 
165 
166 
220 
193 
193 
193 
193 
166 
166 
220 
220 
220 
193 
194 
194 
194 
167 
167 
164 
191 
191 
191 
218 
218 
218 
192 
192 
218 
218 
218 
218 
219 
219 
219 
244 
245 
245 
245 
246 
246 
246 
219 
220 
164 
190 
190 
190 
189 
190 
190 
190 
217 
189 
189 
216 
217 
217 
217 
217 
216 
216 
216 
216 
243 
243 
244 
244 
244 
164 
163 
163 
163 
135 
162 
162 
162 
189 
135 
135 
162 
162 
162 
189 
189 
135 
135 
135 
162 
162 
162 
189 
189 
189 
164 
136 
136 
136 
109 
136 
136 
136 
135 
109 
109 
109 
109 
108 
135 
135 
82 
82 
82 
81 
81 
108 
108 
108 
108 
164 
137 
137 
137 
138 
138 
110 
110 
110 
111 
111 
111 
110 
110 
110 
110 
112 
111 
84 
84 
84 
83 
83 
83 
82 
164 
165 
165 
138 
166 
165 
139 
138 
138 
166 
166 
139 
139 
139 
139 
112 
167 
167 
140 
140 
140 
139 
112 
112 
112 
VECTORS VELOCITY float 
0.307445 -7.257461 0.000000 
0.308100 -7.218637 0.000000 
0.303009 -7.272433 0.000000 
0.006087 -7.278244 0.000000 
0.133712 -7.042358 0.000000 
-0.075431 -7.100980 0.000000 
-0.283871 -7.209496 0.000000 
-0.430526 -7.130713 0.000000 
-0.159639 -7.179839 0.000000 
0.334860 -7.290007 0.000000 
0.327758 -7.382575 0.000000 
0.184105 -7.451103 0.000000 
-0.025112 -7.335460 0.000000 
0.032113 -7.374002 0.000000 
-0.112187 -7.265059 0.000000 
0.041427 -7.379156 0.000000 
0.250254 -6.892371 0.000000 
0.265278 -7.157407 0.000000 
0.173710 -7.183141 0.000000 
0.063641 -7.432017 0.000000 
0.042940 -7.176172 0.000000 
0.115570 -7.300640 0.000000 
0.184348 -7.220229 0.000000 
0.173603 -7.348958 0.000000 
0.105255 -7.285502 0.000000 
0.390704 -6.624225 0.000000 
-0.323812 -6.892234 0.000000 
0.342656 -7.045160 0.000000 
0.318066 -7.082934 0.000000 
-0.515281 -7.281510 0.000000 
-0.666759 -7.347842 0.000000 
-0.222271 -6.982081 0.000000 
0.018254 -6.907680 0.000000 
0.107610 -6.893565 0.000000 
-0.208189 -7.347135 0.000000 
-0.212813 -7.124720 0.000000 
0.065209 -6.729277 0.000000 
-0.003549 -6.678292 0.000000 
0.084074 -6.790826 0.000000 
0.118695 -6.897755 0.000000 
0.228114 -7.086150 0.000000 
-0.360820 -6.372555 0.000000 
-0.210809 -6.774912 0.000000 
-0.518995 -6.087403 0.000000 
-0.310345 -6.179406 0.000000 
-0.469116 -6.013173 0.000000 
-0.065304 -6.603446 0.000000 
-0.068660 -6.640471 0.000000 
0.090195 -7.001599 0.000000 
0.141023 -6.863966 0.000000 
-0.104809 -6.347344 0.000000 
-1.069366 -6.254080 0.000000 
-0.588329 -6.137298 0.000000 
-0.563422 -6.807566 0.000000 
-0.344024 -5.060338 0.000000 
-0.555310 -6.046148 0.000000 
-0.564501 -6.233128 0.000000 
-0.859840 -6.948999 0.000000 
-0.792831 -7.441286 0.000000 
0.015862 -4.398374 0.000000 
0.169791 -4.030943 0.000000 
-0.427568 -3.799216 0.000000 
-0.805463 -5.019438 0.000000 
-0.627629 -5.526090 0.000000 
-0.430247 -6.950814 0.000000 
-0.231868 -7.274059 0.000000 
-1.162397 -14.084468 0.000000 
-0.514694 -8.628608 0.000000 
-3.263282 -11.989538 0.000000 
-1.944029 -6.060709 0.000000 
-2.960258 -5.516376 0.000000 
-0.749517 -4.608832 0.000000 
-2.038625 -5.439560 0.000000 
-0.722327 -6.101178 0.000000 
-1.061530 -5.994397 0.000000 
-0.000000 -6.214478 0.000000 
0.466371 -6.396525 0.000000 
-0.000000 -6.071681 0.000000 
-0.466372 -6.396525 0.000000 
-0.023097 -5.757347 0.000000 
0.127333 -5.834017 0.000000 
0.000000 -5.772326 0.000000 
-0.127333 -5.834017 0.000000 
0.023097 -5.757347 0.000000 
0.057005 -4.989932 0.000000 
-0.185503 -4.243620 0.000000 
0.100838 -5.227179 0.000000 
0.000000 -4.352640 0.000000 
-0.100838 -5.227179 0.000000 
0.185503 -4.243620 0.000000 
-0.057005 -4.989932 0.000000 
0.804483 -18.320081 0.000000 
0.148898 -10.035823 0.000000 
0.672501 -20.950128 0.000000 
-0.049591 -10.349270 0.000000 
-0.000000 -25.153512 0.000000 
0.049591 -10.349270 0.000000 
-0.672501 -20.950129 0.000000 
-0.148898 -10.035823 0.000000 
-0.804483 -18.320081 0.000000 
0.104809 -6.347344 0.000000 
0.563422 -6.807566 0.000000 
0.588329 -6.137298 0.000000 
1.069366 -6.254080 0.000000 
0.792831 -7.441286 0.000000 
0.859840 -6.948999 0.000000 
0.564501 -6.233128 0.000000 
0.555310 -6.046148 0.000000 
0.344024 -5.060338 0.000000 
0.231868 -7.274059 0.000000 
0.430247 -6.950814 0.000000 
0.627629 -5.526089 0.000000 
0.805463 -5.019438 0.000000 
0.427568 -3.799216 0.000000 
-0.169791 -4.030943 0.000000 
-0.015862 -4.398374 0.000000 
1.061530 -5.994397 0.000000 
0.722327 -6.101178 0.000000 
2.038625 -5.439560 0.000000 
0.749517 -4.608832 0.000000 
2.960258 -5.516376 0.000000 
1.944029 -6.060709 0.000000 
3.263282 -11.989538 0.000000 
0.514694 -8.628608 0.000000 
1.162397 -14.084467 0.000000 
-0.390704 -6.624225 0.000000 
-0.318066 -7.082934 0.000000 
-0.342656 -7.045160 0.000000 
0.323812 -6.892234 0.000000 
-0.107610 -6.893565 0.000000 
-0.018254 -6.907680 0.000000 
0.222271 -6.982081 0.000000 
0.666759 -7.347842 0.000000 
0.515281 -7.281510 0.000000 
-0.228114 -7.086150 0.000000 
-0.118695 -6.897755 0.000000 
-0.084074 -6.790826 0.000000 
0.003549 -6.678292 0.000000 
-0.065209 -6.729277 0.000000 
0.212813 -7.124720 0.000000 
0.208189 -7.347135 0.000000 
-0.141023 -6.863966 0.000000 
-0.090195 -7.001599 0.000000 
0.068660 -6.640471 0.000000 
0.065304 -6.603446 0.000000 
0.469116 -6.013173 0.000000 
0.310345 -6.179406 0.000000 
0.518995 -6.087403 0.000000 
0.210809 -6.774912 0.000000 
0.360820 -6.372555 0.000000 
-0.307445 -7.257461 0.000000 
-0.006087 -7.278244 0.000000 
-0.303009 -7.272433 0.000000 
-0.308100 -7.218637 0.000000 
0.159639 -7.179839 0.000000 
0.430526 -7.130713 0.000000 
0.283871 -7.209496 0.000000 
0.075431 -7.100980 0.000000 
-0.133712 -7.042358 0.000000 
-0.041427 -7.379156 0.000000 
0.112187 -7.265059 0.000000 
-0.032113 -7.374002 0.000000 