# vtk DataFile Version 3.0 
vtk output 
ASCII 
DATASET UNSTRUCTURED_GRID 
POINTS 175 float 
-0.026061 -1.196776 0.000000 
-0.106992 -1.128721 0.000000 
-0.054870 -1.136954 0.000000 
-0.028809 -1.091070 0.000000 
-0.186430 -1.064645 0.000000 
-0.137056 -1.067172 0.000000 
-0.114311 -1.013524 0.000000 
-0.058186 -1.029190 0.000000 
-0.029377 -0.989013 0.000000 
-0.265318 -1.001490 0.000000 
-0.217198 -1.002289 0.000000 
-0.196633 -0.944993 0.000000 
-0.143120 -0.953702 0.000000 
-0.116563 -0.906433 0.000000 
-0.058945 -0.926079 0.000000 
-0.029568 -0.887959 0.000000 
-0.344206 -0.938334 0.000000 
-0.296791 -0.938327 0.000000 
-0.278030 -0.878384 0.000000 
-0.225992 -0.884250 0.000000 
-0.201664 -0.832133 0.000000 
-0.145749 -0.845607 0.000000 
-0.117890 -0.801265 0.000000 
-0.059328 -0.823970 0.000000 
-0.029759 -0.786904 0.000000 
-0.058559 -1.237527 0.000000 
-0.162226 -1.258370 0.000000 
-0.123292 -1.222752 0.000000 
-0.142917 -1.173769 0.000000 
-0.261851 -1.280526 0.000000 
-0.229092 -1.243499 0.000000 
-0.256854 -1.192268 0.000000 
-0.209613 -1.158155 0.000000 
-0.223062 -1.110581 0.000000 
-0.360414 -1.302826 0.000000 
-0.329787 -1.265703 0.000000 
-0.361761 -1.213901 0.000000 
-0.321587 -1.177493 0.000000 
-0.341985 -1.127259 0.000000 
-0.290702 -1.094460 0.000000 
-0.302189 -1.047724 0.000000 
-0.458977 -1.325126 0.000000 
-0.429420 -1.288052 0.000000 
-0.464588 -1.236010 0.000000 
-0.427556 -1.198983 0.000000 
-0.453135 -1.147468 0.000000 
-0.407738 -1.112152 0.000000 
-0.425037 -1.062724 0.000000 
-0.370772 -1.031095 0.000000 
-0.381315 -0.984868 0.000000 
-0.046960 -1.288342 0.000000 
-0.095301 -1.382388 0.000000 
-0.098873 -1.329741 0.000000 
-0.149405 -1.314543 0.000000 
-0.140093 -1.474092 0.000000 
-0.148617 -1.425394 0.000000 
-0.205981 -1.415157 0.000000 
-0.203197 -1.356953 0.000000 
-0.248777 -1.337807 0.000000 
-0.184111 -1.565056 0.000000 
-0.194039 -1.517965 0.000000 
-0.254475 -1.510665 0.000000 
-0.257893 -1.456555 0.000000 
-0.309886 -1.441183 0.000000 
-0.303554 -1.380638 0.000000 
-0.347255 -1.360480 0.000000 
-0.228129 -1.656020 0.000000 
-0.238687 -1.609795 0.000000 
-0.301302 -1.604843 0.000000 
-0.307162 -1.552804 0.000000 
-0.363386 -1.540683 0.000000 
-0.362692 -1.483172 0.000000 
-0.412122 -1.465879 0.000000 
-0.403017 -1.403732 0.000000 
-0.445733 -1.383153 0.000000 
-0.000000 -1.310957 0.000000 
0.043388 -1.407388 0.000000 
-0.000000 -1.377356 0.000000 
-0.043388 -1.407388 0.000000 
0.087158 -1.499585 0.000000 
0.043769 -1.475886 0.000000 
-0.000000 -1.514352 0.000000 
-0.043769 -1.475886 0.000000 
-0.087158 -1.499585 0.000000 
0.130831 -1.590714 0.000000 
0.087824 -1.569115 0.000000 
0.044436 -1.611815 0.000000 
-0.000000 -1.580750 0.000000 
-0.044436 -1.611815 0.000000 
-0.087824 -1.569115 0.000000 
-0.130831 -1.590714 0.000000 
0.174505 -1.681844 0.000000 
0.131782 -1.661278 0.000000 
0.088871 -1.707144 0.000000 
0.044532 -1.679280 0.000000 
-0.000000 -1.715681 0.000000 
-0.044532 -1.679280 0.000000 
-0.088871 -1.707144 0.000000 
-0.131782 -1.661278 0.000000 
-0.174505 -1.681844 0.000000 
0.046960 -1.288342 0.000000 
0.149405 -1.314543 0.000000 
0.098873 -1.329741 0.000000 
0.095301 -1.382388 0.000000 
0.248777 -1.337807 0.000000 
0.203197 -1.356953 0.000000 
0.205981 -1.415157 0.000000 
0.148617 -1.425394 0.000000 
0.140093 -1.474092 0.000000 
0.347255 -1.360480 0.000000 
0.303554 -1.380638 0.000000 
0.309886 -1.441183 0.000000 
0.257893 -1.456555 0.000000 
0.254475 -1.510665 0.000000 
0.194039 -1.517965 0.000000 
0.184111 -1.565056 0.000000 
0.445733 -1.383153 0.000000 
0.403017 -1.403732 0.000000 
0.412122 -1.465879 0.000000 
0.362692 -1.483172 0.000000 
0.363386 -1.540683 0.000000 
0.307162 -1.552804 0.000000 
0.301302 -1.604843 0.000000 
0.238687 -1.609795 0.000000 
0.228129 -1.656020 0.000000 
0.058559 -1.237527 0.000000 
0.142917 -1.173769 0.000000 
0.123292 -1.222752 0.000000 
0.162226 -1.258370 0.000000 
0.223062 -1.110581 0.000000 
0.209613 -1.158155 0.000000 
0.256854 -1.192268 0.000000 
0.229092 -1.243499 0.000000 
0.261851 -1.280526 0.000000 
0.302189 -1.047724 0.000000 
0.290702 -1.094460 0.000000 
0.341985 -1.127259 0.000000 
0.321587 -1.177493 0.000000 
0.361761 -1.213901 0.000000 
0.329787 -1.265703 0.000000 
0.360414 -1.302826 0.000000 
0.381315 -0.984868 0.000000 
0.370772 -1.031095 0.000000 
0.425037 -1.062724 0.000000 
0.407738 -1.112152 0.000000 
0.453135 -1.147468 0.000000 
0.427556 -1.198983 0.000000 
0.464588 -1.236010 0.000000 
0.429420 -1.288052 0.000000 
0.458977 -1.325126 0.000000 
0.026061 -1.196776 0.000000 
0.028809 -1.091070 0.000000 
0.054870 -1.136954 0.000000 
0.106992 -1.128721 0.000000 
0.029377 -0.989013 0.000000 
0.058186 -1.029190 0.000000 
0.114311 -1.013524 0.000000 
0.137056 -1.067172 0.000000 
0.186430 -1.064645 0.000000 
0.029568 -0.887959 0.000000 
0.058945 -0.926079 0.000000 
0.116563 -0.906433 0.000000 
0.143120 -0.953702 0.000000 
0.196633 -0.944993 0.000000 
0.217198 -1.002289 0.000000 
0.265318 -1.001490 0.000000 
0.029759 -0.786904 0.000000 
0.059328 -0.823970 0.000000 
0.117890 -0.801265 0.000000 
0.145749 -0.845607 0.000000 
0.201664 -0.832133 0.000000 
0.225992 -0.884250 0.000000 
0.278030 -0.878384 0.000000 
0.296791 -0.938327 0.000000 
0.344206 -0.938334 0.000000 
CELLS 175 350 
1 0 
1 1 
1 2 
1 3 
1 4 
1 5 
1 6 
1 7 
1 8 
1 9 
1 10 
1 11 
1 12 
1 13 
1 14 
1 15 
1 16 
1 17 
1 18 
1 19 
1 20 
1 21 
1 22 
1 23 
1 24 
1 25 
1 26 
1 27 
1 28 
1 29 
1 30 
1 31 
1 32 
1 33 
1 34 
1 35 
1 36 
1 37 
1 38 
1 39 
1 40 
1 41 
1 42 
1 43 
1 44 
1 45 
1 46 
1 47 
1 48 
1 49 
1 50 
1 51 
1 52 
1 53 
1 54 
1 55 
1 56 
1 57 
1 58 
1 59 
1 60 
1 61 
1 62 
1 63 
1 64 
1 65 
1 66 
1 67 
1 68 
1 69 
1 70 
1 71 
1 72 
1 73 
1 74 
1 75 
1 76 
1 77 
1 78 
1 79 
1 80 
1 81 
1 82 
1 83 
1 84 
1 85 
1 86 
1 87 
1 88 
1 89 
1 90 
1 91 
1 92 
1 93 
1 94 
1 95 
1 96 
1 97 
1 98 
1 99 
1 100 
1 101 
1 102 
1 103 
1 104 
1 105 
1 106 
1 107 
1 108 
1 109 
1 110 
1 111 
1 112 
1 113 
1 114 
1 115 
1 116 
1 117 
1 118 
1 119 
1 120 
1 121 
1 122 
1 123 
1 124 
1 125 
1 126 
1 127 
1 128 
1 129 
1 130 
1 131 
1 132 
1 133 
1 134 
1 135 
1 136 
1 137 
1 138 
1 139 
1 140 
1 141 
1 142 
1 143 
1 144 
1 145 
1 146 
1 147 
1 148 
1 149 
1 150 
1 151 
1 152 
1 153 
1 154 
1 155 
1 156 
1 157 
1 158 
1 159 
1 160 
1 161 
1 162 
1 163 
1 164 
1 165 
1 166 
1 167 
1 168 
1 169 
1 170 
1 171 
1 172 
1 173 
1 174 
CELL_TYPES 175 
1 
1 
1 
1 
1 
1 
1 
1 
1 
1 
1 
1 
1 
1 
1 
1 
1 
1 
1 
1 
1 
1 
1 
1 
1 
1 
1 
1 
1 
1 
1 
1 
1 
1 
1 
1 
1 
1 
1 
1 
1 
1 
1 
1 
1 
1 
1 
1 
1 
1 
1 
1 
1 
1 
1 
1 
1 
1 
1 
1 
1 
1 
1 
1 
1 
1 
1 
1 
1 
1 
1 
1 
1 
1 
1 
1 
1 
1 
1 
1 
1 
1 
1 
1 
1 
1 
1 
1 
1 
1 
1 
1 
1 
1 
1 
1 
1 
1 
1 
1 
1 
1 
1 
1 
1 
1 
1 
1 
1 
1 
1 
1 
1 
1 
1 
1 
1 
1 
1 
1 
1 
1 
1 
1 
1 
1 
1 
1 
1 
1 
1 
1 
1 
1 
1 
1 
1 
1 
1 
1 
1 
1 
1 
1 
1 
1 
1 
1 
1 
1 
1 
1 
1 
1 
1 
1 
1 
1 
1 
1 
1 
1 
1 
1 
1 
1 
1 
1 
1 
1 
1 
1 
1 
1 
1 
POINT_DATA 175 
VECTORS X_GC float 
-0.026061 -1.196776 0.000000 
-0.106992 -1.128721 0.000000 
-0.054870 -1.136954 0.000000 
-0.028809 -1.091070 0.000000 
-0.186430 -1.064645 0.000000 
-0.137056 -1.067172 0.000000 
-0.114311 -1.013524 0.000000 
-0.058186 -1.029190 0.000000 
-0.029377 -0.989013 0.000000 
-0.265318 -1.001490 0.000000 
-0.217198 -1.002289 0.000000 
-0.196633 -0.944993 0.000000 
-0.143120 -0.953702 0.000000 
-0.116563 -0.906433 0.000000 
-0.058945 -0.926079 0.000000 
-0.029568 -0.887959 0.000000 
-0.344206 -0.938334 0.000000 
-0.296791 -0.938327 0.000000 
-0.278030 -0.878384 0.000000 
-0.225992 -0.884250 0.000000 
-0.201664 -0.832133 0.000000 
-0.145749 -0.845607 0.000000 
-0.117890 -0.801265 0.000000 
-0.059328 -0.823970 0.000000 
-0.029759 -0.786904 0.000000 
-0.058559 -1.237527 0.000000 
-0.162226 -1.258370 0.000000 
-0.123292 -1.222752 0.000000 
-0.142917 -1.173769 0.000000 
-0.261851 -1.280526 0.000000 
-0.229092 -1.243499 0.000000 
-0.256854 -1.192268 0.000000 
-0.209613 -1.158155 0.000000 
-0.223062 -1.110581 0.000000 
-0.360414 -1.302826 0.000000 
-0.329787 -1.265703 0.000000 
-0.361761 -1.213901 0.000000 
-0.321587 -1.177493 0.000000 
-0.341985 -1.127259 0.000000 
-0.290702 -1.094460 0.000000 
-0.302189 -1.047724 0.000000 
-0.458977 -1.325126 0.000000 
-0.429420 -1.288052 0.000000 
-0.464588 -1.236010 0.000000 
-0.427556 -1.198983 0.000000 
-0.453135 -1.147468 0.000000 
-0.407738 -1.112152 0.000000 
-0.425037 -1.062724 0.000000 
-0.370772 -1.031095 0.000000 
-0.381315 -0.984868 0.000000 
-0.046960 -1.288342 0.000000 
-0.095301 -1.382388 0.000000 
-0.098873 -1.329741 0.000000 
-0.149405 -1.314543 0.000000 
-0.140093 -1.474092 0.000000 
-0.148617 -1.425394 0.000000 
-0.205981 -1.415157 0.000000 
-0.203197 -1.356953 0.000000 
-0.248777 -1.337807 0.000000 
-0.184111 -1.565056 0.000000 
-0.194039 -1.517965 0.000000 
-0.254475 -1.510665 0.000000 
-0.257893 -1.456555 0.000000 
-0.309886 -1.441183 0.000000 
-0.303554 -1.380638 0.000000 
-0.347255 -1.360480 0.000000 
-0.228129 -1.656020 0.000000 
-0.238687 -1.609795 0.000000 
-0.301302 -1.604843 0.000000 
-0.307162 -1.552804 0.000000 
-0.363386 -1.540683 0.000000 
-0.362692 -1.483172 0.000000 
-0.412122 -1.465879 0.000000 
-0.403017 -1.403732 0.000000 
-0.445733 -1.383153 0.000000 
-0.000000 -1.310957 0.000000 
0.043388 -1.407388 0.000000 
-0.000000 -1.377356 0.000000 
-0.043388 -1.407388 0.000000 
0.087158 -1.499585 0.000000 
0.043769 -1.475886 0.000000 
-0.000000 -1.514352 0.000000 
-0.043769 -1.475886 0.000000 
-0.087158 -1.499585 0.000000 
0.130831 -1.590714 0.000000 
0.087824 -1.569115 0.000000 
0.044436 -1.611815 0.000000 
-0.000000 -1.580750 0.000000 
-0.044436 -1.611815 0.000000 
-0.087824 -1.569115 0.000000 
-0.130831 -1.590714 0.000000 
0.174505 -1.681844 0.000000 
0.131782 -1.661278 0.000000 
0.088871 -1.707144 0.000000 
0.044532 -1.679280 0.000000 
-0.000000 -1.715681 0.000000 
-0.044532 -1.679280 0.000000 
-0.088871 -1.707144 0.000000 
-0.131782 -1.661278 0.000000 
-0.174505 -1.681844 0.000000 
0.046960 -1.288342 0.000000 
0.149405 -1.314543 0.000000 
0.098873 -1.329741 0.000000 
0.095301 -1.382388 0.000000 
0.248777 -1.337807 0.000000 
0.203197 -1.356953 0.000000 
0.205981 -1.415157 0.000000 
0.148617 -1.425394 0.000000 
0.140093 -1.474092 0.000000 
0.347255 -1.360480 0.000000 
0.303554 -1.380638 0.000000 
0.309886 -1.441183 0.000000 
0.257893 -1.456555 0.000000 
0.254475 -1.510665 0.000000 
0.194039 -1.517965 0.000000 
0.184111 -1.565056 0.000000 
0.445733 -1.383153 0.000000 
0.403017 -1.403732 0.000000 
0.412122 -1.465879 0.000000 
0.362692 -1.483172 0.000000 
0.363386 -1.540683 0.000000 
0.307162 -1.552804 0.000000 
0.301302 -1.604843 0.000000 
0.238687 -1.609795 0.000000 
0.228129 -1.656020 0.000000 
0.058559 -1.237527 0.000000 
0.142917 -1.173769 0.000000 
0.123292 -1.222752 0.000000 
0.162226 -1.258370 0.000000 
0.223062 -1.110581 0.000000 
0.209613 -1.158155 0.000000 
0.256854 -1.192268 0.000000 
0.229092 -1.243499 0.000000 
0.261851 -1.280526 0.000000 
0.302189 -1.047724 0.000000 
0.290702 -1.094460 0.000000 
0.341985 -1.127259 0.000000 
0.321587 -1.177493 0.000000 
0.361761 -1.213901 0.000000 
0.329787 -1.265703 0.000000 
0.360414 -1.302826 0.000000 
0.381315 -0.984868 0.000000 
0.370772 -1.031095 0.000000 
0.425037 -1.062724 0.000000 
0.407738 -1.112152 0.000000 
0.453135 -1.147468 0.000000 
0.427556 -1.198983 0.000000 
0.464588 -1.236010 0.000000 
0.429420 -1.288052 0.000000 
0.458977 -1.325126 0.000000 
0.026061 -1.196776 0.000000 
0.028809 -1.091070 0.000000 
0.054870 -1.136954 0.000000 
0.106992 -1.128721 0.000000 
0.029377 -0.989013 0.000000 
0.058186 -1.029190 0.000000 
0.114311 -1.013524 0.000000 
0.137056 -1.067172 0.000000 
0.186430 -1.064645 0.000000 
0.029568 -0.887959 0.000000 
0.058945 -0.926079 0.000000 
0.116563 -0.906433 0.000000 
0.143120 -0.953702 0.000000 
0.196633 -0.944993 0.000000 
0.217198 -1.002289 0.000000 
0.265318 -1.001490 0.000000 
0.029759 -0.786904 0.000000 
0.059328 -0.823970 0.000000 
0.117890 -0.801265 0.000000 
0.145749 -0.845607 0.000000 
0.201664 -0.832133 0.000000 
0.225992 -0.884250 0.000000 
0.278030 -0.878384 0.000000 
0.296791 -0.938327 0.000000 
0.344206 -0.938334 0.000000 
VECTORS X_EC float 
0.338794 0.656481 0.000000 
-0.609100 -0.262267 0.000000 
0.713312 -0.151126 0.000000 
0.374519 -0.770556 0.000000 
0.423588 0.872714 0.000000 
-0.218274 0.906817 0.000000 
-0.513962 0.182578 0.000000 
0.756418 0.394064 0.000000 
0.381900 -0.148328 0.000000 
-0.550868 0.020110 0.000000 
0.823577 0.030906 0.000000 
0.556234 -0.742598 0.000000 
-0.139443 -0.625029 0.000000 
-0.484677 0.736846 0.000000 
0.766286 -0.997939 0.000000 
0.384386 0.487441 0.000000 
0.474677 -0.832493 0.000000 
-0.141715 -0.832589 0.000000 
-0.385608 0.358183 0.000000 
0.937896 0.437378 0.000000 
0.621631 -0.266202 0.000000 
-0.105264 -0.084303 0.000000 
-0.467428 -0.682929 0.000000 
0.771260 -0.376400 0.000000 
0.386873 -0.876790 0.000000 
0.761262 -0.793384 0.000000 
0.108942 -0.512008 0.000000 
-0.397202 -0.992847 0.000000 
-0.142083 0.345878 0.000000 
-0.595936 -0.212897 0.000000 
0.978194 -0.712763 0.000000 
-0.660903 0.595612 0.000000 
0.724964 0.135092 0.000000 
0.899809 -0.507156 0.000000 
0.685384 0.088155 0.000000 
0.287229 -0.413003 0.000000 
0.702895 0.887668 0.000000 
0.180633 0.396150 0.000000 
0.445811 -0.282010 0.000000 
-0.220880 -0.724796 0.000000 
-0.071546 0.644279 0.000000 
-0.033296 0.389207 0.000000 
-0.417537 -0.111302 0.000000 
0.039645 -0.813865 0.000000 
-0.441768 0.686264 0.000000 
-0.109248 -0.009187 0.000000 
-0.699407 -0.485942 0.000000 
-0.474522 0.846779 0.000000 
0.820030 0.419785 0.000000 
0.957100 -0.204286 0.000000 
0.610485 -0.107378 0.000000 
-0.761092 -0.837758 0.000000 
-0.714655 0.451504 0.000000 
-0.057734 0.246337 0.000000 
-0.178789 0.400246 0.000000 
-0.067979 -0.257180 0.000000 
0.677748 -0.395384 0.000000 
0.641556 0.818871 0.000000 
-0.765897 0.560392 0.000000 
0.393446 -0.371745 0.000000 
0.522510 0.992525 0.000000 
-0.691820 0.893981 0.000000 
-0.647393 0.163498 0.000000 
0.028512 -0.044029 0.000000 
-0.053800 -0.861389 0.000000 
0.514316 0.866480 0.000000 
0.965681 0.856264 0.000000 
-0.897068 0.232235 0.000000 
-0.083078 0.165382 0.000000 
-0.006893 -0.537143 0.000000 
0.724017 -0.700775 0.000000 
0.714996 0.522821 0.000000 
-0.642413 0.289364 0.000000 
-0.760780 -0.549617 0.000000 
-0.205471 -0.827432 0.000000 
0.000000 0.197924 0.000000 
-0.564049 -0.500263 0.000000 
0.000000 -0.905699 0.000000 
0.564049 -0.500263 0.000000 
0.866949 0.744392 0.000000 
-0.569003 0.424461 0.000000 
0.000000 0.943749 0.000000 
0.569003 0.424461 0.000000 
-0.866949 0.744392 0.000000 
0.299194 -0.025358 0.000000 
0.858290 -0.316942 0.000000 
-0.577662 0.259504 0.000000 
0.000000 -0.159874 0.000000 
0.577662 0.259504 0.000000 
-0.858290 -0.316942 0.000000 
-0.299194 -0.025358 0.000000 
-0.268560 -0.795108 0.000000 
0.286830 0.927250 0.000000 
0.844677 -0.453551 0.000000 
-0.578910 -0.829714 0.000000 
0.000000 -0.338310 0.000000 
0.578910 -0.829714 0.000000 
-0.844677 -0.453551 0.000000 
-0.286830 0.927250 0.000000 
0.268560 -0.795108 0.000000 
-0.610485 -0.107378 0.000000 
0.057734 0.246337 0.000000 
0.714655 0.451504 0.000000 
0.761092 -0.837758 0.000000 
0.765897 0.560392 0.000000 
-0.641556 0.818871 0.000000 
-0.677748 -0.395384 0.000000 
0.067979 -0.257180 0.000000 
0.178789 0.400246 0.000000 
-0.514316 0.866480 0.000000 
0.053800 -0.861389 0.000000 
-0.028512 -0.044029 0.000000 
0.647393 0.163498 0.000000 
0.691820 0.893981 0.000000 
-0.522510 0.992525 0.000000 
-0.393446 -0.371745 0.000000 
0.205471 -0.827432 0.000000 
0.760780 -0.549617 0.000000 
0.642413 0.289364 0.000000 
-0.714996 0.522821 0.000000 
-0.724017 -0.700775 0.000000 
0.006894 -0.537143 0.000000 
0.083078 0.165382 0.000000 
0.897068 0.232235 0.000000 
-0.965681 0.856264 0.000000 
-0.761262 -0.793384 0.000000 
0.142083 0.345878 0.000000 
0.397202 -0.992847 0.000000 
-0.108942 -0.512008 0.000000 
-0.899809 -0.507156 0.000000 
-0.724964 0.135092 0.000000 
0.660903 0.595612 0.000000 
-0.978194 -0.712763 0.000000 
0.595936 -0.212897 0.000000 
0.071546 0.644279 0.000000 
0.220880 -0.724796 0.000000 
-0.445811 -0.282010 0.000000 
-0.180633 0.396150 0.000000 
-0.702895 0.887668 0.000000 
-0.287229 -0.413003 0.000000 
-0.685384 0.088155 0.000000 
-0.957100 -0.204286 0.000000 
-0.820030 0.419785 0.000000 
0.474522 0.846779 0.000000 
0.699407 -0.485942 0.000000 
0.109248 -0.009187 0.000000 
0.441768 0.686264 0.000000 
-0.039645 -0.813865 0.000000 
0.417537 -0.111302 0.000000 
0.033296 0.389207 0.000000 
-0.338794 0.656481 0.000000 
-0.374519 -0.770556 0.000000 
-0.713312 -0.151126 0.000000 
0.609100 -0.262267 0.000000 
-0.381900 -0.148328 0.000000 
-0.756418 0.394064 0.000000 
0.513962 0.182578 0.000000 
0.218274 0.906817 0.000000 
-0.423588 0.872714 0.000000 
-0.384386 0.487441 0.000000 
-0.766286 -0.997939 0.000000 
0.484677 0.736846 0.000000 
0.139443 -0.625029 0.000000 
-0.556234 -0.742598 0.000000 
-0.823577 0.030906 0.000000 
0.550868 0.020110 0.000000 
-0.386873 -0.876790 0.000000 
-0.771260 -0.376400 0.000000 
0.467428 -0.682929 0.000000 
0.105264 -0.084303 0.000000 
-0.621631 -0.266202 0.000000 
-0.937896 0.437378 0.000000 
0.385608 0.358183 0.000000 
0.141715 -0.832589 0.000000 
-0.474677 -0.832493 0.000000 
CELL_DATA 175 
SCALARS MASS float 
LOOKUP_TABLE default 
0.781831 
0.864274 
0.946717 
0.864274 
0.881307 
0.921110 
0.858535 
0.921110 
0.881307 
0.887046 
0.910001 
0.869829 
0.915556 
0.869829 
0.910001 
0.887046 
0.892784 
0.915740 
0.892784 
0.927218 
0.892784 
0.927218 
0.892784 
0.915740 
0.892784 
0.781831 
0.864274 
0.946717 
0.864274 
0.881307 
0.921110 
0.858535 
0.921110 
0.881307 
0.887046 
0.910001 
0.869829 
0.915556 
0.869829 
0.910001 
0.887046 
0.892784 
0.915740 
0.892784 
0.927218 
0.892784 
0.927218 
0.892784 
0.915740 
0.892784 
0.781831 
0.864274 
0.946717 
0.864274 
0.881307 
0.921110 
0.858535 
0.921110 
0.881307 
0.887046 
0.910001 
0.869829 
0.915556 
0.869829 
0.910001 
0.887046 
0.892784 
0.915740 
0.892784 
0.927218 
0.892784 
0.927218 
0.892784 
0.915740 
0.892784 
0.781831 
0.864274 
0.946717 
0.864274 
0.881307 
0.921110 
0.858535 
0.921110 
0.881307 
0.887046 
0.910001 
0.869829 
0.915556 
0.869829 
0.910001 
0.887046 
0.892784 
0.915740 
0.892784 
0.927218 
0.892784 
0.927218 
0.892784 
0.915740 
0.892784 
0.781831 
0.864274 
0.946717 
0.864274 
0.881307 
0.921110 
0.858535 
0.921110 
0.881307 
0.887046 
0.910001 
0.869829 
0.915556 
0.869829 
0.910001 
0.887046 
0.892784 
0.915740 
0.892784 
0.927218 
0.892784 
0.927218 
0.892784 
0.915740 
0.892784 
0.781831 
0.864274 
0.946717 
0.864274 
0.881307 
0.921110 
0.858535 
0.921110 
0.881307 
0.887046 
0.910001 
0.869829 
0.915556 
0.869829 
0.910001 
0.887046 
0.892784 
0.915740 
0.892784 
0.927218 
0.892784 
0.927218 
0.892784 
0.915740 
0.892784 
0.781831 
0.864274 
0.946717 
0.864274 
0.881307 
0.921110 
0.858535 
0.921110 
0.881307 
0.887046 
0.910001 
0.869829 
0.915556 
0.869829 
0.910001 
0.887046 
0.892784 
0.915740 
0.892784 
0.927218 
0.892784 
0.927218 
0.892784 
0.915740 
0.892784 
SCALARS MASS float 
LOOKUP_TABLE default 
0.781831 
0.864274 
0.946717 
0.864274 
0.881307 
0.921110 
0.858535 
0.921110 
0.881307 
0.887046 
0.910001 
0.869829 
0.915556 
0.869829 
0.910001 
0.887046 
0.892784 
0.915740 
0.892784 
0.927218 
0.892784 
0.927218 
0.892784 
0.915740 
0.892784 
0.781831 
0.864274 
0.946717 
0.864274 
0.881307 
0.921110 
0.858535 
0.921110 
0.881307 
0.887046 
0.910001 
0.869829 
0.915556 
0.869829 
0.910001 
0.887046 
0.892784 
0.915740 
0.892784 
0.927218 
0.892784 
0.927218 
0.892784 
0.915740 
0.892784 
0.781831 
0.864274 
0.946717 
0.864274 
0.881307 
0.921110 
0.858535 
0.921110 
0.881307 
0.887046 
0.910001 
0.869829 
0.915556 
0.869829 
0.910001 
0.887046 
0.892784 
0.915740 
0.892784 
0.927218 
0.892784 
0.927218 
0.892784 
0.915740 
0.892784 
0.781831 
0.864274 
0.946717 
0.864274 
0.881307 
0.921110 
0.858535 
0.921110 
0.881307 
0.887046 
0.910001 
0.869829 
0.915556 
0.869829 
0.910001 
0.887046 
0.892784 
0.915740 
0.892784 
0.927218 
0.892784 
0.927218 
0.892784 
0.915740 
0.892784 
0.781831 
0.864274 
0.946717 
0.864274 
0.881307 
0.921110 
0.858535 
0.921110 
0.881307 
0.887046 
0.910001 
0.869829 
0.915556 
0.869829 
0.910001 
0.887046 
0.892784 
0.915740 
0.892784 
0.927218 
0.892784 
0.927218 
0.892784 
0.915740 
0.892784 
0.781831 
0.864274 
0.946717 
0.864274 
0.881307 
0.921110 
0.858535 
0.921110 
0.881307 
0.887046 
0.910001 
0.869829 
0.915556 
0.869829 
0.910001 
0.887046 
0.892784 
0.915740 
0.892784 
0.927218 
0.892784 
0.927218 
0.892784 
0.915740 
0.892784 
0.781831 
0.864274 
0.946717 
0.864274 
0.881307 
0.921110 
0.858535 
0.921110 
0.881307 
0.887046 
0.910001 
0.869829 
0.915556 
0.869829 
0.910001 
0.887046 
0.892784 
0.915740 
0.892784 
0.927218 
0.892784 
0.927218 
0.892784 
0.915740 
0.892784 
SCALARS DENSITY float 
LOOKUP_TABLE default 
200.000000 
200.000000 
200.000000 
200.000000 
200.000000 
200.000000 
200.000000 
200.000000 
200.000000 
200.000000 
200.000000 
200.000000 
200.000000 
200.000000 
200.000000 
200.000000 
200.000000 
200.000000 
200.000000 
200.000000 
200.000000 
200.000000 
200.000000 
200.000000 
200.000000 
200.000000 
200.000000 
200.000000 
200.000000 
200.000000 
200.000000 
200.000000 
200.000000 
200.000000 
200.000000 
200.000000 
200.000000 
200.000000 
200.000000 
200.000000 
200.000000 
200.000000 
200.000000 
200.000000 
200.000000 
200.000000 
200.000000 
200.000000 
200.000000 
200.000000 
200.000000 
200.000000 
200.000000 
200.000000 
200.000000 
200.000000 
200.000000 
200.000000 
200.000000 
200.000000 
200.000000 
200.000000 
200.000000 
200.000000 
200.000000 
200.000000 
200.000000 
200.000000 
200.000000 
200.000000 
200.000000 
200.000000 
200.000000 
200.000000 
200.000000 
200.000000 
200.000000 
200.000000 
200.000000 
200.000000 
200.000000 
200.000000 
200.000000 
200.000000 
200.000000 
200.000000 
200.000000 
200.000000 
200.000000 
200.000000 
200.000000 
200.000000 
200.000000 
200.000000 
200.000000 
200.000000 
200.000000 
200.000000 
200.000000 
200.000000 
200.000000 
200.000000 
200.000000 
200.000000 
200.000000 
200.000000 
200.000000 
200.000000 
200.000000 
200.000000 
200.000000 
200.000000 
200.000000 
200.000000 
200.000000 
200.000000 
200.000000 
200.000000 
200.000000 
200.000000 
200.000000 
200.000000 
200.000000 
200.000000 
200.000000 
200.000000 
200.000000 
200.000000 
200.000000 
200.000000 
200.000000 
200.000000 
200.000000 
200.000000 
200.000000 
200.000000 
200.000000 
200.000000 
200.000000 
200.000000 
200.000000 
200.000000 
200.000000 
200.000000 
200.000000 
200.000000 
200.000000 
200.000000 
200.000000 
200.000000 
200.000000 
200.000000 
200.000000 
200.000000 
200.000000 
200.000000 
200.000000 
200.000000 
200.000000 
200.000000 
200.000000 
200.000000 
200.000000 
200.000000 
200.000000 
200.000000 
200.000000 
200.000000 
200.000000 
200.000000 
200.000000 
200.000000 
200.000000 
200.000000 
200.000000 
SCALARS ELEM_i float 
LOOKUP_TABLE default 
174 
201 
174 
174 
202 
202 
202 
175 
175 
229 
202 
202 
202 
203 
175 
176 
229 
229 
230 
203 
203 
203 
203 
176 
176 
173 
200 
200 
201 
227 
200 
228 
201 
201 
227 
227 
228 
228 
228 
228 
229 
254 
254 
254 
255 
255 
255 
256 
229 
229 
173 
199 
200 
200 
199 
199 
199 
200 
227 
198 
199 
226 
226 
226 
226 
227 
198 
225 
225 
225 
225 
226 
253 
253 
253 
173 
172 
172 
172 
145 
172 
172 
172 
199 
144 
144 
171 
171 
171 
198 
198 
143 
144 
143 
170 
170 
170 
197 
198 
197 
173 
146 
146 
145 
119 
146 
145 
145 
145 
119 
118 
118 
118 
118 
145 
144 
91 
91 
91 
118 
117 
117 
117 
117 
144 
173 
147 
146 
146 
147 
147 
120 
146 
119 
121 
120 
120 
120 
120 
119 
119 
121 
121 
94 
93 
93 
93 
92 
92 
92 
174 
174 
174 
147 
175 
175 
148 
148 
148 
176 
175 
149 
148 
148 
148 
121 
176 
176 
149 
149 
149 
149 
122 
121 
121 
VECTORS VELOCITY float 
0.000000 -4.944240 0.000000 
0.000000 -4.944240 0.000000 
0.000000 -4.944240 0.000000 
0.000000 -4.944240 0.000000 
-0.000000 -4.944240 0.000000 
-0.000000 -4.944240 0.000000 
-0.000000 -4.944240 0.000000 
-0.000000 -4.944240 0.000000 
-0.000000 -4.944240 0.000000 
-0.000000 -4.944240 0.000000 
-0.000000 -4.944240 0.000000 
0.000000 -4.944240 0.000000 
0.000000 -4.944240 0.000000 
0.000000 -4.944240 0.000000 
0.000000 -4.944240 0.000000 
0.000000 -4.944240 0.000000 
0.000000 -4.944240 0.000000 
0.000000 -4.944240 0.000000 
0.000000 -4.944240 0.000000 
-0.000000 -4.944240 0.000000 
-0.000000 -4.944240 0.000000 
-0.000000 -4.944240 0.000000 
-0.000000 -4.944240 0.000000 
-0.000000 -4.944240 0.000000 
-0.000000 -4.944240 0.000000 
-0.000000 -4.944240 0.000000 
-0.000000 -4.944240 0.000000 
-0.000000 -4.944240 0.000000 
-0.000000 -4.944240 0.000000 
0.000000 -4.944240 0.000000 
-0.000000 -4.944240 0.000000 
-0.000000 -4.944240 0.000000 
-0.000000 -4.944240 0.000000 
-0.000000 -4.944240 0.000000 
0.000000 -4.944240 0.000000 
0.000000 -4.944240 0.000000 
0.000000 -4.944240 0.000000 
-0.000000 -4.944240 0.000000 
0.000000 -4.944240 0.000000 
0.000000 -4.944240 0.000000 
0.000000 -4.944240 0.000000 
-0.000000 -4.944240 0.000000 
-0.000000 -4.944240 0.000000 
0.000000 -4.944240 0.000000 
0.000000 -4.944240 0.000000 
-0.000000 -4.944240 0.000000 
0.000000 -4.944240 0.000000 
0.000000 -4.944240 0.000000 
0.000000 -4.944240 0.000000 
0.000000 -4.944240 0.000000 
-0.000000 -4.944240 0.000000 
-0.000000 -4.944240 0.000000 
-0.000000 -4.944240 0.000000 
0.000000 -4.944240 0.000000 
0.000000 -4.944240 0.000000 
0.000000 -4.944240 0.000000 
0.000000 -4.944240 0.000000 
0.000000 -4.944240 0.000000 
0.000000 -4.944240 0.000000 
0.000000 -4.944240 0.000000 
0.000000 -4.944240 0.000000 
-0.000000 -4.944240 0.000000 
0.000000 -4.944240 0.000000 
0.000000 -4.944240 0.000000 
0.000000 -4.944240 0.000000 
0.000000 -4.944240 0.000000 
-0.000000 -4.944240 0.000000 
-0.000000 -4.944240 0.000000 
-0.000000 -4.944240 0.000000 
0.000000 -4.944240 0.000000 
0.000000 -4.944240 0.000000 
-0.000000 -4.944240 0.000000 
0.000000 -4.944240 0.000000 
0.000000 -4.944240 0.000000 
0.000000 -4.944240 0.000000 
-0.000000 -4.944240 0.000000 
-0.000000 -4.944240 0.000000 
-0.000000 -4.944240 0.000000 
-0.000000 -4.944240 0.000000 
-0.000000 -4.944240 0.000000 
-0.000000 -4.944240 0.000000 
0.000000 -4.944240 0.000000 
0.000000 -4.944240 0.000000 
0.000000 -4.944240 0.000000 
-0.000000 -4.944240 0.000000 
-0.000000 -4.944240 0.000000 
0.000000 -4.944240 0.000000 
0.000000 -4.944240 0.000000 
0.000000 -4.944240 0.000000 
0.000000 -4.944240 0.000000 
0.000000 -4.944240 0.000000 
0.000000 -4.944240 0.000000 
0.000000 -4.944240 0.000000 
0.000000 -4.944240 0.000000 
0.000000 -4.944240 0.000000 
0.000000 -4.944240 0.000000 
-0.000000 -4.944240 0.000000 
-0.000000 -4.944240 0.000000 
-0.000000 -4.944240 0.000000 
-0.000000 -4.944240 0.000000 
-0.000000 -4.944240 0.000000 
-0.000000 -4.944240 0.000000 
-0.000000 -4.944240 0.000000 
-0.000000 -4.944240 0.000000 
0.000000 -4.944240 0.000000 
-0.000000 -4.944240 0.000000 
-0.000000 -4.944240 0.000000 
-0.000000 -4.944240 0.000000 
-0.000000 -4.944240 0.000000 
-0.000000 -4.944240 0.000000 
-0.000000 -4.944240 0.000000 
-0.000000 -4.944240 0.000000 
-0.000000 -4.944240 0.000000 
-0.000000 -4.944240 0.000000 
-0.000000 -4.944240 0.000000 
0.000000 -4.944240 0.000000 
0.000000 -4.944240 0.000000 
0.000000 -4.944240 0.000000 
-0.000000 -4.944240 0.000000 
0.000000 -4.944240 0.000000 
0.000000 -4.944240 0.000000 
0.000000 -4.944240 0.000000 
-0.000000 -4.944240 0.000000 
0.000000 -4.944240 0.000000 
-0.000000 -4.944240 0.000000 
0.000000 -4.944240 0.000000 
0.000000 -4.944240 0.000000 
-0.000000 -4.944240 0.000000 
0.000000 -4.944240 0.000000 
-0.000000 -4.944240 0.000000 
-0.000000 -4.944240 0.000000 
-0.000000 -4.944240 0.000000 
-0.000000 -4.944240 0.000000 
0.000000 -4.944240 0.000000 
-0.000000 -4.944240 0.000000 
-0.000000 -4.944240 0.000000 
-0.000000 -4.944240 0.000000 
-0.000000 -4.944240 0.000000 
0.000000 -4.944240 0.000000 
0.000000 -4.944240 0.000000 
0.000000 -4.944240 0.000000 
-0.000000 -4.944240 0.000000 
0.000000 -4.944240 0.000000 
0.000000 -4.944240 0.000000 
-0.000000 -4.944240 0.000000 
0.000000 -4.944240 0.000000 
0.000000 -4.944240 0.000000 
-0.000000 -4.944240 0.000000 
-0.000000 -4.944240 0.000000 
-0.000000 -4.944240 0.000000 
0.000000 -4.944240 0.000000 
0.000000 -4.944240 0.000000 
0.000000 -4.944240 0.000000 
0.000000 -4.944240 0.000000 
-0.000000 -4.944240 0.000000 
-0.000000 -4.944240 0.000000 
-0.000000 -4.944240 0.000000 
0.000000 -4.944240 0.000000 
-0.000000 -4.944240 0.000000 
-0.000000 -4.944240 0.000000 
-0.000000 -4.944240 0.000000 
-0.000000 -4.944240 0.000000 
-0.000000 -4.944240 0.000000 
0.000000 -4.944240 0.000000 
0.000000 -4.944240 0.000000 
0.000000 -4.944240 0.000000 
-0.000000 -4.944240 0.000000 
-0.000000 -4.944240 0.000000 
-0.000000 -4.944240 0.000000 
0.000000 -4.944240 0.000000 
0.000000 -4.944240 0.000000 
0.000000 -4.944240 0.000000 
-0.000000 -4.944240 0.000000 
0.000000 -4.944240 0.000000 
0.000000 -4.944240 0.000000 
TENSORS STRESS float 
-0.000000 -0.000000 0.000000 
0.000000 -0.000000 0.000000 
0.000000 0.000000 0.000000 

0.000000 0.000000 0.000000 
0.000000 0.000000 0.000000 
0.000000 0.000000 0.000000 

0.000000 0.000000 0.000000 
0.000000 0.000000 0.000000 
0.000000 0.000000 0.000000 

0.000000 0.000000 0.000000 
0.000000 0.000000 0.000000 
0.000000 0.000000 0.000000 

-0.000000 0.000000 0.000000 
0.000000 -0.000000 0.000000 
0.000000 0.000000 0.000000 

-0.000000 0.000000 0.000000 
0.000000 -0.000000 0.000000 
0.000000 0.000000 0.000000 

0.000000 0.000000 0.000000 
0.000000 -0.000000 0.000000 
0.000000 0.000000 0.000000 

0.000000 -0.000000 0.000000 
0.000000 0.000000 0.000000 
0.000000 0.000000 0.000000 

0.000000 -0.000000 0.000000 
0.000000 0.000000 0.000000 
0.000000 0.000000 0.000000 

-0.000000 -0.000000 0.000000 
0.000000 -0.000000 0.000000 
0.000000 0.000000 0.000000 

0.000000 -0.000000 0.000000 