# vtk DataFile Version 3.0 
vtk output 
ASCII 
DATASET UNSTRUCTURED_GRID 
POINTS 806 float 
-7970779.804859 -26120099.024379 0.000000 
160939515.939232 768500497.083560 0.000000 
-20605936.790486 -33147588.514867 0.000000 
6101481.863576 1270508.419861 0.000000 
72518759855.041229 -43769498041.944580 0.000000 
1095663.750373 -2597882.462220 0.000000 
154260615.224035 65693485.534517 0.000000 
-670515089.547465 345735289.350149 0.000000 
-104511870.997671 -1053852.252699 0.000000 
-547844.704294 -3172934.469513 0.000000 
79143559.713501 -87972106.469748 0.000000 
-135590446223.096298 65969372445.017708 0.000000 
-579820249.617751 2133996527.298326 0.000000 
1450972.318976 -3756012.251586 0.000000 
186562862.476276 653779761.887565 0.000000 
-281898485.915840 15185564.068805 0.000000 
-59095914.461679 -29222332.328208 0.000000 
-2325508.451101 -6785415.779271 0.000000 
-20918156637.436108 7227532078.666755 0.000000 
-8862372.700215 -20223542.955542 0.000000 
41666229.011381 -29227102.002456 0.000000 
3625876019.222217 3647199745.318198 0.000000 
1398880.576099 -3013954.816960 0.000000 
198281059.437833 484775344.461062 0.000000 
-619389356.317022 196840091.794376 0.000000 
-82859757.386838 -16734435.431156 0.000000 
446868.401283 -2623849.535808 0.000000 
108966805.533917 -134024850.006985 0.000000 
-472496147.793999 409992654.267085 0.000000 
-91056463.893365 -66566304.538576 0.000000 
3252993.778570 -2039308.526710 0.000000 
131351729.431115 602022719.124202 0.000000 
387448879.429694 -189924537.918229 0.000000 
-38102927.479321 -35645867.534196 0.000000 
-4937433.175081 -17224401.285794 0.000000 
137048394.231020 558541100.502978 0.000000 
-14312663.398910 -27148989.195937 0.000000 
14614723.304975 -3201081.989719 0.000000 
114373820187.638718 -42851934272.440964 0.000000 
1272141.631771 -2748573.790090 0.000000 
181986680.535146 298431772.111646 0.000000 
-668988159.308620 273287721.470859 0.000000 
-93585573.469313 -9154540.018258 0.000000 
-4362.782649 -2839211.112091 0.000000 
95665498.586008 -111746372.255882 0.000000 
-511349059.707666 623563167.573545 0.000000 
289158697.394209 347558860.488969 0.000000 
1402303.911599 -4206080.485625 0.000000 
163002941.179824 650722567.263056 0.000000 
-561204.986687 -82047187.512122 0.000000 
-48079094.999826 -33304333.525704 0.000000 
-1164658.307549 -3624262.240076 0.000000 
-36144914936.723518 17947360634.258381 0.000000 
-8020228.687561 -22007206.542499 0.000000 
63319140.734495 -57768748.171296 0.000000 
-1382904450.415178 3645931105.861500 0.000000 
1448965.307069 -3353721.983516 0.000000 
203554870.710686 622324838.713044 0.000000 
-492318942.582509 109935878.508254 0.000000 
-70567269.630778 -23592352.776200 0.000000 
820148.804527 -2553157.733982 0.000000 
117548613.927432 -154831859.247078 0.000000 
-580422905.176910 382908602.250946 0.000000 
-114682083.650153 7221808.959265 0.000000 
4988804.863361 42757.554271 0.000000 
207419350.739472 1300306163.995626 0.000000 
343239785.534456 -165878469.280468 0.000000 
-28393692.039411 -34705472.845824 0.000000 
-4120895.913077 -12200701.550222 0.000000 
-2005613.863348 -4628383.416329 0.000000 
-1423506.093223 -4179725.960799 0.000000 
-2057981.266422 -4778492.333816 0.000000 
-1468666.094083 -4105325.793552 0.000000 
-2014185.363082 -4403294.775378 0.000000 
-1083735.402298 -3781731.631057 0.000000 
-1349350.368559 -3839779.626041 0.000000 
-866937.360358 -3867313.222701 0.000000 
-1437417.281352 -4396024.738366 0.000000 
-3027522.449295 -6416021.190325 0.000000 
-5425161.189982 -12611102.473922 0.000000 
-7111363.382476 -21102237.579763 0.000000 
-6477299.833540 -15416945.932055 0.000000 
-397070.366768 -3536075.367616 0.000000 
-827919.408807 -3932946.729272 0.000000 
-2637727.727534 -6975037.113512 0.000000 
352085639.099478 -175007771.351309 0.000000 
301892724.342206 -162207999.858649 0.000000 
245650893.565876 -139369227.216121 0.000000 
312498347.094215 -173165360.599153 0.000000 
239045196.067098 -131903214.419909 0.000000 
287341365.793758 -145743147.049760 0.000000 
188902836.208595 -110881747.657351 0.000000 
-132983747.595085 322516294.806133 0.000000 
204215766.166058 -127237557.862638 0.000000 
268077867.840590 -161484696.954212 0.000000 
364515839.709658 -193445703.580556 0.000000 
169013927.454994 -130524818.937275 0.000000 
267569079.141950 -159393123.616190 0.000000 
-54136743.820996 -59460099.941254 0.000000 
156417549.755752 -106660800.390664 0.000000 
216382754.395895 -138445600.152742 0.000000 
271042248.542810 -170017297.610305 0.000000 
3036581.339442 -2989694.897341 0.000000 
1818530.472978 -4874758.988774 0.000000 
2012555.268044 -4933196.387684 0.000000 
1937848.513359 -4541964.429280 0.000000 
1847249.469443 -5350898.143438 0.000000 
4155343.562541 -1764405.109450 0.000000 
14992542.382929 -20071900.117074 0.000000 
23489446.703904 -20704552.568760 0.000000 
2374962.870111 -4585379.588180 0.000000 
2245493.775731 -4228362.257068 0.000000 
1768575.243530 -4506031.128166 0.000000 
1718534.387483 -4099945.076024 0.000000 
1771854.904651 -4385898.447008 0.000000 
1496707.648349 -4346668.202529 0.000000 
6707452.177608 -9985368.109363 0.000000 
2486016.732728 -4215708.035506 0.000000 
2314926.457065 -3933259.868068 0.000000 
-52202971.589846 -30118524.378727 0.000000 
-49579873.501953 -27365990.489398 0.000000 
-43162771.147970 -27595029.885313 0.000000 
-53735025.619187 -24163541.366439 0.000000 
-39918991.620115 -30242008.656451 0.000000 
-42221917.504056 -33183924.660324 0.000000 
-33549929.648014 -30131259.349787 0.000000 
-32537515.320669 -33439730.371384 0.000000 
-40205898.796760 -24878697.285684 0.000000 
-51278426.860017 -21512751.210558 0.000000 
-60326528.786570 -23203527.764567 0.000000 
-72694946.366182 -17236130.767265 0.000000 
-63048609.174208 -25535056.790175 0.000000 
-74830122.694566 -19625863.933266 0.000000 
-34420774.769745 -24780241.233332 0.000000 
-44126680.232403 -22049415.474900 0.000000 
-55772482.683544 -18186293.643667 0.000000 
133101718.061152 535969887.457819 0.000000 
105037534.884971 351864998.623328 0.000000 
79600544.473028 261270763.819580 0.000000 
103286308.103554 271695840.084504 0.000000 
80335151.943403 338064767.985765 0.000000 
104706570.850017 497503577.663612 0.000000 
60478553.734507 293833261.716215 0.000000 
109194157.668641 850925458.744244 0.000000 
57586009.425851 104325000.468259 0.000000 
77220709.119800 95506389.776814 0.000000 
126703334.607579 359992077.857759 0.000000 
143465854.797297 332274311.106439 0.000000 
158020583.286294 553579104.329408 0.000000 
177990013.975984 542876619.117357 0.000000 
38769907.696806 34228231.420427 0.000000 
56796710.354375 18142589.875788 0.000000 
72344818.200799 1338426.008327 0.000000 
-96027377.738788 -5238232.912902 0.000000 
-89926624.414361 -5245235.676260 0.000000 
-81282338.116007 -9407539.517544 0.000000 
-92323771.027268 -1375814.234416 0.000000 
-79748447.361795 -12957754.274966 0.000000 
-85957469.252681 -12701414.975254 0.000000 
-65663259.254285 -18934318.694226 0.000000 
-75410848.141416 -9078779.821036 0.000000 
-86632724.976626 -1071898.284620 0.000000 
-100148444.712765 2351815.099677 0.000000 
-96163613.208354 2498927.918805 0.000000 
-106204568.601880 2622371.905126 0.000000 
-103178639.686556 3546810.244977 0.000000 
-67562462.383206 -12274973.489915 0.000000 
-78325854.608544 -4659440.258220 0.000000 
-89271316.328639 2916808.117300 0.000000 
-449320522.034646 119685029.016009 0.000000 
-236859728.769749 47327577.041897 0.000000 
-69700762.534736 -29599723.017414 0.000000 
-210073515.709859 53064602.397625 0.000000 
-76290430.414361 -35627620.319997 0.000000 
-284178139.083515 31932920.579618 0.000000 
148055967.540335 -123331791.907900 0.000000 
105539781.119612 -105867855.701654 0.000000 
-47479333.134291 -21622560.650545 0.000000 
-344201093.342591 126599286.987873 0.000000 
-402328889.673111 205425676.003559 0.000000 
-539491198.515617 198185110.147773 0.000000 
-581627236.843118 274174358.784544 0.000000 
276752119.116103 -184951999.083827 0.000000 
99862248.366833 -103613247.195445 0.000000 
-39288927.553219 -17273213.256134 0.000000 
169045383.459036 285142037.935230 0.000000 
126065941.962054 66583738.673278 0.000000 
117781320.916174 81004844.397468 0.000000 
95641588.897612 -145032458.861887 0.000000 
144491787.530865 268953244.462505 0.000000 
182542447.680871 456247584.370986 0.000000 
120479934.273178 248710890.938877 0.000000 
79319000.321822 -117079722.041618 0.000000 
80793677.583206 -156155571.346240 0.000000 
106079200.390823 -133260528.665151 0.000000 
101324735.368604 -155516795.767321 0.000000 
149666481.338758 92617949.929360 0.000000 
113951573.979426 -161122738.681713 0.000000 
71466738.177183 -108217115.893719 0.000000 
70475536.312532 -158423159.884940 0.000000 
75205197.930998 -140796473.469661 0.000000 
1537180.775595 -3512688.155031 0.000000 
1717898.516491 -3426093.258280 0.000000 
1831060.294703 -3588231.408797 0.000000 
1771947.695209 -3214848.295681 0.000000 
1710647.445195 -3842962.787600 0.000000 
1518332.428873 -3917083.575565 0.000000 
1869826.031706 -4152940.371663 0.000000 
2059132.594982 -3462463.933127 0.000000 
1969614.302420 -3110429.396649 0.000000 
1644300.336068 -3109174.127438 0.000000 
1498119.710882 -2838919.606565 0.000000 
1500154.620248 -3163102.230533 0.000000 
1396850.439220 -2875240.933552 0.000000 
2203160.888064 -3579543.659356 0.000000 
2145454.043404 -3193931.584423 0.000000 
1983178.164237 -2929619.500480 0.000000 
43892809.230071 -49338528.800636 0.000000 
38444862.897113 -47417148.929944 0.000000 
47723664.395738 -60539264.489414 0.000000 
24087540.821111 -31127804.152829 0.000000 
59905094.089245 -73426884.050921 0.000000 
64492651.640413 -74090737.492916 0.000000 
70833738.703291 -88402617.127891 0.000000 
82716104.639255 -97354471.409439 0.000000 
43044393.237317 -58455390.865846 0.000000 
49287994.757258 -69969147.381475 0.000000 
29066828.118799 -40338581.878132 0.000000 
[...]
POINT_DATA 806 
VECTORS X_GC float 
-7970779.804859 -26120099.024379 0.000000 
160939515.939232 768500497.083560 0.000000 
-20605936.790486 -33147588.514867 0.000000 
6101481.863576 1270508.419861 0.000000 
72518759855.041229 -43769498041.944580 0.000000 
1095663.750373 -2597882.462220 0.000000 
154260615.224035 65693485.534517 0.000000 
-670515089.547465 345735289.350149 0.000000 
-104511870.997671 -1053852.252699 0.000000 
-547844.704294 -3172934.469513 0.000000 
79143559.713501 -87972106.469748 0.000000 
-135590446223.096298 65969372445.017708 0.000000 
-579820249.617751 2133996527.298326 0.000000 
1450972.318976 -3756012.251586 0.000000 
186562862.476276 653779761.887565 0.000000 
-281898485.915840 15185564.068805 0.000000 
-59095914.461679 -29222332.328208 0.000000 
-2325508.451101 -6785415.779271 0.000000 
-20918156637.436108 7227532078.666755 0.000000 
-8862372.700215 -20223542.955542 0.000000 
41666229.011381 -29227102.002456 0.000000 
3625876019.222217 3647199745.318198 0.000000 
1398880.576099 -3013954.816960 0.000000 
198281059.437833 484775344.461062 0.000000 
-619389356.317022 196840091.794376 0.000000 
-82859757.386838 -16734435.431156 0.000000 
446868.401283 -2623849.535808 0.000000 
108966805.533917 -134024850.006985 0.000000 
-472496147.793999 409992654.267085 0.000000 
-91056463.893365 -66566304.538576 0.000000 
3252993.778570 -2039308.526710 0.000000 
131351729.431115 602022719.124202 0.000000 
387448879.429694 -189924537.918229 0.000000 
-38102927.479321 -35645867.534196 0.000000 
-4937433.175081 -17224401.285794 0.000000 
137048394.231020 558541100.502978 0.000000 
-14312663.398910 -27148989.195937 0.000000 
14614723.304975 -3201081.989719 0.000000 
114373820187.638718 -42851934272.440964 0.000000 
1272141.631771 -2748573.790090 0.000000 
181986680.535146 298431772.111646 0.000000 
-668988159.308620 273287721.470859 0.000000 
-93585573.469313 -9154540.018258 0.000000 
-4362.782649 -2839211.112091 0.000000 
95665498.586008 -111746372.255882 0.000000 
-511349059.707666 623563167.573545 0.000000 
289158697.394209 347558860.488969 0.000000 
1402303.911599 -4206080.485625 0.000000 
163002941.179824 650722567.263056 0.000000 
-561204.986687 -82047187.512122 0.000000 
-48079094.999826 -33304333.525704 0.000000 
-1164658.307549 -3624262.240076 0.000000 
-36144914936.723518 17947360634.258381 0.000000 
-8020228.687561 -22007206.542499 0.000000 
63319140.734495 -57768748.171296 0.000000 
-1382904450.415178 3645931105.861500 0.000000 
1448965.307069 -3353721.983516 0.000000 
203554870.710686 622324838.713044 0.000000 
-492318942.582509 109935878.508254 0.000000 
-70567269.630778 -23592352.776200 0.000000 
820148.804527 -2553157.733982 0.000000 
117548613.927432 -154831859.247078 0.000000 
-580422905.176910 382908602.250946 0.000000 
-114682083.650153 7221808.959265 0.000000 
4988804.863361 42757.554271 0.000000 
207419350.739472 1300306163.995626 0.000000 
343239785.534456 -165878469.280468 0.000000 
-28393692.039411 -34705472.845824 0.000000 
-4120895.913077 -12200701.550222 0.000000 
-2005613.863348 -4628383.416329 0.000000 
-1423506.093223 -4179725.960799 0.000000 
-2057981.266422 -4778492.333816 0.000000 
-1468666.094083 -4105325.793552 0.000000 
-2014185.363082 -4403294.775378 0.000000 
-1083735.402298 -3781731.631057 0.000000 
-1349350.368559 -3839779.626041 0.000000 
-866937.360358 -3867313.222701 0.000000 
-1437417.281352 -4396024.738366 0.000000 
-3027522.449295 -6416021.190325 0.000000 
-5425161.189982 -12611102.473922 0.000000 
-7111363.382476 -21102237.579763 0.000000 
-6477299.833540 -15416945.932055 0.000000 
-397070.366768 -3536075.367616 0.000000 
-827919.408807 -3932946.729272 0.000000 
-2637727.727534 -6975037.113512 0.000000 
352085639.099478 -175007771.351309 0.000000 
301892724.342206 -162207999.858649 0.000000 
245650893.565876 -139369227.216121 0.000000 
312498347.094215 -173165360.599153 0.000000 
239045196.067098 -131903214.419909 0.000000 
287341365.793758 -145743147.049760 0.000000 
188902836.208595 -110881747.657351 0.000000 
-132983747.595085 322516294.806133 0.000000 
204215766.166058 -127237557.862638 0.000000 
268077867.840590 -161484696.954212 0.000000 
364515839.709658 -193445703.580556 0.000000 
169013927.454994 -130524818.937275 0.000000 
267569079.141950 -159393123.616190 0.000000 
-54136743.820996 -59460099.941254 0.000000 
156417549.755752 -106660800.390664 0.000000 
216382754.395895 -138445600.152742 0.000000 
271042248.542810 -170017297.610305 0.000000 
3036581.339442 -2989694.897341 0.000000 
1818530.472978 -4874758.988774 0.000000 
2012555.268044 -4933196.387684 0.000000 
1937848.513359 -4541964.429280 0.000000 
1847249.469443 -5350898.143438 0.000000 
4155343.562541 -1764405.109450 0.000000 
14992542.382929 -20071900.117074 0.000000 
23489446.703904 -20704552.568760 0.000000 
2374962.870111 -4585379.588180 0.000000 
2245493.775731 -4228362.257068 0.000000 
1768575.243530 -4506031.128166 0.000000 
1718534.387483 -4099945.076024 0.000000 
1771854.904651 -4385898.447008 0.000000 
1496707.648349 -4346668.202529 0.000000 
6707452.177608 -9985368.109363 0.000000 
2486016.732728 -4215708.035506 0.000000 
2314926.457065 -3933259.868068 0.000000 
-52202971.589846 -30118524.378727 0.000000 
-49579873.501953 -27365990.489398 0.000000 
-43162771.147970 -27595029.885313 0.000000 
-53735025.619187 -24163541.366439 0.000000 
-39918991.620115 -30242008.656451 0.000000 
-42221917.504056 -33183924.660324 0.000000 
-33549929.648014 -30131259.349787 0.000000 
-32537515.320669 -33439730.371384 0.000000 
-40205898.796760 -24878697.285684 0.000000 
-51278426.860017 -21512751.210558 0.000000 
-60326528.786570 -23203527.764567 0.000000 
-72694946.366182 -17236130.767265 0.000000 
-63048609.174208 -25535056.790175 0.000000 
-74830122.694566 -19625863.933266 0.000000 
-34420774.769745 -24780241.233332 0.000000 
-44126680.232403 -22049415.474900 0.000000 
-55772482.683544 -18186293.643667 0.000000 
133101718.061152 535969887.457819 0.000000 
105037534.884971 351864998.623328 0.000000 
79600544.473028 261270763.819580 0.000000 
103286308.103554 271695840.084504 0.000000 
80335151.943403 338064767.985765 0.000000 
104706570.850017 497503577.663612 0.000000 
60478553.734507 293833261.716215 0.000000 
109194157.668641 850925458.744244 0.000000 
57586009.425851 104325000.468259 0.000000 
77220709.119800 95506389.776814 0.000000 
126703334.607579 359992077.857759 0.000000 
143465854.797297 332274311.106439 0.000000 
158020583.286294 553579104.329408 0.000000 
177990013.975984 542876619.117357 0.000000 
38769907.696806 34228231.420427 0.000000 
56796710.354375 18142589.875788 0.000000 
72344818.200799 1338426.008327 0.000000 
-96027377.738788 -5238232.912902 0.000000 
-89926624.414361 -5245235.676260 0.000000 
-81282338.116007 -9407539.517544 0.000000 
-92323771.027268 -1375814.234416 0.000000 
-79748447.361795 -12957754.274966 0.000000 
-85957469.252681 -12701414.975254 0.000000 
-65663259.254285 -18934318.694226 0.000000 
-75410848.141416 -9078779.821036 0.000000 
-86632724.976626 -1071898.284620 0.000000 
-100148444.712765 2351815.099677 0.000000 
-96163613.208354 2498927.918805 0.000000 
-106204568.601880 2622371.905126 0.000000 
-103178639.686556 3546810.244977 0.000000 
-67562462.383206 -12274973.489915 0.000000 
-78325854.608544 -4659440.258220 0.000000 
-89271316.328639 2916808.117300 0.000000 
-449320522.034646 119685029.016009 0.000000 
-236859728.769749 47327577.041897 0.000000 
-69700762.534736 -29599723.017414 0.000000 
-210073515.709859 53064602.397625 0.000000 
-76290430.414361 -35627620.319997 0.000000 
-284178139.083515 31932920.579618 0.000000 
148055967.540335 -123331791.907900 0.000000 
105539781.119612 -105867855.701654 0.000000 
-47479333.134291 -21622560.650545 0.000000 
-344201093.342591 126599286.987873 0.000000 
-402328889.673111 205425676.003559 0.000000 
-539491198.515617 198185110.147773 0.000000 
-581627236.843118 274174358.784544 0.000000 
276752119.116103 -184951999.083827 0.000000 
99862248.366833 -103613247.195445 0.000000 
-39288927.553219 -17273213.256134 0.000000 
169045383.459036 285142037.935230 0.000000 
126065941.962054 66583738.673278 0.000000 
117781320.916174 81004844.397468 0.000000 
95641588.897612 -145032458.861887 0.000000 
144491787.530865 268953244.462505 0.000000 
182542447.680871 456247584.370986 0.000000 
120479934.273178 248710890.938877 0.000000 
79319000.321822 -117079722.041618 0.000000 
80793677.583206 -156155571.346240 0.000000 
106079200.390823 -133260528.665151 0.000000 
101324735.368604 -155516795.767321 0.000000 
149666481.338758 92617949.929360 0.000000 
113951573.979426 -161122738.681713 0.000000 
71466738.177183 -108217115.893719 0.000000 
70475536.312532 -158423159.884940 0.000000 
75205197.930998 -140796473.469661 0.000000 
1537180.775595 -3512688.155031 0.000000 
1717898.516491 -3426093.258280 0.000000 
1831060.294703 -3588231.408797 0.000000 
1771947.695209 -3214848.295681 0.000000 
1710647.445195 -3842962.787600 0.000000 
1518332.428873 -3917083.575565 0.000000 
1869826.031706 -4152940.371663 0.000000 
2059132.594982 -3462463.933127 0.000000 
1969614.302420 -3110429.396649 0.000000 
1644300.336068 -3109174.127438 0.000000 
1498119.710882 -2838919.606565 0.000000 
1500154.620248 -3163102.230533 0.000000 
1396850.439220 -2875240.933552 0.000000 
2203160.888064 -3579543.659356 0.000000 
2145454.043404 -3193931.584423 0.000000 
1983178.164237 -2929619.500480 0.000000 
43892809.230071 -49338528.800636 0.000000 
38444862.897113 -47417148.929944 0.000000 
47723664.395738 -60539264.489414 0.000000 
24087540.821111 -31127804.152829 0.000000 
59905094.089245 -73426884.050921 0.000000 
64492651.640413 -74090737.492916 0.000000 
70833738.703291 -88402617.127891 0.000000 
82716104.639255 -97354471.409439 0.000000 
43044393.237317 -58455390.865846 0.000000 
49287994.757258 -69969147.381475 0.000000 
29066828.118799 -40338581.878132 0.000000 
-11113804.388703 -23548312.041325 0.000000 
-10774771.084069 -21126422.833706 0.000000 
-7308771.959367 -15629852.392540 0.000000 
-13574795.946229 -22897026.573960 0.000000 
-12690679.352243 -19702719.728215 0.000000 
-16815957.943689 -26597284.191538 0.000000 
-21194537.345171 -28116821.638050 0.000000 
-16947094.513171 -29435574.559236 0.000000 
-23895323.148196 -32091724.133313 0.000000 
-8595014.760882 -15148605.160726 0.000000 
-16109474.762597 -20892102.706312 0.000000 
-279899205.569640 697676900.958239 0.000000 
-86277509.123394 223350844.807373 0.000000 
-106588671.600938 202122687.165889 0.000000 
-36088770.562693 146401269.078629 0.000000 
-183608037.905214 275310857.656432 0.000000 
-244346939.548815 367127908.118289 0.000000 
-241006319.229499 282005691.743099 0.000000 
-358851343.115119 375175498.100251 0.000000 
-54044581.179407 101578331.356931 0.000000 
-11127851.250606 39063857.919592 0.000000 
-27995479.543500 176766820.481268 0.000000 
-6651196.462827 123762979.411593 0.000000 
10830964646.172125 -12785591782.136992 0.000000 
29366763.143544 1192840771.582608 0.000000 
-53709134.102692 75621901.673469 0.000000 
-8591095.216981 15537412.486949 0.000000 
-2014175.222939 -38825596.586598 0.000000 
-52573843.170799 -147315643.198142 0.000000 
-48339394.491325 -17648261.885684 0.000000 
-65291858.582823 -10006547.890355 0.000000 
-32094075.255470 -23871549.347221 0.000000 
-78188909.545023 -5458864.705757 0.000000 
-74754865.926489 -8359476.867450 0.000000 
-103086264.133770 6948006.769587 0.000000 
-66760110.249088 -7365758.726102 0.000000 
-32162386.668223 -23098315.078024 0.000000 
-17947531.013205 -29795580.054513 0.000000 
2155.451002 -36720786.929435 0.000000 
200896215.279163 198715790.780752 0.000000 
241779680.104749 380673342.222493 0.000000 
-80887030.604746 418240.337926 0.000000 
-49877485.545258 -14314512.097229 0.000000 
-17524438.816687 -29199766.005599 0.000000 
-452433003.061713 351267885.227337 0.000000 
-309927072.827477 254453758.107675 0.000000 
-281715475.501730 197459065.242426 0.000000 
-215092591.519716 220053815.842502 0.000000 
-391416105.935872 237295316.700097 0.000000 
-545365179.302034 326414477.814072 0.000000 
-296178359.191188 132809772.667610 0.000000 
-151255386.309391 102028294.773569 0.000000 
-98729464.307661 44546409.729167 0.000000 
-85206553.421188 70106976.506418 0.000000 
96520895.155069 -119522279.562025 0.000000 
84574479.192939 -112498102.361837 0.000000 
84544375.943072 -120129731.954103 0.000000 
72070304.467282 -95802140.836951 0.000000 
94431854.221528 -133572473.324343 0.000000 
106777639.323331 -140437690.427940 0.000000 
92559997.000844 -142363173.547882 0.000000 
71599103.115483 -110433275.668474 0.000000 
69484759.752414 -116611828.549253 0.000000 
61544051.142992 -94156887.631213 0.000000 
1029223.557938 -2589321.214968 0.000000 
1172175.018887 -2624936.331291 0.000000 
1389242.228543 -2671457.581195 0.000000 
1070186.655632 -2628061.409411 0.000000 
1388737.944858 -2722442.177413 0.000000 
1243095.443059 -2679207.665450 0.000000 
1644842.937006 -2923030.584759 0.000000 
1578317.576839 -2664156.017024 0.000000 
1247117.649561 -2620339.511932 0.000000 
811020.926861 -2643870.401310 0.000000 
564791.664372 -2721290.067971 0.000000 
709873.938616 -2598547.196626 0.000000 
315863.661119 -2730739.749865 0.000000 
1777999.464935 -2718701.064753 0.000000 
1543205.083454 -2604683.487060 0.000000 
1168536.491725 -2635884.888079 0.000000 
-100853105.491694 676334910.263559 0.000000 
88685192.257644 -71342654.780462 0.000000 
27650852.392999 -47782174.793811 0.000000 
133191620.339464 -90481612.351047 0.000000 
79417580.970570 1023066062.697108 0.000000 
23240077.914334 177590917.749232 0.000000 
2128376.982833 74372920.272269 0.000000 
37391638.600741 175664783.393983 0.000000 
-152224.932621 -2989991.349789 0.000000 
97340.038068 -2966767.396542 0.000000 
498097.966551 -2802220.796244 0.000000 
-27847.559799 -3096468.745592 0.000000 
264392.176146 -3020551.016968 0.000000 
-429801.223504 -3302013.468323 0.000000 
-621316.014009 -3505344.286067 0.000000 
-700464.412972 -3355566.230228 0.000000 
704551.690168 -2819724.181284 0.000000 
143126.886426 -3139619.698955 0.000000 
-340326.955172 -3418691.417177 0.000000 
30423428.732286 70406150.199646 0.000000 
-118315125.612426 130875338.539607 0.000000 
19187702.232501 -26107951.617783 0.000000 
64123907.846830 -130311028.847532 0.000000 
123860661.413928 -89699094.076645 0.000000 
-83492278.083069 3259714.136305 0.000000 
-19324098.776244 -27848170.014022 0.000000 
-31032381.943309 -27354549.547138 0.000000 
61804258.013355 -87127054.920961 0.000000 
-1976833.311573 -6119041.108052 0.000000 
46717105.575339 -173209297.196221 0.000000 
2999563.565601 -160250599.390102 0.000000 
2611101.913045 -3631260.595601 0.000000 
2191352.551525 -2808855.122582 0.000000 
225830635.982807 -156105576.769741 0.000000 
88337041.888410 -101760361.090303 0.000000 
1433541.904664 -2568764.075185 0.000000 
-53115368.592686 -15678988.597023 0.000000 
-16053881.440600 -18555467.665009 0.000000 
209445.101383 -3221661.083052 0.000000 
23022770.163165 -105591798.753836 0.000000 
7864669.460996 -27901412.855004 0.000000 
7250120.642384 -10343840.016694 0.000000 
80268091.804149 -135051658.503477 0.000000 
127171038.680169 -97671074.770721 0.000000 
-97915171.396053 7231224.518436 0.000000 
8425693.756579 -40343506.062800 0.000000 
-31005505.228733 -22280546.549053 0.000000 
42894346.517928 -65743899.890896 0.000000 
-6062766.442173 -12783182.298549 0.000000 
91989360.071281 65461296.279689 0.000000 
-5549154.141420 -25240731.793176 0.000000 
2106368.906766 -3895902.290091 0.000000 
1782580.554030 -2851585.474837 0.000000 
313572663.212945 -191420333.966887 0.000000 
-155126622.697909 63283684.131199 0.000000 
802889.195691 -2741632.990121 0.000000 
-63578178.153135 -16551601.176800 0.000000 
-21470235.927493 -25478296.852332 0.000000 
59093614.934784 -134325117.529081 0.000000 
181174351.551977 -135206008.687079 0.000000 
16402795.387991 -24277782.648800 0.000000 
60290019.198267 -147128537.105432 0.000000 
175340935.690884 -126182164.741252 0.000000 
25916503.501522 -38167890.679572 0.000000 
33274745.007957 -52039463.208291 0.000000 
36829998.038747 -169596937.888085 0.000000 
35939526.101472 -137478051.483955 0.000000 
31675029.841447 -156467684.297938 0.000000 
23223767.388675 -152824865.580443 0.000000 
35161287.343253 -146944014.706295 0.000000 
18502303.187348 -162628262.866435 0.000000 
19413412.538972 -139967321.800037 0.000000 
30192816.497656 -133866882.209143 0.000000 
12267407.591604 -136515545.336729 0.000000 
22909779.561520 -130530377.807365 0.000000 
7847234.605640 -145598724.360139 0.000000 
19277669.880377 -117727010.508112 0.000000 
10265090.182300 -158840701.387342 0.000000 
725340.546804 -142301724.498428 0.000000 
13238556.365458 -114593413.071200 0.000000 
-5593155.313262 -152629761.328227 0.000000 
-811337.741620 -129984154.378114 0.000000 
9711092.907179 -123947636.953600 0.000000 
-6637638.439022 -126625228.404807 0.000000 
3758829.713059 -120708501.962594 0.000000 
2579492.415210 -139993759.875977 0.000000 
2365939.323369 -108447940.258170 0.000000 
-1623184.132223 -152366355.786944 0.000000 
20043023.526040 -143498109.731504 0.000000 
-2504182.926911 -105443160.858037 0.000000 
33707906.614527 -159459436.298884 0.000000 
23755186.523021 -133026640.610674 0.000000 
-1806590.588470 -116163738.284823 0.000000 
18842879.586630 -165988432.965756 0.000000 
55842310.051177 -163751050.917074 0.000000 
40924848.485472 -136367653.180531 0.000000 
11715050.459675 -119262938.462699 0.000000 
75044258.517481 -179739965.860192 0.000000 
45624192.377422 -121298206.613303 0.000000 
59058505.283339 -151039154.748887 0.000000 
14586906.140620 -108646279.072088 0.000000 
80736200.400849 -155416349.622853 0.000000 
27179222.876197 -111131672.940268 0.000000 
6089227.293954 -95586306.527249 0.000000 
105396141.219081 -172930482.719926 0.000000 
41417182.303684 -125087285.387946 0.000000 
26795341.685678 -99704876.567418 0.000000 
8161113.190633 -84825836.600124 0.000000 
102756567.998451 -184518813.651665 0.000000 
37966228.666730 -101559535.349990 0.000000 
16334754.598604 -86461071.816939 0.000000 
54309317.903948 -115703872.249460 0.000000 
33927179.843414 -89308851.132861 0.000000 
15114998.464169 -74889230.192634 0.000000 
57436236.207173 -127806885.209420 0.000000 
68685638.208254 -117785113.794006 0.000000 
43184509.993953 -90515833.553243 0.000000 
21596382.115815 -75884409.982964 0.000000 
78596785.709789 -143468259.148491 0.000000 
91406683.419980 -132847033.190898 0.000000 
61540032.491129 -104845699.845127 0.000000 
16685555.181892 -63487447.387721 0.000000 
98406292.844173 -146455561.431309 0.000000 
73781499.504827 -106271649.744383 0.000000 
20982555.573523 -63825628.057855 0.000000 
131065558.051468 -165270596.009853 0.000000 
98657201.389046 -121523993.655397 0.000000 
62217785.871493 -92482095.711401 0.000000 
35090866.240137 -77427513.654623 0.000000 
109196626.166587 -135162022.612759 0.000000 
114090994.812886 -123176076.220937 0.000000 
71832283.172162 -93235820.588210 0.000000 
41942520.493734 -77969885.184694 0.000000 
138791078.931273 -151158574.949940 0.000000 
145982324.478697 -139367945.375738 0.000000 
98769943.888726 -108675397.773934 0.000000 
29394867.641808 -64030193.868218 0.000000 
154177470.824678 -167709597.831787 0.000000 
201755515.665076 -187397813.807578 0.000000 
160202830.536470 -153714474.628458 0.000000 
33348733.846553 -63891024.800957 0.000000 
13601734.304901 -50254049.387518 0.000000 
205986355.890861 -171854111.888692 0.000000 
55451037.908963 -78582381.628349 0.000000 
110495.175542 -36165613.408212 0.000000 
61910034.993058 -78390760.623125 0.000000 
-1437612.086445 -35139008.481357 0.000000 
-11318820.027951 -23121464.714104 0.000000 
93973029.968373 -94912501.969832 0.000000 
15947646.431494 -49086215.910511 0.000000 
-17752344.010968 -21880248.536221 0.000000 
-21285857.136307 -13540510.155969 0.000000 
16511600.179500 -48248566.335571 0.000000 