# vtk DataFile Version 3.0 
vtk output 
ASCII 
DATASET UNSTRUCTURED_GRID 
POINTS 175 float 
-0.026061 -0.253674 0.000000 
-0.106992 -0.185618 0.000000 
-0.054870 -0.193851 0.000000 
-0.028809 -0.147967 0.000000 
-0.186430 -0.121543 0.000000 
-0.137056 -0.124069 0.000000 
-0.114311 -0.070422 0.000000 
-0.058186 -0.086087 0.000000 
-0.029377 -0.045910 0.000000 
-0.265318 -0.058387 0.000000 
-0.217198 -0.059187 0.000000 
-0.196633 -0.001890 0.000000 
-0.143120 -0.010599 0.000000 
-0.116563 0.036670 0.000000 
-0.058945 0.017024 0.000000 
-0.029568 0.055144 0.000000 
-0.344206 0.004769 0.000000 
-0.296791 0.004776 0.000000 
-0.278030 0.064719 0.000000 
-0.225992 0.058853 0.000000 
-0.201664 0.110970 0.000000 
-0.145749 0.097496 0.000000 
-0.117890 0.141838 0.000000 
-0.059328 0.119132 0.000000 
-0.029759 0.156198 0.000000 
-0.058559 -0.294424 0.000000 
-0.162226 -0.315267 0.000000 
-0.123292 -0.279649 0.000000 
-0.142917 -0.230666 0.000000 
-0.261851 -0.337423 0.000000 
-0.229092 -0.300396 0.000000 
-0.256854 -0.249165 0.000000 
-0.209613 -0.215052 0.000000 
-0.223062 -0.167478 0.000000 
-0.360414 -0.359724 0.000000 
-0.329787 -0.322601 0.000000 
-0.361761 -0.270799 0.000000 
-0.321587 -0.234390 0.000000 
-0.341985 -0.184156 0.000000 
-0.290702 -0.151357 0.000000 
-0.302189 -0.104622 0.000000 
-0.458977 -0.382024 0.000000 
-0.429420 -0.344949 0.000000 
-0.464588 -0.292907 0.000000 
-0.427556 -0.255880 0.000000 
-0.453135 -0.204365 0.000000 
-0.407738 -0.169050 0.000000 
-0.425037 -0.119622 0.000000 
-0.370772 -0.087992 0.000000 
-0.381315 -0.041765 0.000000 
-0.046960 -0.345240 0.000000 
-0.095301 -0.439285 0.000000 
-0.098873 -0.386638 0.000000 
-0.149405 -0.371441 0.000000 
-0.140093 -0.530989 0.000000 
-0.148617 -0.482291 0.000000 
-0.205981 -0.472054 0.000000 
-0.203197 -0.413851 0.000000 
-0.248777 -0.394704 0.000000 
-0.184111 -0.621953 0.000000 
-0.194039 -0.574862 0.000000 
-0.254475 -0.567562 0.000000 
-0.257893 -0.513453 0.000000 
-0.309886 -0.498080 0.000000 
-0.303554 -0.437535 0.000000 
-0.347255 -0.417377 0.000000 
-0.228129 -0.712917 0.000000 
-0.238687 -0.666692 0.000000 
-0.301302 -0.661740 0.000000 
-0.307162 -0.609701 0.000000 
-0.363386 -0.597581 0.000000 
-0.362692 -0.540069 0.000000 
-0.412122 -0.522776 0.000000 
-0.403017 -0.460629 0.000000 
-0.445733 -0.440050 0.000000 
-0.000000 -0.367855 0.000000 
0.043388 -0.464285 0.000000 
-0.000000 -0.434253 0.000000 
-0.043388 -0.464285 0.000000 
0.087158 -0.556482 0.000000 
0.043769 -0.532783 0.000000 
-0.000000 -0.571249 0.000000 
-0.043769 -0.532783 0.000000 
-0.087158 -0.556482 0.000000 
0.130831 -0.647611 0.000000 
0.087824 -0.626013 0.000000 
0.044436 -0.668712 0.000000 
-0.000000 -0.637647 0.000000 
-0.044436 -0.668712 0.000000 
-0.087824 -0.626013 0.000000 
-0.130831 -0.647611 0.000000 
0.174505 -0.738741 0.000000 
0.131782 -0.718175 0.000000 
0.088871 -0.764042 0.000000 
0.044532 -0.736178 0.000000 
-0.000000 -0.772578 0.000000 
-0.044532 -0.736178 0.000000 
-0.088871 -0.764042 0.000000 
-0.131782 -0.718175 0.000000 
-0.174505 -0.738741 0.000000 
0.046960 -0.345240 0.000000 
0.149405 -0.371441 0.000000 
0.098873 -0.386638 0.000000 
0.095301 -0.439285 0.000000 
0.248777 -0.394704 0.000000 
0.203197 -0.413851 0.000000 
0.205981 -0.472054 0.000000 
0.148617 -0.482291 0.000000 
0.140093 -0.530989 0.000000 
0.347255 -0.417377 0.000000 
0.303554 -0.437535 0.000000 
0.309886 -0.498080 0.000000 
0.257893 -0.513453 0.000000 
0.254475 -0.567562 0.000000 
0.194039 -0.574862 0.000000 
0.184111 -0.621953 0.000000 
0.445733 -0.440050 0.000000 
0.403017 -0.460629 0.000000 
0.412122 -0.522776 0.000000 
0.362692 -0.540069 0.000000 
0.363386 -0.597581 0.000000 
0.307162 -0.609701 0.000000 
0.301302 -0.661740 0.000000 
0.238687 -0.666692 0.000000 
0.228129 -0.712917 0.000000 
0.058559 -0.294424 0.000000 
0.142917 -0.230666 0.000000 
0.123292 -0.279649 0.000000 
0.162226 -0.315267 0.000000 
0.223062 -0.167478 0.000000 
0.209613 -0.215052 0.000000 
0.256854 -0.249165 0.000000 
0.229092 -0.300396 0.000000 
0.261851 -0.337423 0.000000 
0.302189 -0.104622 0.000000 
0.290702 -0.151357 0.000000 
0.341985 -0.184156 0.000000 
0.321587 -0.234390 0.000000 
0.361761 -0.270799 0.000000 
0.329787 -0.322601 0.000000 
0.360414 -0.359724 0.000000 
0.381315 -0.041765 0.000000 
0.370772 -0.087992 0.000000 
0.425037 -0.119622 0.000000 
0.407738 -0.169050 0.000000 
0.453135 -0.204365 0.000000 
0.427556 -0.255880 0.000000 
0.464588 -0.292907 0.000000 
0.429420 -0.344949 0.000000 
0.458977 -0.382024 0.000000 
0.026061 -0.253674 0.000000 
0.028809 -0.147967 0.000000 
0.054870 -0.193851 0.000000 
0.106992 -0.185618 0.000000 
0.029377 -0.045910 0.000000 
0.058186 -0.086087 0.000000 
0.114311 -0.070422 0.000000 
0.137056 -0.124069 0.000000 
0.186430 -0.121543 0.000000 
0.029568 0.055144 0.000000 
0.058945 0.017024 0.000000 
0.116563 0.036670 0.000000 
0.143120 -0.010599 0.000000 
0.196633 -0.001890 0.000000 
0.217198 -0.059187 0.000000 
0.265318 -0.058387 0.000000 
0.029759 0.156198 0.000000 
0.059328 0.119132 0.000000 
0.117890 0.141838 0.000000 
0.145749 0.097496 0.000000 
0.201664 0.110970 0.000000 
0.225992 0.058853 0.000000 
0.278030 0.064719 0.000000 
0.296791 0.004776 0.000000 
0.344206 0.004769 0.000000 
CELLS 175 350 
1 0 
1 1 
1 2 
1 3 
1 4 
1 5 
1 6 
1 7 
1 8 
1 9 
1 10 
1 11 
1 12 
1 13 
1 14 
1 15 
1 16 
1 17 
1 18 
1 19 
1 20 
1 21 
1 22 
1 23 
1 24 
1 25 
1 26 
1 27 
1 28 
1 29 
1 30 
1 31 
1 32 
1 33 
1 34 
1 35 
1 36 
1 37 
1 38 
1 39 
1 40 
1 41 
1 42 
1 43 
1 44 
1 45 
1 46 
1 47 
1 48 
1 49 
1 50 
1 51 
1 52 
1 53 
1 54 
1 55 
1 56 
1 57 
1 58 
1 59 
1 60 
1 61 
1 62 
1 63 
1 64 
1 65 
1 66 
1 67 
1 68 
1 69 
1 70 
1 71 
1 72 
1 73 
1 74 
1 75 
1 76 
1 77 
1 78 
1 79 
1 80 
1 81 
1 82 
1 83 
1 84 
1 85 
1 86 
1 87 
1 88 
1 89 
1 90 
1 91 
1 92 
1 93 
1 94 
1 95 
1 96 
1 97 
1 98 
1 99 
1 100 
1 101 
1 102 
1 103 
1 104 
1 105 
1 106 
1 107 
1 108 
1 109 
1 110 
1 111 
1 112 
1 113 
1 114 
1 115 
1 116 
1 117 
1 118 
1 119 
1 120 
1 121 
1 122 
1 123 
1 124 
1 125 
1 126 
1 127 
1 128 
1 129 
1 130 
1 131 
1 132 
1 133 
1 134 
1 135 
1 136 
1 137 
1 138 
1 139 
1 140 
1 141 
1 142 
1 143 
1 144 
1 145 
1 146 
1 147 
1 148 
1 149 
1 150 
1 151 
1 152 
1 153 
1 154 
1 155 
1 156 
1 157 
1 158 
1 159 
1 160 
1 161 
1 162 
1 163 
1 164 
1 165 
1 166 
1 167 
1 168 
1 169 
1 170 
1 171 
1 172 
1 173 
1 174 
CELL_TYPES 175 
1 
1 
1 
1 
1 
1 
1 
1 
1 
1 
1 
1 
1 
1 
1 
1 
1 
1 
1 
1 
1 
1 
1 
1 
1 
1 
1 
1 
1 
1 
1 
1 
1 
1 
1 
1 
1 
1 
1 
1 
1 
1 
1 
1 
1 
1 
1 
1 
1 
1 
1 
1 
1 
1 
1 
1 
1 
1 
1 
1 
1 
1 
1 
1 
1 
1 
1 
1 
1 
1 
1 
1 
1 
1 
1 
1 
1 
1 
1 
1 
1 
1 
1 
1 
1 
1 
1 
1 
1 
1 
1 
1 
1 
1 
1 
1 
1 
1 
1 
1 
1 
1 
1 
1 
1 
1 
1 
1 
1 
1 
1 
1 
1 
1 
1 
1 
1 
1 
1 
1 
1 
1 
1 
1 
1 
1 
1 
1 
1 
1 
1 
1 
1 
1 
1 
1 
1 
1 
1 
1 
1 
1 
1 
1 
1 
1 
1 
1 
1 
1 
1 
1 
1 
1 
1 
1 
1 
1 
1 
1 
1 
1 
1 
1 
1 
1 
1 
1 
1 
1 
1 
1 
1 
1 
1 
POINT_DATA 175 
VECTORS X_GC float 
-0.026061 -0.253674 0.000000 
-0.106992 -0.185618 0.000000 
-0.054870 -0.193851 0.000000 
-0.028809 -0.147967 0.000000 
-0.186430 -0.121543 0.000000 
-0.137056 -0.124069 0.000000 
-0.114311 -0.070422 0.000000 
-0.058186 -0.086087 0.000000 
-0.029377 -0.045910 0.000000 
-0.265318 -0.058387 0.000000 
-0.217198 -0.059187 0.000000 
-0.196633 -0.001890 0.000000 
-0.143120 -0.010599 0.000000 
-0.116563 0.036670 0.000000 
-0.058945 0.017024 0.000000 
-0.029568 0.055144 0.000000 
-0.344206 0.004769 0.000000 
-0.296791 0.004776 0.000000 
-0.278030 0.064719 0.000000 
-0.225992 0.058853 0.000000 
-0.201664 0.110970 0.000000 
-0.145749 0.097496 0.000000 
-0.117890 0.141838 0.000000 
-0.059328 0.119132 0.000000 
-0.029759 0.156198 0.000000 
-0.058559 -0.294424 0.000000 
-0.162226 -0.315267 0.000000 
-0.123292 -0.279649 0.000000 
-0.142917 -0.230666 0.000000 
-0.261851 -0.337423 0.000000 
-0.229092 -0.300396 0.000000 
-0.256854 -0.249165 0.000000 
-0.209613 -0.215052 0.000000 
-0.223062 -0.167478 0.000000 
-0.360414 -0.359724 0.000000 
-0.329787 -0.322601 0.000000 
-0.361761 -0.270799 0.000000 
-0.321587 -0.234390 0.000000 
-0.341985 -0.184156 0.000000 
-0.290702 -0.151357 0.000000 
-0.302189 -0.104622 0.000000 
-0.458977 -0.382024 0.000000 
-0.429420 -0.344949 0.000000 
-0.464588 -0.292907 0.000000 
-0.427556 -0.255880 0.000000 
-0.453135 -0.204365 0.000000 
-0.407738 -0.169050 0.000000 
-0.425037 -0.119622 0.000000 
-0.370772 -0.087992 0.000000 
-0.381315 -0.041765 0.000000 
-0.046960 -0.345240 0.000000 
-0.095301 -0.439285 0.000000 
-0.098873 -0.386638 0.000000 
-0.149405 -0.371441 0.000000 
-0.140093 -0.530989 0.000000 
-0.148617 -0.482291 0.000000 
-0.205981 -0.472054 0.000000 
-0.203197 -0.413851 0.000000 
-0.248777 -0.394704 0.000000 
-0.184111 -0.621953 0.000000 
-0.194039 -0.574862 0.000000 
-0.254475 -0.567562 0.000000 
-0.257893 -0.513453 0.000000 
-0.309886 -0.498080 0.000000 
-0.303554 -0.437535 0.000000 
-0.347255 -0.417377 0.000000 
-0.228129 -0.712917 0.000000 
-0.238687 -0.666692 0.000000 
-0.301302 -0.661740 0.000000 
-0.307162 -0.609701 0.000000 
-0.363386 -0.597581 0.000000 
-0.362692 -0.540069 0.000000 
-0.412122 -0.522776 0.000000 
-0.403017 -0.460629 0.000000 
-0.445733 -0.440050 0.000000 
-0.000000 -0.367855 0.000000 
0.043388 -0.464285 0.000000 
-0.000000 -0.434253 0.000000 
-0.043388 -0.464285 0.000000 
0.087158 -0.556482 0.000000 
0.043769 -0.532783 0.000000 
-0.000000 -0.571249 0.000000 
-0.043769 -0.532783 0.000000 
-0.087158 -0.556482 0.000000 
0.130831 -0.647611 0.000000 
0.087824 -0.626013 0.000000 
0.044436 -0.668712 0.000000 
-0.000000 -0.637647 0.000000 
-0.044436 -0.668712 0.000000 
-0.087824 -0.626013 0.000000 
-0.130831 -0.647611 0.000000 
0.174505 -0.738741 0.000000 
0.131782 -0.718175 0.000000 
0.088871 -0.764042 0.000000 
0.044532 -0.736178 0.000000 
-0.000000 -0.772578 0.000000 
-0.044532 -0.736178 0.000000 
-0.088871 -0.764042 0.000000 
-0.131782 -0.718175 0.000000 
-0.174505 -0.738741 0.000000 
0.046960 -0.345240 0.000000 
0.149405 -0.371441 0.000000 
0.098873 -0.386638 0.000000 
0.095301 -0.439285 0.000000 
0.248777 -0.394704 0.000000 
0.203197 -0.413851 0.000000 
0.205981 -0.472054 0.000000 
0.148617 -0.482291 0.000000 
0.140093 -0.530989 0.000000 
0.347255 -0.417377 0.000000 
0.303554 -0.437535 0.000000 
0.309886 -0.498080 0.000000 
0.257893 -0.513453 0.000000 
0.254475 -0.567562 0.000000 
0.194039 -0.574862 0.000000 
0.184111 -0.621953 0.000000 
0.445733 -0.440050 0.000000 
0.403017 -0.460629 0.000000 
0.412122 -0.522776 0.000000 
0.362692 -0.540069 0.000000 
0.363386 -0.597581 0.000000 
0.307162 -0.609701 0.000000 
0.301302 -0.661740 0.000000 
0.238687 -0.666692 0.000000 
0.228129 -0.712917 0.000000 
0.058559 -0.294424 0.000000 
0.142917 -0.230666 0.000000 
0.123292 -0.279649 0.000000 
0.162226 -0.315267 0.000000 
0.223062 -0.167478 0.000000 
0.209613 -0.215052 0.000000 
0.256854 -0.249165 0.000000 
0.229092 -0.300396 0.000000 
0.261851 -0.337423 0.000000 
0.302189 -0.104622 0.000000 
0.290702 -0.151357 0.000000 
0.341985 -0.184156 0.000000 
0.321587 -0.234390 0.000000 
0.361761 -0.270799 0.000000 
0.329787 -0.322601 0.000000 
0.360414 -0.359724 0.000000 
0.381315 -0.041765 0.000000 
0.370772 -0.087992 0.000000 
0.425037 -0.119622 0.000000 
0.407738 -0.169050 0.000000 
0.453135 -0.204365 0.000000 
0.427556 -0.255880 0.000000 
0.464588 -0.292907 0.000000 
0.429420 -0.344949 0.000000 
0.458977 -0.382024 0.000000 
0.026061 -0.253674 0.000000 
0.028809 -0.147967 0.000000 
0.054870 -0.193851 0.000000 
0.106992 -0.185618 0.000000 
0.029377 -0.045910 0.000000 
0.058186 -0.086087 0.000000 
0.114311 -0.070422 0.000000 
0.137056 -0.124069 0.000000 
0.186430 -0.121543 0.000000 
0.029568 0.055144 0.000000 
0.058945 0.017024 0.000000 
0.116563 0.036670 0.000000 
0.143120 -0.010599 0.000000 
0.196633 -0.001890 0.000000 
0.217198 -0.059187 0.000000 
0.265318 -0.058387 0.000000 
0.029759 0.156198 0.000000 
0.059328 0.119132 0.000000 
0.117890 0.141838 0.000000 
0.145749 0.097496 0.000000 
0.201664 0.110970 0.000000 
0.225992 0.058853 0.000000 
0.278030 0.064719 0.000000 
0.296791 0.004776 0.000000 
0.344206 0.004769 0.000000 
VECTORS X_EC float 
0.338794 -0.075406 0.000000 
-0.609100 -0.994155 0.000000 
0.713312 -0.883014 0.000000 
0.374519 0.497556 0.000000 
0.423588 0.140826 0.000000 
-0.218274 0.174929 0.000000 
-0.513962 -0.549309 0.000000 
0.756418 -0.337823 0.000000 
0.381900 -0.880216 0.000000 
-0.550868 -0.711777 0.000000 
0.823577 -0.700982 0.000000 
0.556234 0.525514 0.000000 
-0.139443 0.643083 0.000000 
-0.484677 0.004958 0.000000 
0.766286 0.270174 0.000000 
0.384386 -0.244447 0.000000 
0.474677 0.435620 0.000000 
-0.141715 0.435523 0.000000 
-0.385608 -0.373705 0.000000 
0.937896 -0.294510 0.000000 
0.621631 -0.998090 0.000000 
-0.105264 -0.816190 0.000000 
-0.467428 0.585183 0.000000 
0.771260 0.891712 0.000000 
0.386873 0.391322 0.000000 
0.761262 0.474728 0.000000 
0.108942 0.756105 0.000000 
-0.397202 0.275265 0.000000 
-0.142083 -0.386010 0.000000 
-0.595936 -0.944785 0.000000 
0.978194 0.555349 0.000000 
-0.660903 -0.136276 0.000000 
0.724964 -0.596796 0.000000 
0.899809 0.760956 0.000000 
0.685384 -0.643732 0.000000 
0.287229 0.855109 0.000000 
0.702895 0.155781 0.000000 
0.180633 -0.335738 0.000000 
0.445811 0.986102 0.000000 
-0.220880 0.543316 0.000000 
-0.071546 -0.087609 0.000000 
-0.033296 -0.342680 0.000000 
-0.417537 -0.843190 0.000000 
0.039645 0.454248 0.000000 
-0.441768 -0.045624 0.000000 
-0.109248 -0.741074 0.000000 
-0.699407 0.782170 0.000000 
-0.474522 0.114891 0.000000 
0.820030 -0.312102 0.000000 
0.957100 -0.936174 0.000000 
0.610485 -0.839266 0.000000 
-0.761092 0.430354 0.000000 
-0.714655 -0.280384 0.000000 
-0.057734 -0.485551 0.000000 
-0.178789 -0.331642 0.000000 
-0.067979 -0.989068 0.000000 
0.677748 0.872728 0.000000 
0.641556 0.086983 0.000000 
-0.765897 -0.171495 0.000000 
0.393446 0.896367 0.000000 
0.522510 0.260637 0.000000 
-0.691820 0.162093 0.000000 
-0.647393 -0.568390 0.000000 
0.028512 -0.775916 0.000000 
-0.053800 0.406723 0.000000 
0.514316 0.134592 0.000000 
0.965681 0.124376 0.000000 
-0.897068 -0.499653 0.000000 
-0.083078 -0.566506 0.000000 
-0.006893 0.730970 0.000000 
0.724017 0.567337 0.000000 
0.714996 -0.209067 0.000000 
-0.642413 -0.442524 0.000000 
-0.760780 0.718495 0.000000 
-0.205471 0.440680 0.000000 
0.000000 -0.533964 0.000000 
-0.564049 0.767849 0.000000 
0.000000 0.362413 0.000000 
0.564049 0.767849 0.000000 
0.866949 0.012504 0.000000 
-0.569003 -0.307427 0.000000 
0.000000 0.211861 0.000000 
0.569003 -0.307427 0.000000 
-0.866949 0.012504 0.000000 
0.299194 -0.757246 0.000000 
0.858290 0.951170 0.000000 
-0.577662 -0.472384 0.000000 
0.000000 -0.891762 0.000000 
0.577662 -0.472384 0.000000 
-0.858290 0.951170 0.000000 
-0.299194 -0.757246 0.000000 
-0.268560 0.473004 0.000000 
0.286830 0.195363 0.000000 
0.844677 0.814561 0.000000 
-0.578910 0.438398 0.000000 
0.000000 0.929802 0.000000 
0.578910 0.438398 0.000000 
-0.844677 0.814561 0.000000 
-0.286830 0.195363 0.000000 
0.268560 0.473004 0.000000 
-0.610485 -0.839266 0.000000 
0.057734 -0.485551 0.000000 
0.714655 -0.280384 0.000000 
0.761092 0.430354 0.000000 
0.765897 -0.171495 0.000000 
-0.641556 0.086983 0.000000 
-0.677748 0.872728 0.000000 
0.067979 -0.989068 0.000000 
0.178789 -0.331642 0.000000 
-0.514316 0.134592 0.000000 
0.053800 0.406723 0.000000 
-0.028512 -0.775916 0.000000 
0.647393 -0.568390 0.000000 
0.691820 0.162093 0.000000 
-0.522510 0.260637 0.000000 
-0.393446 0.896367 0.000000 
0.205471 0.440680 0.000000 
0.760780 0.718495 0.000000 
0.642413 -0.442524 0.000000 
-0.714996 -0.209067 0.000000 
-0.724017 0.567337 0.000000 
0.006894 0.730970 0.000000 
0.083078 -0.566506 0.000000 
0.897068 -0.499653 0.000000 
-0.965681 0.124376 0.000000 
-0.761262 0.474728 0.000000 
0.142083 -0.386010 0.000000 
0.397202 0.275265 0.000000 
-0.108942 0.756105 0.000000 
-0.899809 0.760956 0.000000 
-0.724964 -0.596796 0.000000 
0.660903 -0.136276 0.000000 
-0.978194 0.555349 0.000000 
0.595936 -0.944785 0.000000 
0.071546 -0.087609 0.000000 
0.220880 0.543316 0.000000 
-0.445811 0.986102 0.000000 
-0.180633 -0.335738 0.000000 
-0.702895 0.155781 0.000000 
-0.287229 0.855109 0.000000 
-0.685384 -0.643732 0.000000 
-0.957100 -0.936174 0.000000 
-0.820030 -0.312102 0.000000 
0.474522 0.114891 0.000000 
0.699407 0.782170 0.000000 
0.109248 -0.741074 0.000000 
0.441768 -0.045624 0.000000 
-0.039645 0.454248 0.000000 
0.417537 -0.843190 0.000000 
0.033296 -0.342680 0.000000 
-0.338794 -0.075406 0.000000 
-0.374519 0.497556 0.000000 
-0.713312 -0.883014 0.000000 
0.609100 -0.994155 0.000000 
-0.381900 -0.880216 0.000000 
-0.756418 -0.337823 0.000000 
0.513962 -0.549309 0.000000 
0.218274 0.174929 0.000000 
-0.423588 0.140826 0.000000 
-0.384386 -0.244447 0.000000 
-0.766286 0.270174 0.000000 
0.484677 0.004958 0.000000 
0.139443 0.643083 0.000000 
-0.556234 0.525514 0.000000 
-0.823577 -0.700982 0.000000 
0.550868 -0.711777 0.000000 
-0.386873 0.391322 0.000000 
-0.771260 0.891712 0.000000 
0.467428 0.585183 0.000000 
0.105264 -0.816190 0.000000 
-0.621631 -0.998090 0.000000 
-0.937896 -0.294509 0.000000 
0.385608 -0.373705 0.000000 
0.141715 0.435523 0.000000 
-0.474677 0.435620 0.000000 
CELL_DATA 175 
SCALARS MASS float 
LOOKUP_TABLE default 
0.781831 
0.864274 
0.946717 
0.864274 
0.881307 
0.921110 
0.858535 
0.921110 
0.881307 
0.887046 
0.910001 
0.869829 
0.915556 
0.869829 
0.910001 
0.887046 
0.892784 
0.915740 
0.892784 
0.927218 
0.892784 
0.927218 
0.892784 
0.915740 
0.892784 
0.781831 
0.864274 
0.946717 
0.864274 
0.881307 
0.921110 
0.858535 
0.921110 
0.881307 
0.887046 
0.910001 
0.869829 
0.915556 
0.869829 
0.910001 
0.887046 
0.892784 
0.915740 
0.892784 
0.927218 
0.892784 
0.927218 
0.892784 
0.915740 
0.892784 
0.781831 
0.864274 
0.946717 
0.864274 
0.881307 
0.921110 
0.858535 
0.921110 
0.881307 
0.887046 
0.910001 
0.869829 
0.915556 
0.869829 
0.910001 
0.887046 
0.892784 
0.915740 
0.892784 
0.927218 
0.892784 
0.927218 
0.892784 
0.915740 
0.892784 
0.781831 
0.864274 
0.946717 
0.864274 
0.881307 
0.921110 
0.858535 
0.921110 
0.881307 
0.887046 
0.910001 
0.869829 
0.915556 
0.869829 
0.910001 
0.887046 
0.892784 
0.915740 
0.892784 
0.927218 
0.892784 
0.927218 
0.892784 
0.915740 
0.892784 
0.781831 
0.864274 
0.946717 
0.864274 
0.881307 
0.921110 
0.858535 
0.921110 
0.881307 
0.887046 
0.910001 
0.869829 
0.915556 
0.869829 
0.910001 
0.887046 
0.892784 
0.915740 
0.892784 
0.927218 
0.892784 
0.927218 
0.892784 
0.915740 
0.892784 
0.781831 
0.864274 
0.946717 
0.864274 
0.881307 
0.921110 
0.858535 
0.921110 
0.881307 
0.887046 
0.910001 
0.869829 
0.915556 
0.869829 
0.910001 
0.887046 
0.892784 
0.915740 
0.892784 
0.927218 
0.892784 
0.927218 
0.892784 
0.915740 
0.892784 
0.781831 
0.864274 
0.946717 
0.864274 
0.881307 
0.921110 
0.858535 
0.921110 
0.881307 
0.887046 
0.910001 
0.869829 
0.915556 
0.869829 
0.910001 
0.887046 
0.892784 
0.915740 
0.892784 
0.927218 
0.892784 
0.927218 
0.892784 
0.915740 
0.892784 
SCALARS MASS float 
LOOKUP_TABLE default 
0.781831 
0.864274 
0.946717 
0.864274 
0.881307 
0.921110 
0.858535 
0.921110 
0.881307 
0.887046 
0.910001 
0.869829 
0.915556 
0.869829 
0.910001 
0.887046 
0.892784 
0.915740 
0.892784 
0.927218 
0.892784 
0.927218 
0.892784 
0.915740 
0.892784 
0.781831 
0.864274 
0.946717 
0.864274 
0.881307 
0.921110 
0.858535 
0.921110 
0.881307 
0.887046 
0.910001 
0.869829 
0.915556 
0.869829 
0.910001 
0.887046 
0.892784 
0.915740 
0.892784 
0.927218 
0.892784 
0.927218 
0.892784 
0.915740 
0.892784 
0.781831 
0.864274 
0.946717 
0.864274 
0.881307 
0.921110 
0.858535 
0.921110 
0.881307 
0.887046 
0.910001 
0.869829 
0.915556 
0.869829 
0.910001 
0.887046 
0.892784 
0.915740 
0.892784 
0.927218 
0.892784 
0.927218 
0.892784 
0.915740 
0.892784 
0.781831 
0.864274 
0.946717 
0.864274 
0.881307 
0.921110 
0.858535 
0.921110 
0.881307 
0.887046 
0.910001 
0.869829 
0.915556 
0.869829 
0.910001 
0.887046 
0.892784 
0.915740 
0.892784 
0.927218 
0.892784 
0.927218 
0.892784 
0.915740 
0.892784 
0.781831 
0.864274 
0.946717 
0.864274 
0.881307 
0.921110 
0.858535 
0.921110 
0.881307 
0.887046 
0.910001 
0.869829 
0.915556 
0.869829 
0.910001 
0.887046 
0.892784 
0.915740 
0.892784 
0.927218 
0.892784 
0.927218 
0.892784 
0.915740 
0.892784 
0.781831 
0.864274 
0.946717 
0.864274 
0.881307 
0.921110 
0.858535 
0.921110 
0.881307 
0.887046 
0.910001 
0.869829 
0.915556 
0.869829 
0.910001 
0.887046 
0.892784 
0.915740 
0.892784 
0.927218 
0.892784 
0.927218 
0.892784 
0.915740 
0.892784 
0.781831 
0.864274 
0.946717 
0.864274 
0.881307 
0.921110 
0.858535 
0.921110 
0.881307 
0.887046 
0.910001 
0.869829 
0.915556 
0.869829 
0.910001 
0.887046 
0.892784 
0.915740 
0.892784 
0.927218 
0.892784 
0.927218 
0.892784 
0.915740 
0.892784 
SCALARS DENSITY float 
LOOKUP_TABLE default 
200.000000 
200.000000 
200.000000 
200.000000 
200.000000 
200.000000 
200.000000 
200.000000 
200.000000 
200.000000 
200.000000 
200.000000 
200.000000 
200.000000 
200.000000 
200.000000 
200.000000 
200.000000 
200.000000 
200.000000 
200.000000 
200.000000 
200.000000 
200.000000 
200.000000 
200.000000 
200.000000 
200.000000 
200.000000 
200.000000 
200.000000 
200.000000 
200.000000 
200.000000 
200.000000 
200.000000 
200.000000 
200.000000 
200.000000 
200.000000 
200.000000 
200.000000 
200.000000 
200.000000 
200.000000 
200.000000 
200.000000 
200.000000 
200.000000 
200.000000 
200.000000 
200.000000 
200.000000 
200.000000 
200.000000 
200.000000 
200.000000 
200.000000 
200.000000 
200.000000 
200.000000 
200.000000 
200.000000 
200.000000 
200.000000 
200.000000 
200.000000 
200.000000 
200.000000 
200.000000 
200.000000 
200.000000 
200.000000 
200.000000 
200.000000 
200.000000 
200.000000 
200.000000 
200.000000 
200.000000 
200.000000 
200.000000 
200.000000 
200.000000 
200.000000 
200.000000 
200.000000 
200.000000 
200.000000 
200.000000 
200.000000 
200.000000 
200.000000 
200.000000 
200.000000 
200.000000 
200.000000 
200.000000 
200.000000 
200.000000 
200.000000 
200.000000 
200.000000 
200.000000 
200.000000 
200.000000 
200.000000 
200.000000 
200.000000 
200.000000 
200.000000 
200.000000 
200.000000 
200.000000 
200.000000 
200.000000 
200.000000 
200.000000 
200.000000 
200.000000 
200.000000 
200.000000 
200.000000 
200.000000 
200.000000 
200.000000 
200.000000 
200.000000 
200.000000 
200.000000 
200.000000 
200.000000 
200.000000 
200.000000 
200.000000 
200.000000 
200.000000 
200.000000 
200.000000 
200.000000 
200.000000 
200.000000 
200.000000 
200.000000 
200.000000 
200.000000 
200.000000 
200.000000 
200.000000 
200.000000 
200.000000 
200.000000 
200.000000 
200.000000 
200.000000 
200.000000 
200.000000 
200.000000 
200.000000 
200.000000 
200.000000 
200.000000 
200.000000 
200.000000 
200.000000 
200.000000 
200.000000 
200.000000 
200.000000 
200.000000 
200.000000 
200.000000 
200.000000 
200.000000 
200.000000 
SCALARS ELEM_i float 
LOOKUP_TABLE default 
180 
207 
180 
181 
208 
208 
208 
181 
181 
235 
208 
209 
209 
209 
182 
182 
236 
236 
236 
209 
209 
209 
210 
183 
183 
180 
207 
207 
207 
233 
207 
234 
207 
208 
233 
234 
234 
234 
235 
235 
235 
260 
260 
261 
261 
261 
262 
262 
235 
235 
179 
206 
206 
206 
205 
205 
206 
206 
233 
205 
205 
232 
232 
232 
233 
233 
204 
231 
231 
232 
232 
232 
259 
260 
260 
179 
179 
179 
179 
151 
178 
178 
178 
205 
150 
151 
177 
177 
177 
205 
204 
150 
150 
150 
177 
177 
177 
204 
204 
204 
179 
152 
152 
152 
125 
152 
152 
151 
151 
125 
125 
124 
124 
124 
151 
151 
98 
98 
97 
124 
124 
124 
123 
123 
150 
180 
153 
153 
153 
154 
153 
126 
153 
125 
127 
127 
127 
126 
126 
126 
125 
127 
127 
100 
100 
99 
99 
99 
98 
98 
180 
181 
180 
153 
181 
181 
154 
154 
154 
182 
182 
155 
155 
155 
154 
127 
183 
183 
156 
155 
155 
155 
128 
128 
128 
VECTORS VELOCITY float 
-0.000000 -2.456424 0.000000 
0.000000 -2.456424 0.000000 
0.000000 -2.456424 0.000000 
0.000000 -2.456424 0.000000 
0.000000 -2.456424 0.000000 
0.000000 -2.456424 0.000000 
0.000000 -2.456424 0.000000 
0.000000 -2.456424 0.000000 
0.000000 -2.456424 0.000000 
0.000000 -2.456424 0.000000 
0.000000 -2.456424 0.000000 
0.000000 -2.456424 0.000000 
0.000000 -2.456424 0.000000 
0.000000 -2.456424 0.000000 
0.000000 -2.456424 0.000000 
0.000000 -2.456424 0.000000 
0.000000 -2.456424 0.000000 
0.000000 -2.456424 0.000000 
-0.000000 -2.456424 0.000000 
-0.000000 -2.456424 0.000000 
0.000000 -2.456424 0.000000 
0.000000 -2.456424 0.000000 
0.000000 -2.456424 0.000000 
0.000000 -2.456424 0.000000 
-0.000000 -2.456424 0.000000 
-0.000000 -2.456424 0.000000 
-0.000000 -2.456424 0.000000 
-0.000000 -2.456424 0.000000 
0.000000 -2.456424 0.000000 
0.000000 -2.456424 0.000000 
0.000000 -2.456424 0.000000 
0.000000 -2.456424 0.000000 
0.000000 -2.456424 0.000000 
0.000000 -2.456424 0.000000 
-0.000000 -2.456424 0.000000 
-0.000000 -2.456424 0.000000 
-0.000000 -2.456424 0.000000 
-0.000000 -2.456424 0.000000 
-0.000000 -2.456424 0.000000 
0.000000 -2.456424 0.000000 
0.000000 -2.456424 0.000000 
0.000000 -2.456424 0.000000 
-0.000000 -2.456424 0.000000 
-0.000000 -2.456424 0.000000 
-0.000000 -2.456424 0.000000 
0.000000 -2.456424 0.000000 
0.000000 -2.456424 0.000000 
0.000000 -2.456424 0.000000 
0.000000 -2.456424 0.000000 
0.000000 -2.456424 0.000000 
-0.000000 -2.456424 0.000000 
-0.000000 -2.456424 0.000000 
0.000000 -2.456424 0.000000 
0.000000 -2.456424 0.000000 
0.000000 -2.456424 0.000000 
0.000000 -2.456424 0.000000 
0.000000 -2.456424 0.000000 
0.000000 -2.456424 0.000000 
0.000000 -2.456424 0.000000 
0.000000 -2.456424 0.000000 
-0.000000 -2.456424 0.000000 
-0.000000 -2.456424 0.000000 
0.000000 -2.456424 0.000000 
-0.000000 -2.456424 0.000000 
-0.000000 -2.456424 0.000000 
-0.000000 -2.456424 0.000000 
0.000000 -2.456424 0.000000 
-0.000000 -2.456424 0.000000 
-0.000000 -2.456424 0.000000 
-0.000000 -2.456424 0.000000 
-0.000000 -2.456424 0.000000 
-0.000000 -2.456424 0.000000 
-0.000000 -2.456424 0.000000 
-0.000000 -2.456424 0.000000 
-0.000000 -2.456424 0.000000 
-0.000000 -2.456424 0.000000 
0.000000 -2.456424 0.000000 
-0.000000 -2.456424 0.000000 
0.000000 -2.456424 0.000000 
0.000000 -2.456424 0.000000 
0.000000 -2.456424 0.000000 
0.000000 -2.456424 0.000000 
-0.000000 -2.456424 0.000000 
0.000000 -2.456424 0.000000 
-0.000000 -2.456424 0.000000 
-0.000000 -2.456424 0.000000 
-0.000000 -2.456424 0.000000 
0.000000 -2.456424 0.000000 
0.000000 -2.456424 0.000000 
0.000000 -2.456424 0.000000 
0.000000 -2.456424 0.000000 
-0.000000 -2.456424 0.000000 
-0.000000 -2.456424 0.000000 
-0.000000 -2.456424 0.000000 
-0.000000 -2.456424 0.000000 
0.000000 -2.456424 0.000000 
0.000000 -2.456424 0.000000 
0.000000 -2.456424 0.000000 
0.000000 -2.456424 0.000000 
-0.000000 -2.456424 0.000000 
-0.000000 -2.456424 0.000000 
-0.000000 -2.456424 0.000000 
-0.000000 -2.456424 0.000000 
0.000000 -2.456424 0.000000 
-0.000000 -2.456424 0.000000 
0.000000 -2.456424 0.000000 
0.000000 -2.456424 0.000000 
0.000000 -2.456424 0.000000 
0.000000 -2.456424 0.000000 
0.000000 -2.456424 0.000000 
0.000000 -2.456424 0.000000 
0.000000 -2.456424 0.000000 
0.000000 -2.456424 0.000000 
-0.000000 -2.456424 0.000000 
-0.000000 -2.456424 0.000000 
-0.000000 -2.456424 0.000000 
-0.000000 -2.456424 0.000000 
-0.000000 -2.456424 0.000000 
-0.000000 -2.456424 0.000000 
-0.000000 -2.456424 0.000000 
0.000000 -2.456424 0.000000 
0.000000 -2.456424 0.000000 
-0.000000 -2.456424 0.000000 
-0.000000 -2.456424 0.000000 
-0.000000 -2.456424 0.000000 
-0.000000 -2.456424 0.000000 
-0.000000 -2.456424 0.000000 
-0.000000 -2.456424 0.000000 
-0.000000 -2.456424 0.000000 
0.000000 -2.456424 0.000000 
0.000000 -2.456424 0.000000 
-0.000000 -2.456424 0.000000 
-0.000000 -2.456424 0.000000 
-0.000000 -2.456424 0.000000 
-0.000000 -2.456424 0.000000 
-0.000000 -2.456424 0.000000 
-0.000000 -2.456424 0.000000 
-0.000000 -2.456424 0.000000 
-0.000000 -2.456424 0.000000 
0.000000 -2.456424 0.000000 
0.000000 -2.456424 0.000000 
0.000000 -2.456424 0.000000 
-0.000000 -2.456424 0.000000 
0.000000 -2.456424 0.000000 
-0.000000 -2.456424 0.000000 
0.000000 -2.456424 0.000000 
-0.000000 -2.456424 0.000000 
-0.000000 -2.456424 0.000000 
-0.000000 -2.456424 0.000000 
-0.000000 -2.456424 0.000000 
-0.000000 -2.456424 0.000000 
-0.000000 -2.456424 0.000000 
-0.000000 -2.456424 0.000000 
-0.000000 -2.456424 0.000000 
-0.000000 -2.456424 0.000000 
-0.000000 -2.456424 0.000000 
-0.000000 -2.456424 0.000000 
-0.000000 -2.456424 0.000000 
0.000000 -2.456424 0.000000 
0.000000 -2.456424 0.000000 
0.000000 -2.456424 0.000000 
-0.000000 -2.456424 0.000000 
-0.000000 -2.456424 0.000000 
0.000000 -2.456424 0.000000 
0.000000 -2.456424 0.000000 
0.000000 -2.456424 0.000000 
0.000000 -2.456424 0.000000 
0.000000 -2.456424 0.000000 
-0.000000 -2.456424 0.000000 
0.000000 -2.456424 0.000000 
-0.000000 -2.456424 0.000000 
0.000000 -2.456424 0.000000 
-0.000000 -2.456424 0.000000 
0.000000 -2.456424 0.000000 
0.000000 -2.456424 0.000000 
TENSORS STRESS float 
0.000000 -0.000000 0.000000 
0.000000 0.000000 0.000000 
0.000000 0.000000 0.000000 

-0.000000 0.000000 0.000000 
0.000000 -0.000000 0.000000 
0.000000 0.000000 0.000000 

-0.000000 0.000000 0.000000 
0.000000 -0.000000 0.000000 
0.000000 0.000000 0.000000 

-0.000000 -0.000000 0.000000 
0.000000 -0.000000 0.000000 
0.000000 0.000000 0.000000 

0.000000 0.000000 0.000000 
0.000000 0.000000 0.000000 
0.000000 0.000000 0.000000 

-0.000000 0.000000 0.000000 
0.000000 -0.000000 0.000000 
0.000000 0.000000 0.000000 

0.000000 -0.000000 0.000000 
0.000000 0.000000 0.000000 
0.000000 0.000000 0.000000 

-0.000000 0.000000 0.000000 
0.000000 -0.000000 0.000000 
0.000000 0.000000 0.000000 

-0.000000 -0.000000 0.000000 
0.000000 -0.000000 0.000000 
0.000000 0.000000 0.000000 

-0.000000 0.000000 0.000000 
0.000000 -0.000000 0.000000 
0.000000 0.000000 0.000000 

-0.000000 0.000000 0.000000 
0.000000 -0.000000 0.000000 
0.000000 0.000000 0.000000 
