# vtk DataFile Version 3.0 
vtk output 
ASCII 
DATASET UNSTRUCTURED_GRID 
POINTS 175 float 
-0.026061 -0.103923 0.000000 
-0.106992 -0.035867 0.000000 
-0.054870 -0.044100 0.000000 
-0.028809 0.001784 0.000000 
-0.186430 0.028208 0.000000 
-0.137056 0.025682 0.000000 
-0.114311 0.079329 0.000000 
-0.058186 0.063664 0.000000 
-0.029377 0.103841 0.000000 
-0.265318 0.091364 0.000000 
-0.217198 0.090564 0.000000 
-0.196633 0.147861 0.000000 
-0.143120 0.139152 0.000000 
-0.116563 0.186421 0.000000 
-0.058945 0.166775 0.000000 
-0.029568 0.204895 0.000000 
-0.344206 0.154520 0.000000 
-0.296791 0.154527 0.000000 
-0.278030 0.214470 0.000000 
-0.225992 0.208603 0.000000 
-0.201664 0.260720 0.000000 
-0.145749 0.247246 0.000000 
-0.117890 0.291589 0.000000 
-0.059328 0.268883 0.000000 
-0.029759 0.305949 0.000000 
-0.058559 -0.144673 0.000000 
-0.162226 -0.165516 0.000000 
-0.123292 -0.129898 0.000000 
-0.142917 -0.080915 0.000000 
-0.261851 -0.187673 0.000000 
-0.229092 -0.150645 0.000000 
-0.256854 -0.099414 0.000000 
-0.209613 -0.065301 0.000000 
-0.223062 -0.017727 0.000000 
-0.360414 -0.209973 0.000000 
-0.329787 -0.172850 0.000000 
-0.361761 -0.121048 0.000000 
-0.321587 -0.084639 0.000000 
-0.341985 -0.034405 0.000000 
-0.290702 -0.001606 0.000000 
-0.302189 0.045129 0.000000 
-0.458977 -0.232273 0.000000 
-0.429420 -0.195198 0.000000 
-0.464588 -0.143156 0.000000 
-0.427556 -0.106129 0.000000 
-0.453135 -0.054614 0.000000 
-0.407738 -0.019299 0.000000 
-0.425037 0.030129 0.000000 
-0.370772 0.061758 0.000000 
-0.381315 0.107986 0.000000 
-0.046960 -0.195489 0.000000 
-0.095301 -0.289535 0.000000 
-0.098873 -0.236887 0.000000 
-0.149405 -0.221690 0.000000 
-0.140093 -0.381239 0.000000 
-0.148617 -0.332540 0.000000 
-0.205981 -0.322303 0.000000 
-0.203197 -0.264100 0.000000 
-0.248777 -0.244953 0.000000 
-0.184111 -0.472202 0.000000 
-0.194039 -0.425111 0.000000 
-0.254475 -0.417812 0.000000 
-0.257893 -0.363702 0.000000 
-0.309886 -0.348329 0.000000 
-0.303554 -0.287784 0.000000 
-0.347255 -0.267626 0.000000 
-0.228129 -0.563166 0.000000 
-0.238687 -0.516942 0.000000 
-0.301302 -0.511989 0.000000 
-0.307162 -0.459951 0.000000 
-0.363386 -0.447830 0.000000 
-0.362692 -0.390318 0.000000 
-0.412122 -0.373025 0.000000 
-0.403017 -0.310878 0.000000 
-0.445733 -0.290300 0.000000 
-0.000000 -0.218104 0.000000 
0.043388 -0.314534 0.000000 
-0.000000 -0.284502 0.000000 
-0.043388 -0.314534 0.000000 
0.087158 -0.406731 0.000000 
0.043769 -0.383032 0.000000 
-0.000000 -0.421498 0.000000 
-0.043769 -0.383032 0.000000 
-0.087158 -0.406731 0.000000 
0.130831 -0.497861 0.000000 
0.087824 -0.476262 0.000000 
0.044436 -0.518961 0.000000 
-0.000000 -0.487896 0.000000 
-0.044436 -0.518961 0.000000 
-0.087824 -0.476262 0.000000 
-0.130831 -0.497861 0.000000 
0.174505 -0.588990 0.000000 
0.131782 -0.568424 0.000000 
0.088871 -0.614291 0.000000 
0.044532 -0.586427 0.000000 
-0.000000 -0.622827 0.000000 
-0.044532 -0.586427 0.000000 
-0.088871 -0.614291 0.000000 
-0.131782 -0.568424 0.000000 
-0.174505 -0.588990 0.000000 
0.046960 -0.195489 0.000000 
0.149405 -0.221690 0.000000 
0.098873 -0.236887 0.000000 
0.095301 -0.289535 0.000000 
0.248777 -0.244953 0.000000 
0.203197 -0.264100 0.000000 
0.205981 -0.322303 0.000000 
0.148617 -0.332540 0.000000 
0.140093 -0.381239 0.000000 
0.347255 -0.267626 0.000000 
0.303554 -0.287784 0.000000 
0.309886 -0.348329 0.000000 
0.257893 -0.363702 0.000000 
0.254475 -0.417812 0.000000 
0.194039 -0.425111 0.000000 
0.184111 -0.472202 0.000000 
0.445733 -0.290300 0.000000 
0.403017 -0.310878 0.000000 
0.412122 -0.373025 0.000000 
0.362692 -0.390318 0.000000 
0.363386 -0.447830 0.000000 
0.307162 -0.459951 0.000000 
0.301302 -0.511989 0.000000 
0.238687 -0.516942 0.000000 
0.228129 -0.563166 0.000000 
0.058559 -0.144673 0.000000 
0.142917 -0.080915 0.000000 
0.123292 -0.129898 0.000000 
0.162226 -0.165516 0.000000 
0.223062 -0.017727 0.000000 
0.209613 -0.065301 0.000000 
0.256854 -0.099414 0.000000 
0.229092 -0.150645 0.000000 
0.261851 -0.187673 0.000000 
0.302189 0.045129 0.000000 
0.290702 -0.001606 0.000000 
0.341985 -0.034405 0.000000 
0.321587 -0.084639 0.000000 
0.361761 -0.121048 0.000000 
0.329787 -0.172850 0.000000 
0.360414 -0.209973 0.000000 
0.381315 0.107986 0.000000 
0.370772 0.061758 0.000000 
0.425037 0.030129 0.000000 
0.407738 -0.019299 0.000000 
0.453135 -0.054614 0.000000 
0.427556 -0.106129 0.000000 
0.464588 -0.143156 0.000000 
0.429420 -0.195198 0.000000 
0.458977 -0.232273 0.000000 
0.026061 -0.103923 0.000000 
0.028809 0.001784 0.000000 
0.054870 -0.044100 0.000000 
0.106992 -0.035867 0.000000 
0.029377 0.103841 0.000000 
0.058186 0.063664 0.000000 
0.114311 0.079329 0.000000 
0.137056 0.025682 0.000000 
0.186430 0.028208 0.000000 
0.029568 0.204895 0.000000 
0.058945 0.166775 0.000000 
0.116563 0.186421 0.000000 
0.143120 0.139152 0.000000 
0.196633 0.147861 0.000000 
0.217198 0.090564 0.000000 
0.265318 0.091364 0.000000 
0.029759 0.305949 0.000000 
0.059328 0.268883 0.000000 
0.117890 0.291589 0.000000 
0.145749 0.247246 0.000000 
0.201664 0.260720 0.000000 
0.225992 0.208603 0.000000 
0.278030 0.214470 0.000000 
0.296791 0.154527 0.000000 
0.344206 0.154520 0.000000 
CELLS 175 350 
1 0 
1 1 
1 2 
1 3 
1 4 
1 5 
1 6 
1 7 
1 8 
1 9 
1 10 
1 11 
1 12 
1 13 
1 14 
1 15 
1 16 
1 17 
1 18 
1 19 
1 20 
1 21 
1 22 
1 23 
1 24 
1 25 
1 26 
1 27 
1 28 
1 29 
1 30 
1 31 
1 32 
1 33 
1 34 
1 35 
1 36 
1 37 
1 38 
1 39 
1 40 
1 41 
1 42 
1 43 
1 44 
1 45 
1 46 
1 47 
1 48 
1 49 
1 50 
1 51 
1 52 
1 53 
1 54 
1 55 
1 56 
1 57 
1 58 
1 59 
1 60 
1 61 
1 62 
1 63 
1 64 
1 65 
1 66 
1 67 
1 68 
1 69 
1 70 
1 71 
1 72 
1 73 
1 74 
1 75 
1 76 
1 77 
1 78 
1 79 
1 80 
1 81 
1 82 
1 83 
1 84 
1 85 
1 86 
1 87 
1 88 
1 89 
1 90 
1 91 
1 92 
1 93 
1 94 
1 95 
1 96 
1 97 
1 98 
1 99 
1 100 
1 101 
1 102 
1 103 
1 104 
1 105 
1 106 
1 107 
1 108 
1 109 
1 110 
1 111 
1 112 
1 113 
1 114 
1 115 
1 116 
1 117 
1 118 
1 119 
1 120 
1 121 
1 122 
1 123 
1 124 
1 125 
1 126 
1 127 
1 128 
1 129 
1 130 
1 131 
1 132 
1 133 
1 134 
1 135 
1 136 
1 137 
1 138 
1 139 
1 140 
1 141 
1 142 
1 143 
1 144 
1 145 
1 146 
1 147 
1 148 
1 149 
1 150 
1 151 
1 152 
1 153 
1 154 
1 155 
1 156 
1 157 
1 158 
1 159 
1 160 
1 161 
1 162 
1 163 
1 164 
1 165 
1 166 
1 167 
1 168 
1 169 
1 170 
1 171 
1 172 
1 173 
1 174 
CELL_TYPES 175 
1 
1 
1 
1 
1 
1 
1 
1 
1 
1 
1 
1 
1 
1 
1 
1 
1 
1 
1 
1 
1 
1 
1 
1 
1 
1 
1 
1 
1 
1 
1 
1 
1 
1 
1 
1 
1 
1 
1 
1 
1 
1 
1 
1 
1 
1 
1 
1 
1 
1 
1 
1 
1 
1 
1 
1 
1 
1 
1 
1 
1 
1 
1 
1 
1 
1 
1 
1 
1 
1 
1 
1 
1 
1 
1 
1 
1 
1 
1 
1 
1 
1 
1 
1 
1 
1 
1 
1 
1 
1 
1 
1 
1 
1 
1 
1 
1 
1 
1 
1 
1 
1 
1 
1 
1 
1 
1 
1 
1 
1 
1 
1 
1 
1 
1 
1 
1 
1 
1 
1 
1 
1 
1 
1 
1 
1 
1 
1 
1 
1 
1 
1 
1 
1 
1 
1 
1 
1 
1 
1 
1 
1 
1 
1 
1 
1 
1 
1 
1 
1 
1 
1 
1 
1 
1 
1 
1 
1 
1 
1 
1 
1 
1 
1 
1 
1 
1 
1 
1 
1 
1 
1 
1 
1 
1 
POINT_DATA 175 
VECTORS X_GC float 
-0.026061 -0.103923 0.000000 
-0.106992 -0.035867 0.000000 
-0.054870 -0.044100 0.000000 
-0.028809 0.001784 0.000000 
-0.186430 0.028208 0.000000 
-0.137056 0.025682 0.000000 
-0.114311 0.079329 0.000000 
-0.058186 0.063664 0.000000 
-0.029377 0.103841 0.000000 
-0.265318 0.091364 0.000000 
-0.217198 0.090564 0.000000 
-0.196633 0.147861 0.000000 
-0.143120 0.139152 0.000000 
-0.116563 0.186421 0.000000 
-0.058945 0.166775 0.000000 
-0.029568 0.204895 0.000000 
-0.344206 0.154520 0.000000 
-0.296791 0.154527 0.000000 
-0.278030 0.214470 0.000000 
-0.225992 0.208603 0.000000 
-0.201664 0.260720 0.000000 
-0.145749 0.247246 0.000000 
-0.117890 0.291589 0.000000 
-0.059328 0.268883 0.000000 
-0.029759 0.305949 0.000000 
-0.058559 -0.144673 0.000000 
-0.162226 -0.165516 0.000000 
-0.123292 -0.129898 0.000000 
-0.142917 -0.080915 0.000000 
-0.261851 -0.187673 0.000000 
-0.229092 -0.150645 0.000000 
-0.256854 -0.099414 0.000000 
-0.209613 -0.065301 0.000000 
-0.223062 -0.017727 0.000000 
-0.360414 -0.209973 0.000000 
-0.329787 -0.172850 0.000000 
-0.361761 -0.121048 0.000000 
-0.321587 -0.084639 0.000000 
-0.341985 -0.034405 0.000000 
-0.290702 -0.001606 0.000000 
-0.302189 0.045129 0.000000 
-0.458977 -0.232273 0.000000 
-0.429420 -0.195198 0.000000 
-0.464588 -0.143156 0.000000 
-0.427556 -0.106129 0.000000 
-0.453135 -0.054614 0.000000 
-0.407738 -0.019299 0.000000 
-0.425037 0.030129 0.000000 
-0.370772 0.061758 0.000000 
-0.381315 0.107986 0.000000 
-0.046960 -0.195489 0.000000 
-0.095301 -0.289535 0.000000 
-0.098873 -0.236887 0.000000 
-0.149405 -0.221690 0.000000 
-0.140093 -0.381239 0.000000 
-0.148617 -0.332540 0.000000 
-0.205981 -0.322303 0.000000 
-0.203197 -0.264100 0.000000 
-0.248777 -0.244953 0.000000 
-0.184111 -0.472202 0.000000 
-0.194039 -0.425111 0.000000 
-0.254475 -0.417812 0.000000 
-0.257893 -0.363702 0.000000 
-0.309886 -0.348329 0.000000 
-0.303554 -0.287784 0.000000 
-0.347255 -0.267626 0.000000 
-0.228129 -0.563166 0.000000 
-0.238687 -0.516942 0.000000 
-0.301302 -0.511989 0.000000 
-0.307162 -0.459951 0.000000 
-0.363386 -0.447830 0.000000 
-0.362692 -0.390318 0.000000 
-0.412122 -0.373025 0.000000 
-0.403017 -0.310878 0.000000 
-0.445733 -0.290300 0.000000 
-0.000000 -0.218104 0.000000 
0.043388 -0.314534 0.000000 
-0.000000 -0.284502 0.000000 
-0.043388 -0.314534 0.000000 
0.087158 -0.406731 0.000000 
0.043769 -0.383032 0.000000 
-0.000000 -0.421498 0.000000 
-0.043769 -0.383032 0.000000 
-0.087158 -0.406731 0.000000 
0.130831 -0.497861 0.000000 
0.087824 -0.476262 0.000000 
0.044436 -0.518961 0.000000 
-0.000000 -0.487896 0.000000 
-0.044436 -0.518961 0.000000 
-0.087824 -0.476262 0.000000 
-0.130831 -0.497861 0.000000 
0.174505 -0.588990 0.000000 
0.131782 -0.568424 0.000000 
0.088871 -0.614291 0.000000 
0.044532 -0.586427 0.000000 
-0.000000 -0.622827 0.000000 
-0.044532 -0.586427 0.000000 
-0.088871 -0.614291 0.000000 
-0.131782 -0.568424 0.000000 
-0.174505 -0.588990 0.000000 
0.046960 -0.195489 0.000000 
0.149405 -0.221690 0.000000 
0.098873 -0.236887 0.000000 
0.095301 -0.289535 0.000000 
0.248777 -0.244953 0.000000 
0.203197 -0.264100 0.000000 
0.205981 -0.322303 0.000000 
0.148617 -0.332540 0.000000 
0.140093 -0.381239 0.000000 
0.347255 -0.267626 0.000000 
0.303554 -0.287784 0.000000 
0.309886 -0.348329 0.000000 
0.257893 -0.363702 0.000000 
0.254475 -0.417812 0.000000 
0.194039 -0.425111 0.000000 
0.184111 -0.472202 0.000000 
0.445733 -0.290300 0.000000 
0.403017 -0.310878 0.000000 
0.412122 -0.373025 0.000000 
0.362692 -0.390318 0.000000 
0.363386 -0.447830 0.000000 
0.307162 -0.459951 0.000000 
0.301302 -0.511989 0.000000 
0.238687 -0.516942 0.000000 
0.228129 -0.563166 0.000000 
0.058559 -0.144673 0.000000 
0.142917 -0.080915 0.000000 
0.123292 -0.129898 0.000000 
0.162226 -0.165516 0.000000 
0.223062 -0.017727 0.000000 
0.209613 -0.065301 0.000000 
0.256854 -0.099414 0.000000 
0.229092 -0.150645 0.000000 
0.261851 -0.187673 0.000000 
0.302189 0.045129 0.000000 
0.290702 -0.001606 0.000000 
0.341985 -0.034405 0.000000 
0.321587 -0.084639 0.000000 
0.361761 -0.121048 0.000000 
0.329787 -0.172850 0.000000 
0.360414 -0.209973 0.000000 
0.381315 0.107986 0.000000 
0.370772 0.061758 0.000000 
0.425037 0.030129 0.000000 
0.407738 -0.019299 0.000000 
0.453135 -0.054614 0.000000 
0.427556 -0.106129 0.000000 
0.464588 -0.143156 0.000000 
0.429420 -0.195198 0.000000 
0.458977 -0.232273 0.000000 
0.026061 -0.103923 0.000000 
0.028809 0.001784 0.000000 
0.054870 -0.044100 0.000000 
0.106992 -0.035867 0.000000 
0.029377 0.103841 0.000000 
0.058186 0.063664 0.000000 
0.114311 0.079329 0.000000 
0.137056 0.025682 0.000000 
0.186430 0.028208 0.000000 
0.029568 0.204895 0.000000 
0.058945 0.166775 0.000000 
0.116563 0.186421 0.000000 
0.143120 0.139152 0.000000 
0.196633 0.147861 0.000000 
0.217198 0.090564 0.000000 
0.265318 0.091364 0.000000 
0.029759 0.305949 0.000000 
0.059328 0.268883 0.000000 
0.117890 0.291589 0.000000 
0.145749 0.247246 0.000000 
0.201664 0.260720 0.000000 
0.225992 0.208603 0.000000 
0.278030 0.214470 0.000000 
0.296791 0.154527 0.000000 
0.344206 0.154520 0.000000 
VECTORS X_EC float 
0.338794 -0.097043 0.000000 
-0.609100 0.984209 0.000000 
0.713312 -0.904650 0.000000 
0.374519 0.475920 0.000000 
0.423588 0.119190 0.000000 
-0.218274 0.153293 0.000000 
-0.513962 -0.570946 0.000000 
0.756418 -0.359459 0.000000 
0.381900 -0.901852 0.000000 
-0.550868 -0.733413 0.000000 
0.823577 -0.722618 0.000000 
0.556234 0.503878 0.000000 
-0.139443 0.621447 0.000000 
-0.484677 -0.016678 0.000000 
0.766286 0.248538 0.000000 
0.384386 -0.266083 0.000000 
0.474677 0.413983 0.000000 
-0.141715 0.413887 0.000000 
-0.385608 -0.395341 0.000000 
0.937896 -0.316146 0.000000 
0.621631 0.980274 0.000000 
-0.105264 -0.837827 0.000000 
-0.467428 0.563547 0.000000 
0.771260 0.870076 0.000000 
0.386873 0.369686 0.000000 
0.761262 0.453092 0.000000 
0.108942 0.734468 0.000000 
-0.397202 0.253629 0.000000 
-0.142083 -0.407646 0.000000 
-0.595936 -0.966421 0.000000 
0.978194 0.533713 0.000000 
-0.660903 -0.157912 0.000000 
0.724964 -0.618432 0.000000 
0.899809 0.739320 0.000000 
0.685384 -0.665369 0.000000 
0.287229 0.833473 0.000000 
0.702895 0.134144 0.000000 
0.180633 -0.357374 0.000000 
0.445811 0.964466 0.000000 
-0.220880 0.521680 0.000000 
-0.071546 -0.109245 0.000000 
-0.033296 -0.364317 0.000000 
-0.417537 -0.864826 0.000000 
0.039645 0.432611 0.000000 
-0.441768 -0.067260 0.000000 
-0.109248 -0.762710 0.000000 
-0.699407 0.760534 0.000000 
-0.474522 0.093255 0.000000 
0.820030 -0.333739 0.000000 
0.957100 -0.957810 0.000000 
0.610485 -0.860902 0.000000 
-0.761092 0.408718 0.000000 
-0.714655 -0.302020 0.000000 
-0.057734 -0.507187 0.000000 
-0.178789 -0.353278 0.000000 
-0.067979 0.989296 0.000000 
0.677748 0.851092 0.000000 
0.641556 0.065347 0.000000 
-0.765897 -0.193132 0.000000 
0.393446 0.874731 0.000000 
0.522510 0.239001 0.000000 
-0.691820 0.140457 0.000000 
-0.647393 -0.590026 0.000000 
0.028512 -0.797553 0.000000 
-0.053800 0.385087 0.000000 
0.514316 0.112956 0.000000 
0.965681 0.102740 0.000000 
-0.897068 -0.521289 0.000000 
-0.083078 -0.588142 0.000000 
-0.006893 0.709334 0.000000 
0.724017 0.545701 0.000000 
0.714996 -0.230703 0.000000 
-0.642413 -0.464160 0.000000 
-0.760780 0.696859 0.000000 
-0.205471 0.419044 0.000000 
0.000000 -0.555600 0.000000 
-0.564049 0.746213 0.000000 
0.000000 0.340777 0.000000 
0.564049 0.746213 0.000000 
0.866949 -0.009132 0.000000 
-0.569003 -0.329063 0.000000 
0.000000 0.190225 0.000000 
0.569003 -0.329063 0.000000 
-0.866949 -0.009132 0.000000 
0.299194 -0.778882 0.000000 
0.858290 0.929534 0.000000 
-0.577662 -0.494020 0.000000 
0.000000 -0.913398 0.000000 
0.577662 -0.494020 0.000000 
-0.858290 0.929534 0.000000 
-0.299194 -0.778882 0.000000 
-0.268560 0.451368 0.000000 
0.286830 0.173727 0.000000 
0.844677 0.792925 0.000000 
-0.578910 0.416762 0.000000 
0.000000 0.908166 0.000000 
0.578910 0.416762 0.000000 
-0.844677 0.792925 0.000000 
-0.286830 0.173727 0.000000 
0.268560 0.451368 0.000000 
-0.610485 -0.860902 0.000000 
0.057734 -0.507187 0.000000 
0.714655 -0.302020 0.000000 
0.761092 0.408718 0.000000 
0.765897 -0.193131 0.000000 
-0.641556 0.065347 0.000000 
-0.677748 0.851092 0.000000 
0.067979 0.989296 0.000000 
0.178789 -0.353278 0.000000 
-0.514316 0.112956 0.000000 
0.053800 0.385087 0.000000 
-0.028512 -0.797552 0.000000 
0.647393 -0.590026 0.000000 
0.691820 0.140457 0.000000 
-0.522510 0.239001 0.000000 
-0.393446 0.874731 0.000000 
0.205471 0.419044 0.000000 
0.760780 0.696859 0.000000 
0.642413 -0.464160 0.000000 
-0.714996 -0.230703 0.000000 
-0.724017 0.545701 0.000000 
0.006894 0.709334 0.000000 
0.083078 -0.588142 0.000000 
0.897068 -0.521289 0.000000 
-0.965681 0.102740 0.000000 
-0.761262 0.453092 0.000000 
0.142083 -0.407646 0.000000 
0.397202 0.253629 0.000000 
-0.108942 0.734468 0.000000 
-0.899809 0.739320 0.000000 
-0.724964 -0.618432 0.000000 
0.660903 -0.157912 0.000000 
-0.978194 0.533713 0.000000 
0.595936 -0.966421 0.000000 
0.071546 -0.109245 0.000000 
0.220880 0.521680 0.000000 
-0.445811 0.964466 0.000000 
-0.180633 -0.357374 0.000000 
-0.702895 0.134144 0.000000 
-0.287229 0.833473 0.000000 
-0.685384 -0.665369 0.000000 
-0.957100 -0.957810 0.000000 
-0.820030 -0.333739 0.000000 
0.474522 0.093255 0.000000 
0.699407 0.760534 0.000000 
0.109248 -0.762710 0.000000 
0.441768 -0.067260 0.000000 
-0.039645 0.432611 0.000000 
0.417537 -0.864826 0.000000 
0.033296 -0.364316 0.000000 
-0.338794 -0.097043 0.000000 
-0.374519 0.475920 0.000000 
-0.713312 -0.904650 0.000000 
0.609100 0.984209 0.000000 
-0.381900 -0.901852 0.000000 
-0.756418 -0.359459 0.000000 
0.513962 -0.570946 0.000000 
0.218274 0.153293 0.000000 
-0.423588 0.119190 0.000000 
-0.384386 -0.266083 0.000000 
-0.766286 0.248538 0.000000 
0.484677 -0.016678 0.000000 
0.139443 0.621447 0.000000 
-0.556234 0.503878 0.000000 
-0.823577 -0.722618 0.000000 
0.550868 -0.733413 0.000000 
-0.386873 0.369686 0.000000 
-0.771260 0.870076 0.000000 
0.467428 0.563547 0.000000 
0.105264 -0.837827 0.000000 
-0.621631 0.980274 0.000000 
-0.937896 -0.316146 0.000000 
0.385608 -0.395341 0.000000 
0.141715 0.413887 0.000000 
-0.474677 0.413983 0.000000 
CELL_DATA 175 
SCALARS MASS float 
LOOKUP_TABLE default 
0.781831 
0.864274 
0.946717 
0.864274 
0.881307 
0.921110 
0.858535 
0.921110 
0.881307 
0.887046 
0.910001 
0.869829 
0.915556 
0.869829 
0.910001 
0.887046 
0.892784 
0.915740 
0.892784 
0.927218 
0.892784 
0.927218 
0.892784 
0.915740 
0.892784 
0.781831 
0.864274 
0.946717 
0.864274 
0.881307 
0.921110 
0.858535 
0.921110 
0.881307 
0.887046 
0.910001 
0.869829 
0.915556 
0.869829 
0.910001 
0.887046 
0.892784 
0.915740 
0.892784 
0.927218 
0.892784 
0.927218 
0.892784 
0.915740 
0.892784 
0.781831 
0.864274 
0.946717 
0.864274 
0.881307 
0.921110 
0.858535 
0.921110 
0.881307 
0.887046 
0.910001 
0.869829 
0.915556 
0.869829 
0.910001 
0.887046 
0.892784 
0.915740 
0.892784 
0.927218 
0.892784 
0.927218 
0.892784 
0.915740 
0.892784 
0.781831 
0.864274 
0.946717 
0.864274 
0.881307 
0.921110 
0.858535 
0.921110 
0.881307 
0.887046 
0.910001 
0.869829 
0.915556 
0.869829 
0.910001 
0.887046 
0.892784 
0.915740 
0.892784 
0.927218 
0.892784 
0.927218 
0.892784 
0.915740 
0.892784 
0.781831 
0.864274 
0.946717 
0.864274 
0.881307 
0.921110 
0.858535 
0.921110 
0.881307 
0.887046 
0.910001 
0.869829 
0.915556 
0.869829 
0.910001 
0.887046 
0.892784 
0.915740 
0.892784 
0.927218 
0.892784 
0.927218 
0.892784 
0.915740 
0.892784 
0.781831 
0.864274 
0.946717 
0.864274 
0.881307 
0.921110 
0.858535 
0.921110 
0.881307 
0.887046 
0.910001 
0.869829 
0.915556 
0.869829 
0.910001 
0.887046 
0.892784 
0.915740 
0.892784 
0.927218 
0.892784 
0.927218 
0.892784 
0.915740 
0.892784 
0.781831 
0.864274 
0.946717 
0.864274 
0.881307 
0.921110 
0.858535 
0.921110 
0.881307 
0.887046 
0.910001 
0.869829 
0.915556 
0.869829 
0.910001 
0.887046 
0.892784 
0.915740 
0.892784 
0.927218 
0.892784 
0.927218 
0.892784 
0.915740 
0.892784 
SCALARS MASS float 
LOOKUP_TABLE default 
0.781831 
0.864274 
0.946717 
0.864274 
0.881307 
0.921110 
0.858535 
0.921110 
0.881307 
0.887046 
0.910001 
0.869829 
0.915556 
0.869829 
0.910001 
0.887046 
0.892784 
0.915740 
0.892784 
0.927218 
0.892784 
0.927218 
0.892784 
0.915740 
0.892784 
0.781831 
0.864274 
0.946717 
0.864274 
0.881307 
0.921110 
0.858535 
0.921110 
0.881307 
0.887046 
0.910001 
0.869829 
0.915556 
0.869829 
0.910001 
0.887046 
0.892784 
0.915740 
0.892784 
0.927218 
0.892784 
0.927218 
0.892784 
0.915740 
0.892784 
0.781831 
0.864274 
0.946717 
0.864274 
0.881307 
0.921110 
0.858535 
0.921110 
0.881307 
0.887046 
0.910001 
0.869829 
0.915556 
0.869829 
0.910001 
0.887046 
0.892784 
0.915740 
0.892784 
0.927218 
0.892784 
0.927218 
0.892784 
0.915740 
0.892784 
0.781831 
0.864274 
0.946717 
0.864274 
0.881307 
0.921110 
0.858535 
0.921110 
0.881307 
0.887046 
0.910001 
0.869829 
0.915556 
0.869829 
0.910001 
0.887046 
0.892784 
0.915740 
0.892784 
0.927218 
0.892784 
0.927218 
0.892784 
0.915740 
0.892784 
0.781831 
0.864274 
0.946717 
0.864274 
0.881307 
0.921110 
0.858535 
0.921110 
0.881307 
0.887046 
0.910001 
0.869829 
0.915556 
0.869829 
0.910001 
0.887046 
0.892784 
0.915740 
0.892784 
0.927218 
0.892784 
0.927218 
0.892784 
0.915740 
0.892784 
0.781831 
0.864274 
0.946717 
0.864274 
0.881307 
0.921110 
0.858535 
0.921110 
0.881307 
0.887046 
0.910001 
0.869829 
0.915556 
0.869829 
0.910001 
0.887046 
0.892784 
0.915740 
0.892784 
0.927218 
0.892784 
0.927218 
0.892784 
0.915740 
0.892784 
0.781831 
0.864274 
0.946717 
0.864274 
0.881307 
0.921110 
0.858535 
0.921110 
0.881307 
0.887046 
0.910001 
0.869829 
0.915556 
0.869829 
0.910001 
0.887046 
0.892784 
0.915740 
0.892784 
0.927218 
0.892784 
0.927218 
0.892784 
0.915740 
0.892784 
SCALARS DENSITY float 
LOOKUP_TABLE default 
200.000000 
200.000000 
200.000000 
200.000000 
200.000000 
200.000000 
200.000000 
200.000000 
200.000000 
200.000000 
200.000000 
200.000000 
200.000000 
200.000000 
200.000000 
200.000000 
200.000000 
200.000000 
200.000000 
200.000000 
200.000000 
200.000000 
200.000000 
200.000000 
200.000000 
200.000000 
200.000000 
200.000000 
200.000000 
200.000000 
200.000000 
200.000000 
200.000000 
200.000000 
200.000000 
200.000000 
200.000000 
200.000000 
200.000000 
200.000000 
200.000000 
200.000000 
200.000000 
200.000000 
200.000000 
200.000000 
200.000000 
200.000000 
200.000000 
200.000000 
200.000000 
200.000000 
200.000000 
200.000000 
200.000000 
200.000000 
200.000000 
200.000000 
200.000000 
200.000000 
200.000000 
200.000000 
200.000000 
200.000000 
200.000000 
200.000000 
200.000000 
200.000000 
200.000000 
200.000000 
200.000000 
200.000000 
200.000000 
200.000000 
200.000000 
200.000000 
200.000000 
200.000000 
200.000000 
200.000000 
200.000000 
200.000000 
200.000000 
200.000000 
200.000000 
200.000000 
200.000000 
200.000000 
200.000000 
200.000000 
200.000000 
200.000000 
200.000000 
200.000000 
200.000000 
200.000000 
200.000000 
200.000000 
200.000000 
200.000000 
200.000000 
200.000000 
200.000000 
200.000000 
200.000000 
200.000000 
200.000000 
200.000000 
200.000000 
200.000000 
200.000000 
200.000000 
200.000000 
200.000000 
200.000000 
200.000000 
200.000000 
200.000000 
200.000000 
200.000000 
200.000000 
200.000000 
200.000000 
200.000000 
200.000000 
200.000000 
200.000000 
200.000000 
200.000000 
200.000000 
200.000000 
200.000000 
200.000000 
200.000000 
200.000000 
200.000000 
200.000000 
200.000000 
200.000000 
200.000000 
200.000000 
200.000000 
200.000000 
200.000000 
200.000000 
200.000000 
200.000000 
200.000000 
200.000000 
200.000000 
200.000000 
200.000000 
200.000000 
200.000000 
200.000000 
200.000000 
200.000000 
200.000000 
200.000000 
200.000000 
200.000000 
200.000000 
200.000000 
200.000000 
200.000000 
200.000000 
200.000000 
200.000000 
200.000000 
200.000000 
200.000000 
200.000000 
200.000000 
200.000000 
200.000000 
SCALARS ELEM_i float 
LOOKUP_TABLE default 
181 
209 
181 
182 
209 
209 
209 
182 
182 
236 
209 
210 
210 
210 
183 
183 
237 
237 
237 
210 
211 
210 
211 
184 
184 
181 
208 
208 
208 
234 
208 
235 
208 
209 
234 
235 
235 
235 
236 
236 
236 
261 
261 
262 
262 
262 
263 
263 
236 
236 
180 
207 
207 
207 
206 
207 
207 
207 
234 
206 
206 
233 
233 
233 
234 
234 
205 
232 
232 
233 
233 
233 
260 
261 
261 
180 
180 
180 
180 
152 
179 
179 
179 
206 
151 
152 
178 
178 
178 
206 
205 
151 
151 
151 
178 
178 
178 
205 
205 
205 
180 
153 
153 
153 
126 
153 
153 
153 
152 
126 
126 
125 
125 
125 
152 
152 
99 
99 
98 
125 
125 
125 
124 
124 
151 
181 
154 
154 
154 
155 
154 
127 
154 
126 
128 
128 
128 
127 
127 
127 
126 
128 
128 
101 
101 
100 
100 
100 
99 
99 
181 
182 
181 
155 
182 
182 
155 
155 
155 
183 
183 
156 
156 
156 
155 
128 
184 
184 
157 
156 
157 
156 
129 
129 
129 
VECTORS VELOCITY float 
0.000000 -1.755990 0.000000 
0.000000 -1.755990 0.000000 
0.000000 -1.755990 0.000000 
0.000000 -1.755990 0.000000 
-0.000000 -1.755990 0.000000 
-0.000000 -1.755990 0.000000 
-0.000000 -1.755990 0.000000 
-0.000000 -1.755990 0.000000 
-0.000000 -1.755990 0.000000 
-0.000000 -1.755990 0.000000 
-0.000000 -1.755990 0.000000 
-0.000000 -1.755990 0.000000 
-0.000000 -1.755990 0.000000 
-0.000000 -1.755990 0.000000 
-0.000000 -1.755990 0.000000 
0.000000 -1.755990 0.000000 
0.000000 -1.755990 0.000000 
0.000000 -1.755990 0.000000 
-0.000000 -1.755990 0.000000 
-0.000000 -1.755990 0.000000 
-0.000000 -1.755990 0.000000 
-0.000000 -1.755990 0.000000 
-0.000000 -1.755990 0.000000 
0.000000 -1.755990 0.000000 
-0.000000 -1.755990 0.000000 
-0.000000 -1.755990 0.000000 
0.000000 -1.755990 0.000000 
0.000000 -1.755990 0.000000 
0.000000 -1.755990 0.000000 
0.000000 -1.755990 0.000000 
0.000000 -1.755990 0.000000 
-0.000000 -1.755990 0.000000 
-0.000000 -1.755990 0.000000 
-0.000000 -1.755990 0.000000 
-0.000000 -1.755990 0.000000 
-0.000000 -1.755990 0.000000 
-0.000000 -1.755990 0.000000 
-0.000000 -1.755990 0.000000 
0.000000 -1.755990 0.000000 
-0.000000 -1.755990 0.000000 
-0.000000 -1.755990 0.000000 
0.000000 -1.755990 0.000000 
-0.000000 -1.755990 0.000000 
0.000000 -1.755990 0.000000 
0.000000 -1.755990 0.000000 
0.000000 -1.755990 0.000000 
0.000000 -1.755990 0.000000 
0.000000 -1.755990 0.000000 
0.000000 -1.755990 0.000000 
0.000000 -1.755990 0.000000 
-0.000000 -1.755990 0.000000 
0.000000 -1.755990 0.000000 
0.000000 -1.755990 0.000000 
0.000000 -1.755990 0.000000 
0.000000 -1.755990 0.000000 
0.000000 -1.755990 0.000000 
0.000000 -1.755990 0.000000 
0.000000 -1.755990 0.000000 
0.000000 -1.755990 0.000000 
-0.000000 -1.755990 0.000000 
0.000000 -1.755990 0.000000 
-0.000000 -1.755990 0.000000 
0.000000 -1.755990 0.000000 
-0.000000 -1.755990 0.000000 
-0.000000 -1.755990 0.000000 
-0.000000 -1.755990 0.000000 
-0.000000 -1.755990 0.000000 
-0.000000 -1.755990 0.000000 
0.000000 -1.755990 0.000000 
-0.000000 -1.755990 0.000000 
-0.000000 -1.755990 0.000000 
-0.000000 -1.755990 0.000000 
-0.000000 -1.755990 0.000000 
-0.000000 -1.755990 0.000000 
0.000000 -1.755990 0.000000 
-0.000000 -1.755990 0.000000 
0.000000 -1.755990 0.000000 
0.000000 -1.755990 0.000000 
0.000000 -1.755990 0.000000 
-0.000000 -1.755990 0.000000 
-0.000000 -1.755990 0.000000 
0.000000 -1.755990 0.000000 
0.000000 -1.755990 0.000000 
0.000000 -1.755990 0.000000 
0.000000 -1.755990 0.000000 
-0.000000 -1.755990 0.000000 
-0.000000 -1.755990 0.000000 
0.000000 -1.755990 0.000000 
0.000000 -1.755990 0.000000 
0.000000 -1.755990 0.000000 
0.000000 -1.755990 0.000000 
0.000000 -1.755990 0.000000 
0.000000 -1.755990 0.000000 
-0.000000 -1.755990 0.000000 
-0.000000 -1.755990 0.000000 
-0.000000 -1.755990 0.000000 
-0.000000 -1.755990 0.000000 
0.000000 -1.755990 0.000000 
-0.000000 -1.755990 0.000000 
-0.000000 -1.755990 0.000000 
0.000000 -1.755990 0.000000 
-0.000000 -1.755990 0.000000 
0.000000 -1.755990 0.000000 
-0.000000 -1.755990 0.000000 
-0.000000 -1.755990 0.000000 
-0.000000 -1.755990 0.000000 
-0.000000 -1.755990 0.000000 
-0.000000 -1.755990 0.000000 
-0.000000 -1.755990 0.000000 
-0.000000 -1.755990 0.000000 
-0.000000 -1.755990 0.000000 
-0.000000 -1.755990 0.000000 
0.000000 -1.755990 0.000000 
0.000000 -1.755990 0.000000 
0.000000 -1.755990 0.000000 
0.000000 -1.755990 0.000000 
0.000000 -1.755990 0.000000 
0.000000 -1.755990 0.000000 
-0.000000 -1.755990 0.000000 
-0.000000 -1.755990 0.000000 
-0.000000 -1.755990 0.000000 
-0.000000 -1.755990 0.000000 
-0.000000 -1.755990 0.000000 
0.000000 -1.755990 0.000000 
0.000000 -1.755990 0.000000 
0.000000 -1.755990 0.000000 
0.000000 -1.755990 0.000000 
0.000000 -1.755990 0.000000 
-0.000000 -1.755990 0.000000 
0.000000 -1.755990 0.000000 
0.000000 -1.755990 0.000000 
0.000000 -1.755990 0.000000 
-0.000000 -1.755990 0.000000 
-0.000000 -1.755990 0.000000 
-0.000000 -1.755990 0.000000 
-0.000000 -1.755990 0.000000 
-0.000000 -1.755990 0.000000 
-0.000000 -1.755990 0.000000 
-0.000000 -1.755990 0.000000 
-0.000000 -1.755990 0.000000 
-0.000000 -1.755990 0.000000 
-0.000000 -1.755990 0.000000 
-0.000000 -1.755990 0.000000 
-0.000000 -1.755990 0.000000 
-0.000000 -1.755990 0.000000 
0.000000 -1.755990 0.000000 
-0.000000 -1.755990 0.000000 
0.000000 -1.755990 0.000000 
-0.000000 -1.755990 0.000000 
0.000000 -1.755990 0.000000 
0.000000 -1.755990 0.000000 
0.000000 -1.755990 0.000000 
0.000000 -1.755990 0.000000 
-0.000000 -1.755990 0.000000 
0.000000 -1.755990 0.000000 
0.000000 -1.755990 0.000000 
0.000000 -1.755990 0.000000 
0.000000 -1.755990 0.000000 
0.000000 -1.755990 0.000000 
0.000000 -1.755990 0.000000 
0.000000 -1.755990 0.000000 
0.000000 -1.755990 0.000000 
0.000000 -1.755990 0.000000 
0.000000 -1.755990 0.000000 
0.000000 -1.755990 0.000000 
0.000000 -1.755990 0.000000 
0.000000 -1.755990 0.000000 
-0.000000 -1.755990 0.000000 
0.000000 -1.755990 0.000000 
-0.000000 -1.755990 0.000000 
0.000000 -1.755990 0.000000 
0.000000 -1.755990 0.000000 
0.000000 -1.755990 0.000000 
0.000000 -1.755990 0.000000 
-0.000000 -1.755990 0.000000 
TENSORS STRESS float 
0.000000 -0.000000 0.000000 
0.000000 -0.000000 0.000000 
0.000000 0.000000 0.000000 

0.000000 -0.000000 0.000000 
0.000000 0.000000 0.000000 
0.000000 0.000000 0.000000 

0.000000 0.000000 0.000000 
0.000000 0.000000 0.000000 
0.000000 0.000000 0.000000 

0.000000 0.000000 0.000000 
0.000000 0.000000 0.000000 
0.000000 0.000000 0.000000 

0.000000 -0.000000 0.000000 
0.000000 -0.000000 0.000000 
0.000000 0.000000 0.000000 

0.000000 -0.000000 0.000000 
0.000000 0.000000 0.000000 
0.000000 0.000000 0.000000 

0.000000 -0.000000 0.000000 
0.000000 0.000000 0.000000 
0.000000 0.000000 0.000000 

-0.000000 -0.000000 0.000000 
0.000000 -0.000000 0.000000 
0.000000 0.000000 0.000000 

-0.000000 -0.000000 0.000000 
0.000000 -0.000000 0.000000 
0.000000 0.000000 0.000000 

-0.000000 -0.000000 0.000000 
0.000000 -0.000000 0.000000 
0.000000 0.000000 0.000000 

-0.000000 0.000000 0.000000 
0.000000 -0.000000 0.000000 
0.000000 0.000000 0.000000 

-0.000000 0.000000 0.000000 
0.000000 -0.000000 0.000000 