# vtk DataFile Version 3.0 
vtk output 
ASCII 
DATASET UNSTRUCTURED_GRID 
POINTS 175 float 
-0.026061 -1.954344 0.000000 
-0.106992 -1.886288 0.000000 
-0.054870 -1.894521 0.000000 
-0.028809 -1.848637 0.000000 
-0.186430 -1.822213 0.000000 
-0.137056 -1.824739 0.000000 
-0.114311 -1.771092 0.000000 
-0.058186 -1.786757 0.000000 
-0.029377 -1.746580 0.000000 
-0.265318 -1.759057 0.000000 
-0.217198 -1.759857 0.000000 
-0.196633 -1.702560 0.000000 
-0.143120 -1.711269 0.000000 
-0.116563 -1.664000 0.000000 
-0.058945 -1.683646 0.000000 
-0.029568 -1.645526 0.000000 
-0.344206 -1.695901 0.000000 
-0.296791 -1.695894 0.000000 
-0.278030 -1.635951 0.000000 
-0.225992 -1.641818 0.000000 
-0.201664 -1.589701 0.000000 
-0.145749 -1.603175 0.000000 
-0.117890 -1.558832 0.000000 
-0.059328 -1.581538 0.000000 
-0.029759 -1.544472 0.000000 
-0.058559 -1.995095 0.000000 
-0.162226 -2.015937 0.000000 
-0.123292 -1.980320 0.000000 
-0.142917 -1.931336 0.000000 
-0.261851 -2.038094 0.000000 
-0.229092 -2.001066 0.000000 
-0.256854 -1.949835 0.000000 
-0.209613 -1.915722 0.000000 
-0.223062 -1.868148 0.000000 
-0.360414 -2.060394 0.000000 
-0.329787 -2.023271 0.000000 
-0.361761 -1.971469 0.000000 
-0.321587 -1.935060 0.000000 
-0.341985 -1.884826 0.000000 
-0.290702 -1.852027 0.000000 
-0.302189 -1.805292 0.000000 
-0.458977 -2.082694 0.000000 
-0.429420 -2.045619 0.000000 
-0.464588 -1.993577 0.000000 
-0.427556 -1.956550 0.000000 
-0.453135 -1.905035 0.000000 
-0.407738 -1.869720 0.000000 
-0.425037 -1.820292 0.000000 
-0.370772 -1.788663 0.000000 
-0.381315 -1.742435 0.000000 
-0.046960 -2.045910 0.000000 
-0.095301 -2.139956 0.000000 
-0.098873 -2.087308 0.000000 
-0.149405 -2.072111 0.000000 
-0.140093 -2.231660 0.000000 
-0.148617 -2.182961 0.000000 
-0.205981 -2.172724 0.000000 
-0.203197 -2.114521 0.000000 
-0.248777 -2.095374 0.000000 
-0.184111 -2.322623 0.000000 
-0.194039 -2.275532 0.000000 
-0.254475 -2.268233 0.000000 
-0.257893 -2.214123 0.000000 
-0.309886 -2.198751 0.000000 
-0.303554 -2.138205 0.000000 
-0.347255 -2.118047 0.000000 
-0.228129 -2.413587 0.000000 
-0.238687 -2.367363 0.000000 
-0.301302 -2.362411 0.000000 
-0.307162 -2.310372 0.000000 
-0.363386 -2.298251 0.000000 
-0.362692 -2.240739 0.000000 
-0.412122 -2.223446 0.000000 
-0.403017 -2.161300 0.000000 
-0.445733 -2.140721 0.000000 
-0.000000 -2.068525 0.000000 
0.043388 -2.164955 0.000000 
-0.000000 -2.134923 0.000000 
-0.043388 -2.164955 0.000000 
0.087158 -2.257152 0.000000 
0.043769 -2.233453 0.000000 
-0.000000 -2.271919 0.000000 
-0.043769 -2.233453 0.000000 
-0.087158 -2.257152 0.000000 
0.130831 -2.348282 0.000000 
0.087824 -2.326683 0.000000 
0.044436 -2.369383 0.000000 
-0.000000 -2.338317 0.000000 
-0.044436 -2.369383 0.000000 
-0.087824 -2.326683 0.000000 
-0.130831 -2.348282 0.000000 
0.174505 -2.439411 0.000000 
0.131782 -2.418845 0.000000 
0.088871 -2.464712 0.000000 
0.044532 -2.436848 0.000000 
-0.000000 -2.473248 0.000000 
-0.044532 -2.436848 0.000000 
-0.088871 -2.464712 0.000000 
-0.131782 -2.418845 0.000000 
-0.174505 -2.439411 0.000000 
0.046960 -2.045910 0.000000 
0.149405 -2.072111 0.000000 
0.098873 -2.087308 0.000000 
0.095301 -2.139956 0.000000 
0.248777 -2.095374 0.000000 
0.203197 -2.114521 0.000000 
0.205981 -2.172724 0.000000 
0.148617 -2.182961 0.000000 
0.140093 -2.231660 0.000000 
0.347255 -2.118047 0.000000 
0.303554 -2.138205 0.000000 
0.309886 -2.198751 0.000000 
0.257893 -2.214123 0.000000 
0.254475 -2.268233 0.000000 
0.194039 -2.275532 0.000000 
0.184111 -2.322623 0.000000 
0.445733 -2.140721 0.000000 
0.403017 -2.161300 0.000000 
0.412122 -2.223446 0.000000 
0.362692 -2.240739 0.000000 
0.363386 -2.298251 0.000000 
0.307162 -2.310372 0.000000 
0.301302 -2.362411 0.000000 
0.238687 -2.367363 0.000000 
0.228129 -2.413587 0.000000 
0.058559 -1.995095 0.000000 
0.142917 -1.931336 0.000000 
0.123292 -1.980320 0.000000 
0.162226 -2.015937 0.000000 
0.223062 -1.868148 0.000000 
0.209613 -1.915722 0.000000 
0.256854 -1.949835 0.000000 
0.229092 -2.001066 0.000000 
0.261851 -2.038094 0.000000 
0.302189 -1.805292 0.000000 
0.290702 -1.852027 0.000000 
0.341985 -1.884826 0.000000 
0.321587 -1.935060 0.000000 
0.361761 -1.971469 0.000000 
0.329787 -2.023271 0.000000 
0.360414 -2.060394 0.000000 
0.381315 -1.742435 0.000000 
0.370772 -1.788663 0.000000 
0.425037 -1.820292 0.000000 
0.407738 -1.869720 0.000000 
0.453135 -1.905035 0.000000 
0.427556 -1.956550 0.000000 
0.464588 -1.993577 0.000000 
0.429420 -2.045619 0.000000 
0.458977 -2.082694 0.000000 
0.026061 -1.954344 0.000000 
0.028809 -1.848637 0.000000 
0.054870 -1.894521 0.000000 
0.106992 -1.886288 0.000000 
0.029377 -1.746580 0.000000 
0.058186 -1.786757 0.000000 
0.114311 -1.771092 0.000000 
0.137056 -1.824739 0.000000 
0.186430 -1.822213 0.000000 
0.029568 -1.645526 0.000000 
0.058945 -1.683646 0.000000 
0.116563 -1.664000 0.000000 
0.143120 -1.711269 0.000000 
0.196633 -1.702560 0.000000 
0.217198 -1.759857 0.000000 
0.265318 -1.759057 0.000000 
0.029759 -1.544472 0.000000 
0.059328 -1.581538 0.000000 
0.117890 -1.558832 0.000000 
0.145749 -1.603175 0.000000 
0.201664 -1.589701 0.000000 
0.225992 -1.641818 0.000000 
0.278030 -1.635951 0.000000 
0.296791 -1.695894 0.000000 
0.344206 -1.695901 0.000000 
CELLS 175 350 
1 0 
1 1 
1 2 
1 3 
1 4 
1 5 
1 6 
1 7 
1 8 
1 9 
1 10 
1 11 
1 12 
1 13 
1 14 
1 15 
1 16 
1 17 
1 18 
1 19 
1 20 
1 21 
1 22 
1 23 
1 24 
1 25 
1 26 
1 27 
1 28 
1 29 
1 30 
1 31 
1 32 
1 33 
1 34 
1 35 
1 36 
1 37 
1 38 
1 39 
1 40 
1 41 
1 42 
1 43 
1 44 
1 45 
1 46 
1 47 
1 48 
1 49 
1 50 
1 51 
1 52 
1 53 
1 54 
1 55 
1 56 
1 57 
1 58 
1 59 
1 60 
1 61 
1 62 
1 63 
1 64 
1 65 
1 66 
1 67 
1 68 
1 69 
1 70 
1 71 
1 72 
1 73 
1 74 
1 75 
1 76 
1 77 
1 78 
1 79 
1 80 
1 81 
1 82 
1 83 
1 84 
1 85 
1 86 
1 87 
1 88 
1 89 
1 90 
1 91 
1 92 
1 93 
1 94 
1 95 
1 96 
1 97 
1 98 
1 99 
1 100 
1 101 
1 102 
1 103 
1 104 
1 105 
1 106 
1 107 
1 108 
1 109 
1 110 
1 111 
1 112 
1 113 
1 114 
1 115 
1 116 
1 117 
1 118 
1 119 
1 120 
1 121 
1 122 
1 123 
1 124 
1 125 
1 126 
1 127 
1 128 
1 129 
1 130 
1 131 
1 132 
1 133 
1 134 
1 135 
1 136 
1 137 
1 138 
1 139 
1 140 
1 141 
1 142 
1 143 
1 144 
1 145 
1 146 
1 147 
1 148 
1 149 
1 150 
1 151 
1 152 
1 153 
1 154 
1 155 
1 156 
1 157 
1 158 
1 159 
1 160 
1 161 
1 162 
1 163 
1 164 
1 165 
1 166 
1 167 
1 168 
1 169 
1 170 
1 171 
1 172 
1 173 
1 174 
CELL_TYPES 175 
1 
1 
1 
1 
1 
1 
1 
1 
1 
1 
1 
1 
1 
1 
1 
1 
1 
1 
1 
1 
1 
1 
1 
1 
1 
1 
1 
1 
1 
1 
1 
1 
1 
1 
1 
1 
1 
1 
1 
1 
1 
1 
1 
1 
1 
1 
1 
1 
1 
1 
1 
1 
1 
1 
1 
1 
1 
1 
1 
1 
1 
1 
1 
1 
1 
1 
1 
1 
1 
1 
1 
1 
1 
1 
1 
1 
1 
1 
1 
1 
1 
1 
1 
1 
1 
1 
1 
1 
1 
1 
1 
1 
1 
1 
1 
1 
1 
1 
1 
1 
1 
1 
1 
1 
1 
1 
1 
1 
1 
1 
1 
1 
1 
1 
1 
1 
1 
1 
1 
1 
1 
1 
1 
1 
1 
1 
1 
1 
1 
1 
1 
1 
1 
1 
1 
1 
1 
1 
1 
1 
1 
1 
1 
1 
1 
1 
1 
1 
1 
1 
1 
1 
1 
1 
1 
1 
1 
1 
1 
1 
1 
1 
1 
1 
1 
1 
1 
1 
1 
1 
1 
1 
1 
1 
1 
POINT_DATA 175 
VECTORS X_GC float 
-0.026061 -1.954344 0.000000 
-0.106992 -1.886288 0.000000 
-0.054870 -1.894521 0.000000 
-0.028809 -1.848637 0.000000 
-0.186430 -1.822213 0.000000 
-0.137056 -1.824739 0.000000 
-0.114311 -1.771092 0.000000 
-0.058186 -1.786757 0.000000 
-0.029377 -1.746580 0.000000 
-0.265318 -1.759057 0.000000 
-0.217198 -1.759857 0.000000 
-0.196633 -1.702560 0.000000 
-0.143120 -1.711269 0.000000 
-0.116563 -1.664000 0.000000 
-0.058945 -1.683646 0.000000 
-0.029568 -1.645526 0.000000 
-0.344206 -1.695901 0.000000 
-0.296791 -1.695894 0.000000 
-0.278030 -1.635951 0.000000 
-0.225992 -1.641818 0.000000 
-0.201664 -1.589701 0.000000 
-0.145749 -1.603175 0.000000 
-0.117890 -1.558832 0.000000 
-0.059328 -1.581538 0.000000 
-0.029759 -1.544472 0.000000 
-0.058559 -1.995095 0.000000 
-0.162226 -2.015937 0.000000 
-0.123292 -1.980320 0.000000 
-0.142917 -1.931336 0.000000 
-0.261851 -2.038094 0.000000 
-0.229092 -2.001066 0.000000 
-0.256854 -1.949835 0.000000 
-0.209613 -1.915722 0.000000 
-0.223062 -1.868148 0.000000 
-0.360414 -2.060394 0.000000 
-0.329787 -2.023271 0.000000 
-0.361761 -1.971469 0.000000 
-0.321587 -1.935060 0.000000 
-0.341985 -1.884826 0.000000 
-0.290702 -1.852027 0.000000 
-0.302189 -1.805292 0.000000 
-0.458977 -2.082694 0.000000 
-0.429420 -2.045619 0.000000 
-0.464588 -1.993577 0.000000 
-0.427556 -1.956550 0.000000 
-0.453135 -1.905035 0.000000 
-0.407738 -1.869720 0.000000 
-0.425037 -1.820292 0.000000 
-0.370772 -1.788663 0.000000 
-0.381315 -1.742435 0.000000 
-0.046960 -2.045910 0.000000 
-0.095301 -2.139956 0.000000 
-0.098873 -2.087308 0.000000 
-0.149405 -2.072111 0.000000 
-0.140093 -2.231660 0.000000 
-0.148617 -2.182961 0.000000 
-0.205981 -2.172724 0.000000 
-0.203197 -2.114521 0.000000 
-0.248777 -2.095374 0.000000 
-0.184111 -2.322623 0.000000 
-0.194039 -2.275532 0.000000 
-0.254475 -2.268233 0.000000 
-0.257893 -2.214123 0.000000 
-0.309886 -2.198751 0.000000 
-0.303554 -2.138205 0.000000 
-0.347255 -2.118047 0.000000 
-0.228129 -2.413587 0.000000 
-0.238687 -2.367363 0.000000 
-0.301302 -2.362411 0.000000 
-0.307162 -2.310372 0.000000 
-0.363386 -2.298251 0.000000 
-0.362692 -2.240739 0.000000 
-0.412122 -2.223446 0.000000 
-0.403017 -2.161300 0.000000 
-0.445733 -2.140721 0.000000 
-0.000000 -2.068525 0.000000 
0.043388 -2.164955 0.000000 
-0.000000 -2.134923 0.000000 
-0.043388 -2.164955 0.000000 
0.087158 -2.257152 0.000000 
0.043769 -2.233453 0.000000 
-0.000000 -2.271919 0.000000 
-0.043769 -2.233453 0.000000 
-0.087158 -2.257152 0.000000 
0.130831 -2.348282 0.000000 
0.087824 -2.326683 0.000000 
0.044436 -2.369383 0.000000 
-0.000000 -2.338317 0.000000 
-0.044436 -2.369383 0.000000 
-0.087824 -2.326683 0.000000 
-0.130831 -2.348282 0.000000 
0.174505 -2.439411 0.000000 
0.131782 -2.418845 0.000000 
0.088871 -2.464712 0.000000 
0.044532 -2.436848 0.000000 
-0.000000 -2.473248 0.000000 
-0.044532 -2.436848 0.000000 
-0.088871 -2.464712 0.000000 
-0.131782 -2.418845 0.000000 
-0.174505 -2.439411 0.000000 
0.046960 -2.045910 0.000000 
0.149405 -2.072111 0.000000 
0.098873 -2.087308 0.000000 
0.095301 -2.139956 0.000000 
0.248777 -2.095374 0.000000 
0.203197 -2.114521 0.000000 
0.205981 -2.172724 0.000000 
0.148617 -2.182961 0.000000 
0.140093 -2.231660 0.000000 
0.347255 -2.118047 0.000000 
0.303554 -2.138205 0.000000 
0.309886 -2.198751 0.000000 
0.257893 -2.214123 0.000000 
0.254475 -2.268233 0.000000 
0.194039 -2.275532 0.000000 
0.184111 -2.322623 0.000000 
0.445733 -2.140721 0.000000 
0.403017 -2.161300 0.000000 
0.412122 -2.223446 0.000000 
0.362692 -2.240739 0.000000 
0.363386 -2.298251 0.000000 
0.307162 -2.310372 0.000000 
0.301302 -2.362411 0.000000 
0.238687 -2.367363 0.000000 
0.228129 -2.413587 0.000000 
0.058559 -1.995095 0.000000 
0.142917 -1.931336 0.000000 
0.123292 -1.980320 0.000000 
0.162226 -2.015937 0.000000 
0.223062 -1.868148 0.000000 
0.209613 -1.915722 0.000000 
0.256854 -1.949835 0.000000 
0.229092 -2.001066 0.000000 
0.261851 -2.038094 0.000000 
0.302189 -1.805292 0.000000 
0.290702 -1.852027 0.000000 
0.341985 -1.884826 0.000000 
0.321587 -1.935060 0.000000 
0.361761 -1.971469 0.000000 
0.329787 -2.023271 0.000000 
0.360414 -2.060394 0.000000 
0.381315 -1.742435 0.000000 
0.370772 -1.788663 0.000000 
0.425037 -1.820292 0.000000 
0.407738 -1.869720 0.000000 
0.453135 -1.905035 0.000000 
0.427556 -1.956550 0.000000 
0.464588 -1.993577 0.000000 
0.429420 -2.045619 0.000000 
0.458977 -2.082694 0.000000 
0.026061 -1.954344 0.000000 
0.028809 -1.848637 0.000000 
0.054870 -1.894521 0.000000 
0.106992 -1.886288 0.000000 
0.029377 -1.746580 0.000000 
0.058186 -1.786757 0.000000 
0.114311 -1.771092 0.000000 
0.137056 -1.824739 0.000000 
0.186430 -1.822213 0.000000 
0.029568 -1.645526 0.000000 
0.058945 -1.683646 0.000000 
0.116563 -1.664000 0.000000 
0.143120 -1.711269 0.000000 
0.196633 -1.702560 0.000000 
0.217198 -1.759857 0.000000 
0.265318 -1.759057 0.000000 
0.029759 -1.544472 0.000000 
0.059328 -1.581538 0.000000 
0.117890 -1.558832 0.000000 
0.145749 -1.603175 0.000000 
0.201664 -1.589701 0.000000 
0.225992 -1.641818 0.000000 
0.278030 -1.635951 0.000000 
0.296791 -1.695894 0.000000 
0.344206 -1.695901 0.000000 
VECTORS X_EC float 
0.338794 0.883642 0.000000 
-0.609100 -0.035107 0.000000 
0.713312 0.076034 0.000000 
0.374519 -0.543395 0.000000 
0.423588 -0.900126 0.000000 
-0.218274 -0.866022 0.000000 
-0.513962 0.409739 0.000000 
0.756418 0.621225 0.000000 
0.381900 0.078832 0.000000 
-0.550868 0.247271 0.000000 
0.823577 0.258066 0.000000 
0.556234 -0.515438 0.000000 
-0.139443 -0.397869 0.000000 
-0.484677 0.964006 0.000000 
0.766286 -0.770778 0.000000 
0.384386 0.714601 0.000000 
0.474677 -0.605332 0.000000 
-0.141715 -0.605429 0.000000 
-0.385608 0.585343 0.000000 
0.937896 0.664539 0.000000 
0.621631 -0.039041 0.000000 
-0.105264 0.142858 0.000000 
-0.467428 -0.455769 0.000000 
0.771260 -0.149240 0.000000 
0.386873 -0.649629 0.000000 
0.761262 -0.566224 0.000000 
0.108942 -0.284847 0.000000 
-0.397202 -0.765686 0.000000 
-0.142083 0.573038 0.000000 
-0.595936 0.014264 0.000000 
0.978194 -0.485602 0.000000 
-0.660903 0.822773 0.000000 
0.724964 0.362253 0.000000 
0.899809 -0.279996 0.000000 
0.685384 0.315316 0.000000 
0.287229 -0.185843 0.000000 
0.702895 -0.885171 0.000000 
0.180633 0.623310 0.000000 
0.445811 -0.054850 0.000000 
-0.220880 -0.497636 0.000000 
-0.071546 0.871439 0.000000 
-0.033296 0.616368 0.000000 
-0.417537 0.115858 0.000000 
0.039645 -0.586704 0.000000 
-0.441768 0.913425 0.000000 
-0.109248 0.217974 0.000000 
-0.699407 -0.258782 0.000000 
-0.474522 -0.926061 0.000000 
0.820030 0.646946 0.000000 
0.957100 0.022874 0.000000 
0.610485 0.119783 0.000000 
-0.761092 -0.610598 0.000000 
-0.714655 0.678664 0.000000 
-0.057734 0.473497 0.000000 
-0.178789 0.627406 0.000000 
-0.067979 -0.030020 0.000000 
0.677748 -0.168223 0.000000 
0.641556 -0.953969 0.000000 
-0.765897 0.787553 0.000000 
0.393446 -0.144585 0.000000 
0.522510 -0.780315 0.000000 
-0.691820 -0.878859 0.000000 
-0.647393 0.390658 0.000000 
0.028512 0.183132 0.000000 
-0.053800 -0.634229 0.000000 
0.514316 -0.906359 0.000000 
0.965681 -0.916576 0.000000 
-0.897068 0.459395 0.000000 
-0.083078 0.392542 0.000000 
-0.006893 -0.309982 0.000000 
0.724017 -0.473615 0.000000 
0.714996 0.749981 0.000000 
-0.642413 0.516524 0.000000 
-0.760780 -0.322456 0.000000 
-0.205471 -0.600272 0.000000 
0.000000 0.425084 0.000000 
-0.564049 -0.273103 0.000000 
0.000000 -0.678539 0.000000 
0.564049 -0.273103 0.000000 
0.866949 0.971552 0.000000 
-0.569003 0.651621 0.000000 
0.000000 -0.829091 0.000000 
0.569003 0.651621 0.000000 
-0.866949 0.971552 0.000000 
0.299194 0.201802 0.000000 
0.858290 -0.089781 0.000000 
-0.577662 0.486664 0.000000 
0.000000 0.067286 0.000000 
0.577662 0.486664 0.000000 
-0.858290 -0.089781 0.000000 
-0.299194 0.201802 0.000000 
-0.268560 -0.567948 0.000000 
0.286830 -0.845589 0.000000 
0.844677 -0.226391 0.000000 
-0.578910 -0.602554 0.000000 
0.000000 -0.111150 0.000000 
0.578910 -0.602554 0.000000 
-0.844677 -0.226391 0.000000 
-0.286830 -0.845589 0.000000 
0.268560 -0.567948 0.000000 
-0.610485 0.119783 0.000000 
0.057734 0.473497 0.000000 
0.714655 0.678664 0.000000 
0.761092 -0.610598 0.000000 
0.765897 0.787553 0.000000 
-0.641556 -0.953969 0.000000 
-0.677748 -0.168223 0.000000 
0.067979 -0.030020 0.000000 
0.178789 0.627406 0.000000 
-0.514316 -0.906359 0.000000 
0.053800 -0.634229 0.000000 
-0.028512 0.183132 0.000000 
0.647393 0.390658 0.000000 
0.691820 -0.878859 0.000000 
-0.522510 -0.780315 0.000000 
-0.393446 -0.144585 0.000000 
0.205471 -0.600272 0.000000 
0.760780 -0.322456 0.000000 
0.642413 0.516524 0.000000 
-0.714996 0.749981 0.000000 
-0.724017 -0.473615 0.000000 
0.006894 -0.309982 0.000000 
0.083078 0.392542 0.000000 
0.897068 0.459395 0.000000 
-0.965681 -0.916576 0.000000 
-0.761262 -0.566224 0.000000 
0.142083 0.573038 0.000000 
0.397202 -0.765686 0.000000 
-0.108942 -0.284847 0.000000 
-0.899809 -0.279996 0.000000 
-0.724964 0.362253 0.000000 
0.660903 0.822773 0.000000 
-0.978194 -0.485602 0.000000 
0.595936 0.014264 0.000000 
0.071546 0.871439 0.000000 
0.220880 -0.497636 0.000000 
-0.445811 -0.054850 0.000000 
-0.180633 0.623310 0.000000 
-0.702895 -0.885171 0.000000 
-0.287229 -0.185843 0.000000 
-0.685384 0.315316 0.000000 
-0.957100 0.022874 0.000000 
-0.820030 0.646946 0.000000 
0.474522 -0.926061 0.000000 
0.699407 -0.258782 0.000000 
0.109248 0.217974 0.000000 
0.441768 0.913425 0.000000 
-0.039645 -0.586704 0.000000 
0.417537 0.115858 0.000000 
0.033296 0.616368 0.000000 
-0.338794 0.883642 0.000000 
-0.374519 -0.543395 0.000000 
-0.713312 0.076034 0.000000 
0.609100 -0.035107 0.000000 
-0.381900 0.078832 0.000000 
-0.756418 0.621225 0.000000 
0.513962 0.409739 0.000000 
0.218274 -0.866022 0.000000 
-0.423588 -0.900126 0.000000 
-0.384386 0.714601 0.000000 
-0.766286 -0.770778 0.000000 
0.484677 0.964006 0.000000 
0.139443 -0.397869 0.000000 
-0.556234 -0.515438 0.000000 
-0.823577 0.258066 0.000000 
0.550868 0.247271 0.000000 
-0.386873 -0.649629 0.000000 
-0.771260 -0.149240 0.000000 
0.467428 -0.455769 0.000000 
0.105264 0.142858 0.000000 
-0.621631 -0.039041 0.000000 
-0.937896 0.664539 0.000000 
0.385608 0.585343 0.000000 
0.141715 -0.605429 0.000000 
-0.474677 -0.605332 0.000000 
CELL_DATA 175 
SCALARS MASS float 
LOOKUP_TABLE default 
0.781831 
0.864274 
0.946717 
0.864274 
0.881307 
0.921110 
0.858535 
0.921110 
0.881307 
0.887046 
0.910001 
0.869829 
0.915556 
0.869829 
0.910001 
0.887046 
0.892784 
0.915740 
0.892784 
0.927218 
0.892784 
0.927218 
0.892784 
0.915740 
0.892784 
0.781831 
0.864274 
0.946717 
0.864274 
0.881307 
0.921110 
0.858535 
0.921110 
0.881307 
0.887046 
0.910001 
0.869829 
0.915556 
0.869829 
0.910001 
0.887046 
0.892784 
0.915740 
0.892784 
0.927218 
0.892784 
0.927218 
0.892784 
0.915740 
0.892784 
0.781831 
0.864274 
0.946717 
0.864274 
0.881307 
0.921110 
0.858535 
0.921110 
0.881307 
0.887046 
0.910001 
0.869829 
0.915556 
0.869829 
0.910001 
0.887046 
0.892784 
0.915740 
0.892784 
0.927218 
0.892784 
0.927218 
0.892784 
0.915740 
0.892784 
0.781831 
0.864274 
0.946717 
0.864274 
0.881307 
0.921110 
0.858535 
0.921110 
0.881307 
0.887046 
0.910001 
0.869829 
0.915556 
0.869829 
0.910001 
0.887046 
0.892784 
0.915740 
0.892784 
0.927218 
0.892784 
0.927218 
0.892784 
0.915740 
0.892784 
0.781831 
0.864274 
0.946717 
0.864274 
0.881307 
0.921110 
0.858535 
0.921110 
0.881307 
0.887046 
0.910001 
0.869829 
0.915556 
0.869829 
0.910001 
0.887046 
0.892784 
0.915740 
0.892784 
0.927218 
0.892784 
0.927218 
0.892784 
0.915740 
0.892784 
0.781831 
0.864274 
0.946717 
0.864274 
0.881307 
0.921110 
0.858535 
0.921110 
0.881307 
0.887046 
0.910001 
0.869829 
0.915556 
0.869829 
0.910001 
0.887046 
0.892784 
0.915740 
0.892784 
0.927218 
0.892784 
0.927218 
0.892784 
0.915740 
0.892784 
0.781831 
0.864274 
0.946717 
0.864274 
0.881307 
0.921110 
0.858535 
0.921110 
0.881307 
0.887046 
0.910001 
0.869829 
0.915556 
0.869829 
0.910001 
0.887046 
0.892784 
0.915740 
0.892784 
0.927218 
0.892784 
0.927218 
0.892784 
0.915740 
0.892784 
SCALARS MASS float 
LOOKUP_TABLE default 
0.781831 
0.864274 
0.946717 
0.864274 
0.881307 
0.921110 
0.858535 
0.921110 
0.881307 
0.887046 
0.910001 
0.869829 
0.915556 
0.869829 
0.910001 
0.887046 
0.892784 
0.915740 
0.892784 
0.927218 
0.892784 
0.927218 
0.892784 
0.915740 
0.892784 
0.781831 
0.864274 
0.946717 
0.864274 
0.881307 
0.921110 
0.858535 
0.921110 
0.881307 
0.887046 
0.910001 
0.869829 
0.915556 
0.869829 
0.910001 
0.887046 
0.892784 
0.915740 
0.892784 
0.927218 
0.892784 
0.927218 
0.892784 
0.915740 
0.892784 
0.781831 
0.864274 
0.946717 
0.864274 
0.881307 
0.921110 
0.858535 
0.921110 
0.881307 
0.887046 
0.910001 
0.869829 
0.915556 
0.869829 
0.910001 
0.887046 
0.892784 
0.915740 
0.892784 
0.927218 
0.892784 
0.927218 
0.892784 
0.915740 
0.892784 
0.781831 
0.864274 
0.946717 
0.864274 
0.881307 
0.921110 
0.858535 
0.921110 
0.881307 
0.887046 
0.910001 
0.869829 
0.915556 
0.869829 
0.910001 
0.887046 
0.892784 
0.915740 
0.892784 
0.927218 
0.892784 
0.927218 
0.892784 
0.915740 
0.892784 
0.781831 
0.864274 
0.946717 
0.864274 
0.881307 
0.921110 
0.858535 
0.921110 
0.881307 
0.887046 
0.910001 
0.869829 
0.915556 
0.869829 
0.910001 
0.887046 
0.892784 
0.915740 
0.892784 
0.927218 
0.892784 
0.927218 
0.892784 
0.915740 
0.892784 
0.781831 
0.864274 
0.946717 
0.864274 
0.881307 
0.921110 
0.858535 
0.921110 
0.881307 
0.887046 
0.910001 
0.869829 
0.915556 
0.869829 
0.910001 
0.887046 
0.892784 
0.915740 
0.892784 
0.927218 
0.892784 
0.927218 
0.892784 
0.915740 
0.892784 
0.781831 
0.864274 
0.946717 
0.864274 
0.881307 
0.921110 
0.858535 
0.921110 
0.881307 
0.887046 
0.910001 
0.869829 
0.915556 
0.869829 
0.910001 
0.887046 
0.892784 
0.915740 
0.892784 
0.927218 
0.892784 
0.927218 
0.892784 
0.915740 
0.892784 
SCALARS DENSITY float 
LOOKUP_TABLE default 
200.000000 
200.000000 
200.000000 
200.000000 
200.000000 
200.000000 
200.000000 
200.000000 
200.000000 
200.000000 
200.000000 
200.000000 
200.000000 
200.000000 
200.000000 
200.000000 
200.000000 
200.000000 
200.000000 
200.000000 
200.000000 
200.000000 
200.000000 
200.000000 
200.000000 
200.000000 
200.000000 
200.000000 
200.000000 
200.000000 
200.000000 
200.000000 
200.000000 
200.000000 
200.000000 
200.000000 
200.000000 
200.000000 
200.000000 
200.000000 
200.000000 
200.000000 
200.000000 
200.000000 
200.000000 
200.000000 
200.000000 
200.000000 
200.000000 
200.000000 
200.000000 
200.000000 
200.000000 
200.000000 
200.000000 
200.000000 
200.000000 
200.000000 
200.000000 
200.000000 
200.000000 
200.000000 
200.000000 
200.000000 
200.000000 
200.000000 
200.000000 
200.000000 
200.000000 
200.000000 
200.000000 
200.000000 
200.000000 
200.000000 
200.000000 
200.000000 
200.000000 
200.000000 
200.000000 
200.000000 
200.000000 
200.000000 
200.000000 
200.000000 
200.000000 
200.000000 
200.000000 
200.000000 
200.000000 
200.000000 
200.000000 
200.000000 
200.000000 
200.000000 
200.000000 
200.000000 
200.000000 
200.000000 
200.000000 
200.000000 
200.000000 
200.000000 
200.000000 
200.000000 
200.000000 
200.000000 
200.000000 
200.000000 
200.000000 
200.000000 
200.000000 
200.000000 
200.000000 
200.000000 
200.000000 
200.000000 
200.000000 
200.000000 
200.000000 
200.000000 
200.000000 
200.000000 
200.000000 
200.000000 
200.000000 
200.000000 
200.000000 
200.000000 
200.000000 
200.000000 
200.000000 
200.000000 
200.000000 
200.000000 
200.000000 
200.000000 
200.000000 
200.000000 
200.000000 
200.000000 
200.000000 
200.000000 
200.000000 
200.000000 
200.000000 
200.000000 
200.000000 
200.000000 
200.000000 
200.000000 
200.000000 
200.000000 
200.000000 
200.000000 
200.000000 
200.000000 
200.000000 
200.000000 
200.000000 
200.000000 
200.000000 
200.000000 
200.000000 
200.000000 
200.000000 
200.000000 
200.000000 
200.000000 
200.000000 
200.000000 
200.000000 
200.000000 
200.000000 
200.000000 
200.000000 
SCALARS ELEM_i float 
LOOKUP_TABLE default 
169 
196 
169 
169 
196 
196 
197 
170 
170 
224 
197 
197 
197 
198 
170 
171 
224 
224 
225 
198 
198 
198 
198 
171 
171 
168 
195 
195 
196 
222 
195 
223 
196 
196 
222 
222 
222 
223 
223 
223 
224 
249 
249 
249 
250 
250 
250 
250 
224 
224 
168 
194 
195 
195 
194 
194 
194 
194 
222 
193 
193 
220 
221 
221 
221 
221 
192 
220 
220 
220 
220 
221 
248 
248 
248 
168 
167 
167 
167 
140 
167 
166 
167 
194 
139 
139 
166 
166 
166 
193 
193 
138 
138 
138 
165 
165 
165 
192 
192 
192 
168 
141 
141 
140 
114 
140 
140 
140 
140 
113 
113 
113 
113 
112 
139 
139 
86 
86 
86 
113 
112 
112 
112 
112 
138 
168 
142 
141 
141 
142 
142 
115 
141 
114 
116 
115 
115 
115 
114 
114 
114 
116 
116 
88 
88 
88 
88 
87 
87 
87 
169 
169 
169 
142 
170 
170 
143 
142 
142 
171 
170 
144 
143 
143 
143 
116 
171 
171 
144 
144 
144 
144 
117 
116 
116 
VECTORS VELOCITY float 
-0.000000 -6.276438 0.000000 
-0.000000 -6.276438 0.000000 
-0.000000 -6.276438 0.000000 
-0.000000 -6.276438 0.000000 
-0.000000 -6.276438 0.000000 
-0.000000 -6.276438 0.000000 
0.000000 -6.276438 0.000000 
-0.000000 -6.276438 0.000000 
0.000000 -6.276438 0.000000 
0.000000 -6.276438 0.000000 
0.000000 -6.276438 0.000000 
0.000000 -6.276438 0.000000 
0.000000 -6.276438 0.000000 
0.000000 -6.276438 0.000000 
0.000000 -6.276438 0.000000 
0.000000 -6.276438 0.000000 
0.000000 -6.276438 0.000000 
0.000000 -6.276438 0.000000 
0.000000 -6.276438 0.000000 
0.000000 -6.276438 0.000000 
-0.000000 -6.276438 0.000000 
0.000000 -6.276438 0.000000 
0.000000 -6.276438 0.000000 
0.000000 -6.276438 0.000000 
0.000000 -6.276438 0.000000 
-0.000000 -6.276438 0.000000 
0.000000 -6.276438 0.000000 
-0.000000 -6.276438 0.000000 
-0.000000 -6.276438 0.000000 
0.000000 -6.276438 0.000000 
0.000000 -6.276438 0.000000 
0.000000 -6.276438 0.000000 
0.000000 -6.276438 0.000000 
0.000000 -6.276438 0.000000 
-0.000000 -6.276438 0.000000 
-0.000000 -6.276438 0.000000 
-0.000000 -6.276438 0.000000 
0.000000 -6.276438 0.000000 
-0.000000 -6.276438 0.000000 
-0.000000 -6.276438 0.000000 
0.000000 -6.276438 0.000000 
0.000000 -6.276438 0.000000 
-0.000000 -6.276438 0.000000 
0.000000 -6.276438 0.000000 
0.000000 -6.276438 0.000000 
0.000000 -6.276438 0.000000 
0.000000 -6.276438 0.000000 
0.000000 -6.276438 0.000000 
0.000000 -6.276438 0.000000 
0.000000 -6.276438 0.000000 
-0.000000 -6.276438 0.000000 
0.000000 -6.276438 0.000000 
-0.000000 -6.276438 0.000000 
-0.000000 -6.276438 0.000000 
0.000000 -6.276438 0.000000 
0.000000 -6.276438 0.000000 
-0.000000 -6.276438 0.000000 
-0.000000 -6.276438 0.000000 
-0.000000 -6.276438 0.000000 
-0.000000 -6.276438 0.000000 
0.000000 -6.276438 0.000000 
0.000000 -6.276438 0.000000 
0.000000 -6.276438 0.000000 
0.000000 -6.276438 0.000000 
0.000000 -6.276438 0.000000 
-0.000000 -6.276438 0.000000 
-0.000000 -6.276438 0.000000 
-0.000000 -6.276438 0.000000 
-0.000000 -6.276438 0.000000 
-0.000000 -6.276438 0.000000 
-0.000000 -6.276438 0.000000 
0.000000 -6.276438 0.000000 
-0.000000 -6.276438 0.000000 
0.000000 -6.276438 0.000000 
-0.000000 -6.276438 0.000000 
-0.000000 -6.276438 0.000000 
0.000000 -6.276438 0.000000 
0.000000 -6.276438 0.000000 
0.000000 -6.276438 0.000000 
-0.000000 -6.276438 0.000000 
-0.000000 -6.276438 0.000000 
-0.000000 -6.276438 0.000000 
0.000000 -6.276438 0.000000 
0.000000 -6.276438 0.000000 
-0.000000 -6.276438 0.000000 
-0.000000 -6.276438 0.000000 
-0.000000 -6.276438 0.000000 
-0.000000 -6.276438 0.000000 
-0.000000 -6.276438 0.000000 
-0.000000 -6.276438 0.000000 
-0.000000 -6.276438 0.000000 
0.000000 -6.276438 0.000000 
-0.000000 -6.276438 0.000000 
-0.000000 -6.276438 0.000000 
0.000000 -6.276438 0.000000 
-0.000000 -6.276438 0.000000 
0.000000 -6.276438 0.000000 
-0.000000 -6.276438 0.000000 
-0.000000 -6.276438 0.000000 
-0.000000 -6.276438 0.000000 
0.000000 -6.276438 0.000000 
-0.000000 -6.276438 0.000000 
0.000000 -6.276438 0.000000 
-0.000000 -6.276438 0.000000 
-0.000000 -6.276438 0.000000 
-0.000000 -6.276438 0.000000 
-0.000000 -6.276438 0.000000 
-0.000000 -6.276438 0.000000 
-0.000000 -6.276438 0.000000 
-0.000000 -6.276438 0.000000 
0.000000 -6.276438 0.000000 
0.000000 -6.276438 0.000000 
0.000000 -6.276438 0.000000 
-0.000000 -6.276438 0.000000 
-0.000000 -6.276438 0.000000 
-0.000000 -6.276438 0.000000 
-0.000000 -6.276438 0.000000 
-0.000000 -6.276438 0.000000 
0.000000 -6.276438 0.000000 
0.000000 -6.276438 0.000000 
-0.000000 -6.276438 0.000000 
-0.000000 -6.276438 0.000000 
-0.000000 -6.276438 0.000000 
-0.000000 -6.276438 0.000000 
-0.000000 -6.276438 0.000000 
0.000000 -6.276438 0.000000 
0.000000 -6.276438 0.000000 
0.000000 -6.276438 0.000000 
-0.000000 -6.276438 0.000000 
0.000000 -6.276438 0.000000 
0.000000 -6.276438 0.000000 
-0.000000 -6.276438 0.000000 
-0.000000 -6.276438 0.000000 
-0.000000 -6.276438 0.000000 
0.000000 -6.276438 0.000000 
0.000000 -6.276438 0.000000 
-0.000000 -6.276438 0.000000 
-0.000000 -6.276438 0.000000 
-0.000000 -6.276438 0.000000 
-0.000000 -6.276438 0.000000 
-0.000000 -6.276438 0.000000 
-0.000000 -6.276438 0.000000 
-0.000000 -6.276438 0.000000 
-0.000000 -6.276438 0.000000 
-0.000000 -6.276438 0.000000 
-0.000000 -6.276438 0.000000 
0.000000 -6.276438 0.000000 
0.000000 -6.276438 0.000000 
0.000000 -6.276438 0.000000 
0.000000 -6.276438 0.000000 
0.000000 -6.276438 0.000000 
0.000000 -6.276438 0.000000 
0.000000 -6.276438 0.000000 
0.000000 -6.276438 0.000000 
0.000000 -6.276438 0.000000 
0.000000 -6.276438 0.000000 
0.000000 -6.276438 0.000000 
0.000000 -6.276438 0.000000 
0.000000 -6.276438 0.000000 
0.000000 -6.276438 0.000000 
0.000000 -6.276438 0.000000 
0.000000 -6.276438 0.000000 
0.000000 -6.276438 0.000000 
0.000000 -6.276438 0.000000 
0.000000 -6.276438 0.000000 
-0.000000 -6.276438 0.000000 
0.000000 -6.276438 0.000000 
-0.000000 -6.276438 0.000000 
0.000000 -6.276438 0.000000 
0.000000 -6.276438 0.000000 
0.000000 -6.276438 0.000000 
0.000000 -6.276438 0.000000 
0.000000 -6.276438 0.000000 
0.000000 -6.276438 0.000000 
-0.000000 -6.276438 0.000000 
TENSORS STRESS float 
-0.000000 -0.000000 0.000000 
0.000000 -0.000000 0.000000 
0.000000 0.000000 0.000000 

-0.000000 -0.000000 0.000000 
0.000000 -0.000000 0.000000 
0.000000 0.000000 0.000000 

-0.000000 -0.000000 0.000000 
0.000000 -0.000000 0.000000 
0.000000 0.000000 0.000000 

0.000000 -0.000000 0.000000 
0.000000 0.000000 0.000000 
0.000000 0.000000 0.000000 

-0.000000 0.000000 0.000000 
0.000000 -0.000000 0.000000 
0.000000 0.000000 0.000000 

0.000000 0.000000 0.000000 
0.000000 0.000000 0.000000 
0.000000 0.000000 0.000000 

-0.000000 -0.000000 0.000000 
0.000000 -0.000000 0.000000 
0.000000 0.000000 0.000000 

-0.000000 -0.000000 0.000000 
0.000000 -0.000000 0.000000 
0.000000 0.000000 0.000000 

0.000000 -0.000000 0.000000 
0.000000 0.000000 0.000000 
0.000000 0.000000 0.000000 

0.000000 -0.000000 0.000000 
0.000000 0.000000 0.000000 
0.000000 0.000000 0.000000 

-0.000000 -0.000000 0.000000 