# vtk DataFile Version 3.0 
vtk output 
ASCII 
DATASET UNSTRUCTURED_GRID 
POINTS 175 float 
-0.026250 -0.105616 0.000000 
-0.107849 -0.038814 0.000000 
-0.055504 -0.046640 0.000000 
-0.029263 -0.001010 0.000000 
-0.186865 0.025542 0.000000 
-0.137945 0.023114 0.000000 
-0.115446 0.077096 0.000000 
-0.059236 0.061293 0.000000 
-0.029639 0.102041 0.000000 
-0.265784 0.089094 0.000000 
-0.217690 0.088480 0.000000 
-0.197042 0.145358 0.000000 
-0.143586 0.137219 0.000000 
-0.116568 0.184534 0.000000 
-0.058941 0.165395 0.000000 
-0.029470 0.203309 0.000000 
-0.344620 0.151884 0.000000 
-0.297251 0.151796 0.000000 
-0.278584 0.213531 0.000000 
-0.225793 0.205779 0.000000 
-0.200754 0.259905 0.000000 
-0.145436 0.246197 0.000000 
-0.117377 0.288014 0.000000 
-0.059330 0.266690 0.000000 
-0.029906 0.302500 0.000000 
-0.059067 -0.145550 0.000000 
-0.162600 -0.166786 0.000000 
-0.123773 -0.131450 0.000000 
-0.143260 -0.083319 0.000000 
-0.262203 -0.188786 0.000000 
-0.229193 -0.152633 0.000000 
-0.257497 -0.101686 0.000000 
-0.209579 -0.068552 0.000000 
-0.223024 -0.021000 0.000000 
-0.361883 -0.209588 0.000000 
-0.331007 -0.173671 0.000000 
-0.363671 -0.121929 0.000000 
-0.322679 -0.086455 0.000000 
-0.343779 -0.034785 0.000000 
-0.291448 -0.003336 0.000000 
-0.302958 0.043570 0.000000 
-0.458419 -0.235082 0.000000 
-0.431510 -0.196932 0.000000 
-0.466400 -0.143325 0.000000 
-0.429155 -0.105371 0.000000 
-0.453085 -0.051580 0.000000 
-0.408531 -0.018012 0.000000 
-0.421820 0.031648 0.000000 
-0.372065 0.060183 0.000000 
-0.381557 0.104392 0.000000 
-0.047375 -0.196498 0.000000 
-0.094915 -0.291610 0.000000 
-0.099325 -0.238352 0.000000 
-0.149436 -0.223458 0.000000 
-0.139140 -0.383106 0.000000 
-0.147802 -0.334787 0.000000 
-0.205496 -0.324698 0.000000 
-0.202578 -0.266417 0.000000 
-0.248285 -0.247045 0.000000 
-0.183344 -0.474308 0.000000 
-0.193544 -0.427271 0.000000 
-0.254100 -0.419668 0.000000 
-0.257652 -0.365548 0.000000 
-0.308672 -0.349839 0.000000 
-0.303233 -0.289099 0.000000 
-0.347254 -0.268104 0.000000 
-0.228617 -0.564558 0.000000 
-0.238279 -0.519710 0.000000 
-0.300463 -0.515145 0.000000 
-0.305993 -0.460496 0.000000 
-0.361663 -0.446878 0.000000 
-0.360774 -0.390338 0.000000 
-0.410658 -0.375092 0.000000 
-0.401508 -0.311166 0.000000 
-0.443078 -0.291625 0.000000 
-0.000000 -0.219536 0.000000 
0.042848 -0.316609 0.000000 
-0.000000 -0.286430 0.000000 
-0.042848 -0.316609 0.000000 
0.085778 -0.408262 0.000000 
0.042782 -0.384715 0.000000 
-0.000000 -0.422577 0.000000 
-0.042782 -0.384715 0.000000 
-0.085778 -0.408262 0.000000 
0.130209 -0.499572 0.000000 
0.087163 -0.477218 0.000000 
0.044434 -0.520252 0.000000 
-0.000000 -0.488950 0.000000 
-0.044434 -0.520252 0.000000 
-0.087163 -0.477218 0.000000 
-0.130209 -0.499572 0.000000 
0.175138 -0.591614 0.000000 
0.132114 -0.569516 0.000000 
0.088642 -0.615647 0.000000 
0.044532 -0.587754 0.000000 
-0.000000 -0.623183 0.000000 
-0.044532 -0.587754 0.000000 
-0.088642 -0.615647 0.000000 
-0.132114 -0.569516 0.000000 
-0.175138 -0.591614 0.000000 
0.047375 -0.196498 0.000000 
0.149436 -0.223458 0.000000 
0.099325 -0.238352 0.000000 
0.094915 -0.291610 0.000000 
0.248285 -0.247045 0.000000 
0.202578 -0.266417 0.000000 
0.205496 -0.324698 0.000000 
0.147802 -0.334787 0.000000 
0.139140 -0.383106 0.000000 
0.347254 -0.268104 0.000000 
0.303233 -0.289099 0.000000 
0.308672 -0.349839 0.000000 
0.257652 -0.365548 0.000000 
0.254100 -0.419668 0.000000 
0.193544 -0.427271 0.000000 
0.183344 -0.474308 0.000000 
0.443078 -0.291625 0.000000 
0.401508 -0.311166 0.000000 
0.410658 -0.375092 0.000000 
0.360774 -0.390338 0.000000 
0.361663 -0.446878 0.000000 
0.305993 -0.460496 0.000000 
0.300463 -0.515145 0.000000 
0.238279 -0.519710 0.000000 
0.228617 -0.564558 0.000000 
0.059067 -0.145550 0.000000 
0.143260 -0.083319 0.000000 
0.123773 -0.131450 0.000000 
0.162600 -0.166786 0.000000 
0.223024 -0.021000 0.000000 
0.209579 -0.068552 0.000000 
0.257497 -0.101686 0.000000 
0.229193 -0.152633 0.000000 
0.262203 -0.188786 0.000000 
0.302958 0.043570 0.000000 
0.291448 -0.003336 0.000000 
0.343779 -0.034785 0.000000 
0.322679 -0.086455 0.000000 
0.363671 -0.121929 0.000000 
0.331007 -0.173671 0.000000 
0.361883 -0.209588 0.000000 
0.381557 0.104392 0.000000 
0.372065 0.060183 0.000000 
0.421820 0.031648 0.000000 
0.408531 -0.018012 0.000000 
0.453085 -0.051580 0.000000 
0.429155 -0.105371 0.000000 
0.466400 -0.143325 0.000000 
0.431510 -0.196932 0.000000 
0.458419 -0.235082 0.000000 
0.026250 -0.105616 0.000000 
0.029263 -0.001010 0.000000 
0.055504 -0.046640 0.000000 
0.107849 -0.038814 0.000000 
0.029639 0.102041 0.000000 
0.059236 0.061293 0.000000 
0.115446 0.077096 0.000000 
0.137945 0.023114 0.000000 
0.186865 0.025542 0.000000 
0.029470 0.203309 0.000000 
0.058941 0.165395 0.000000 
0.116568 0.184534 0.000000 
0.143586 0.137219 0.000000 
0.197042 0.145358 0.000000 
0.217690 0.088480 0.000000 
0.265784 0.089094 0.000000 
0.029906 0.302500 0.000000 
0.059330 0.266690 0.000000 
0.117377 0.288014 0.000000 
0.145436 0.246197 0.000000 
0.200754 0.259905 0.000000 
0.225793 0.205779 0.000000 
0.278584 0.213531 0.000000 
0.297251 0.151796 0.000000 
0.344620 0.151884 0.000000 
CELLS 175 350 
1 0 
1 1 
1 2 
1 3 
1 4 
1 5 
1 6 
1 7 
1 8 
1 9 
1 10 
1 11 
1 12 
1 13 
1 14 
1 15 
1 16 
1 17 
1 18 
1 19 
1 20 
1 21 
1 22 
1 23 
1 24 
1 25 
1 26 
1 27 
1 28 
1 29 
1 30 
1 31 
1 32 
1 33 
1 34 
1 35 
1 36 
1 37 
1 38 
1 39 
1 40 
1 41 
1 42 
1 43 
1 44 
1 45 
1 46 
1 47 
1 48 
1 49 
1 50 
1 51 
1 52 
1 53 
1 54 
1 55 
1 56 
1 57 
1 58 
1 59 
1 60 
1 61 
1 62 
1 63 
1 64 
1 65 
1 66 
1 67 
1 68 
1 69 
1 70 
1 71 
1 72 
1 73 
1 74 
1 75 
1 76 
1 77 
1 78 
1 79 
1 80 
1 81 
1 82 
1 83 
1 84 
1 85 
1 86 
1 87 
1 88 
1 89 
1 90 
1 91 
1 92 
1 93 
1 94 
1 95 
1 96 
1 97 
1 98 
1 99 
1 100 
1 101 
1 102 
1 103 
1 104 
1 105 
1 106 
1 107 
1 108 
1 109 
1 110 
1 111 
1 112 
1 113 
1 114 
1 115 
1 116 
1 117 
1 118 
1 119 
1 120 
1 121 
1 122 
1 123 
1 124 
1 125 
1 126 
1 127 
1 128 
1 129 
1 130 
1 131 
1 132 
1 133 
1 134 
1 135 
1 136 
1 137 
1 138 
1 139 
1 140 
1 141 
1 142 
1 143 
1 144 
1 145 
1 146 
1 147 
1 148 
1 149 
1 150 
1 151 
1 152 
1 153 
1 154 
1 155 
1 156 
1 157 
1 158 
1 159 
1 160 
1 161 
1 162 
1 163 
1 164 
1 165 
1 166 
1 167 
1 168 
1 169 
1 170 
1 171 
1 172 
1 173 
1 174 
CELL_TYPES 175 
1 
1 
1 
1 
1 
1 
1 
1 
1 
1 
1 
1 
1 
1 
1 
1 
1 
1 
1 
1 
1 
1 
1 
1 
1 
1 
1 
1 
1 
1 
1 
1 
1 
1 
1 
1 
1 
1 
1 
1 
1 
1 
1 
1 
1 
1 
1 
1 
1 
1 
1 
1 
1 
1 
1 
1 
1 
1 
1 
1 
1 
1 
1 
1 
1 
1 
1 
1 
1 
1 
1 
1 
1 
1 
1 
1 
1 
1 
1 
1 
1 
1 
1 
1 
1 
1 
1 
1 
1 
1 
1 
1 
1 
1 
1 
1 
1 
1 
1 
1 
1 
1 
1 
1 
1 
1 
1 
1 
1 
1 
1 
1 
1 
1 
1 
1 
1 
1 
1 
1 
1 
1 
1 
1 
1 
1 
1 
1 
1 
1 
1 
1 
1 
1 
1 
1 
1 
1 
1 
1 
1 
1 
1 
1 
1 
1 
1 
1 
1 
1 
1 
1 
1 
1 
1 
1 
1 
1 
1 
1 
1 
1 
1 
1 
1 
1 
1 
1 
1 
1 
1 
1 
1 
1 
1 
POINT_DATA 175 
VECTORS X_GC float 
-0.026250 -0.105616 0.000000 
-0.107849 -0.038814 0.000000 
-0.055504 -0.046640 0.000000 
-0.029263 -0.001010 0.000000 
-0.186865 0.025542 0.000000 
-0.137945 0.023114 0.000000 
-0.115446 0.077096 0.000000 
-0.059236 0.061293 0.000000 
-0.029639 0.102041 0.000000 
-0.265784 0.089094 0.000000 
-0.217690 0.088480 0.000000 
-0.197042 0.145358 0.000000 
-0.143586 0.137219 0.000000 
-0.116568 0.184534 0.000000 
-0.058941 0.165395 0.000000 
-0.029470 0.203309 0.000000 
-0.344620 0.151884 0.000000 
-0.297251 0.151796 0.000000 
-0.278584 0.213531 0.000000 
-0.225793 0.205779 0.000000 
-0.200754 0.259905 0.000000 
-0.145436 0.246197 0.000000 
-0.117377 0.288014 0.000000 
-0.059330 0.266690 0.000000 
-0.029906 0.302500 0.000000 
-0.059067 -0.145550 0.000000 
-0.162600 -0.166786 0.000000 
-0.123773 -0.131450 0.000000 
-0.143260 -0.083319 0.000000 
-0.262203 -0.188786 0.000000 
-0.229193 -0.152633 0.000000 
-0.257497 -0.101686 0.000000 
-0.209579 -0.068552 0.000000 
-0.223024 -0.021000 0.000000 
-0.361883 -0.209588 0.000000 
-0.331007 -0.173671 0.000000 
-0.363671 -0.121929 0.000000 
-0.322679 -0.086455 0.000000 
-0.343779 -0.034785 0.000000 
-0.291448 -0.003336 0.000000 
-0.302958 0.043570 0.000000 
-0.458419 -0.235082 0.000000 
-0.431510 -0.196932 0.000000 
-0.466400 -0.143325 0.000000 
-0.429155 -0.105371 0.000000 
-0.453085 -0.051580 0.000000 
-0.408531 -0.018012 0.000000 
-0.421820 0.031648 0.000000 
-0.372065 0.060183 0.000000 
-0.381557 0.104392 0.000000 
-0.047375 -0.196498 0.000000 
-0.094915 -0.291610 0.000000 
-0.099325 -0.238352 0.000000 
-0.149436 -0.223458 0.000000 
-0.139140 -0.383106 0.000000 
-0.147802 -0.334787 0.000000 
-0.205496 -0.324698 0.000000 
-0.202578 -0.266417 0.000000 
-0.248285 -0.247045 0.000000 
-0.183344 -0.474308 0.000000 
-0.193544 -0.427271 0.000000 
-0.254100 -0.419668 0.000000 
-0.257652 -0.365548 0.000000 
-0.308672 -0.349839 0.000000 
-0.303233 -0.289099 0.000000 
-0.347254 -0.268104 0.000000 
-0.228617 -0.564558 0.000000 
-0.238279 -0.519710 0.000000 
-0.300463 -0.515145 0.000000 
-0.305993 -0.460496 0.000000 
-0.361663 -0.446878 0.000000 
-0.360774 -0.390338 0.000000 
-0.410658 -0.375092 0.000000 
-0.401508 -0.311166 0.000000 
-0.443078 -0.291625 0.000000 
-0.000000 -0.219536 0.000000 
0.042848 -0.316609 0.000000 
-0.000000 -0.286430 0.000000 
-0.042848 -0.316609 0.000000 
0.085778 -0.408262 0.000000 
0.042782 -0.384715 0.000000 
-0.000000 -0.422577 0.000000 
-0.042782 -0.384715 0.000000 
-0.085778 -0.408262 0.000000 
0.130209 -0.499572 0.000000 
0.087163 -0.477218 0.000000 
0.044434 -0.520252 0.000000 
-0.000000 -0.488950 0.000000 
-0.044434 -0.520252 0.000000 
-0.087163 -0.477218 0.000000 
-0.130209 -0.499572 0.000000 
0.175138 -0.591614 0.000000 
0.132114 -0.569516 0.000000 
0.088642 -0.615647 0.000000 
0.044532 -0.587754 0.000000 
-0.000000 -0.623183 0.000000 
-0.044532 -0.587754 0.000000 
-0.088642 -0.615647 0.000000 
-0.132114 -0.569516 0.000000 
-0.175138 -0.591614 0.000000 
0.047375 -0.196498 0.000000 
0.149436 -0.223458 0.000000 
0.099325 -0.238352 0.000000 
0.094915 -0.291610 0.000000 
0.248285 -0.247045 0.000000 
0.202578 -0.266417 0.000000 
0.205496 -0.324698 0.000000 
0.147802 -0.334787 0.000000 
0.139140 -0.383106 0.000000 
0.347254 -0.268104 0.000000 
0.303233 -0.289099 0.000000 
0.308672 -0.349839 0.000000 
0.257652 -0.365548 0.000000 
0.254100 -0.419668 0.000000 
0.193544 -0.427271 0.000000 
0.183344 -0.474308 0.000000 
0.443078 -0.291625 0.000000 
0.401508 -0.311166 0.000000 
0.410658 -0.375092 0.000000 
0.360774 -0.390338 0.000000 
0.361663 -0.446878 0.000000 
0.305993 -0.460496 0.000000 
0.300463 -0.515145 0.000000 
0.238279 -0.519710 0.000000 
0.228617 -0.564558 0.000000 
0.059067 -0.145550 0.000000 
0.143260 -0.083319 0.000000 
0.123773 -0.131450 0.000000 
0.162600 -0.166786 0.000000 
0.223024 -0.021000 0.000000 
0.209579 -0.068552 0.000000 
0.257497 -0.101686 0.000000 
0.229193 -0.152633 0.000000 
0.262203 -0.188786 0.000000 
0.302958 0.043570 0.000000 
0.291448 -0.003336 0.000000 
0.343779 -0.034785 0.000000 
0.322679 -0.086455 0.000000 
0.363671 -0.121929 0.000000 
0.331007 -0.173671 0.000000 
0.361883 -0.209588 0.000000 
0.381557 0.104392 0.000000 
0.372065 0.060183 0.000000 
0.421820 0.031648 0.000000 
0.408531 -0.018012 0.000000 
0.453085 -0.051580 0.000000 
0.429155 -0.105371 0.000000 
0.466400 -0.143325 0.000000 
0.431510 -0.196932 0.000000 
0.458419 -0.235082 0.000000 
0.026250 -0.105616 0.000000 
0.029263 -0.001010 0.000000 
0.055504 -0.046640 0.000000 
0.107849 -0.038814 0.000000 
0.029639 0.102041 0.000000 
0.059236 0.061293 0.000000 
0.115446 0.077096 0.000000 
0.137945 0.023114 0.000000 
0.186865 0.025542 0.000000 
0.029470 0.203309 0.000000 
0.058941 0.165395 0.000000 
0.116568 0.184534 0.000000 
0.143586 0.137219 0.000000 
0.197042 0.145358 0.000000 
0.217690 0.088480 0.000000 
0.265784 0.089094 0.000000 
0.029906 0.302500 0.000000 
0.059330 0.266690 0.000000 
0.117377 0.288014 0.000000 
0.145436 0.246197 0.000000 
0.200754 0.259905 0.000000 
0.225793 0.205779 0.000000 
0.278584 0.213531 0.000000 
0.297251 0.151796 0.000000 
0.344620 0.151884 0.000000 
VECTORS X_EC float 
0.341244 -0.074179 0.000000 
-0.597969 -0.976012 0.000000 
0.721551 -0.870365 0.000000 
0.380415 0.513639 0.000000 
0.429248 0.155182 0.000000 
-0.206717 0.187962 0.000000 
-0.499201 -0.540795 0.000000 
0.770062 -0.327458 0.000000 
0.385305 -0.877553 0.000000 
-0.544812 -0.702763 0.000000 
0.829971 -0.694483 0.000000 
0.561550 0.537663 0.000000 
-0.133387 0.647538 0.000000 
-0.484611 0.008793 0.000000 
0.766231 0.267172 0.000000 
0.383113 -0.244678 0.000000 
0.480062 0.449571 0.000000 
-0.135737 0.450752 0.000000 
-0.378405 -0.382667 0.000000 
0.935312 -0.278014 0.000000 
0.609800 0.991286 0.000000 
-0.109329 -0.823656 0.000000 
-0.474095 0.611814 0.000000 
0.771287 0.899680 0.000000 
0.388784 0.416253 0.000000 
0.767874 0.464925 0.000000 
0.113801 0.751606 0.000000 
-0.390946 0.274572 0.000000 
-0.137618 -0.375197 0.000000 
-0.591366 -0.951392 0.000000 
0.979513 0.560541 0.000000 
-0.652538 -0.127233 0.000000 
0.724526 -0.574548 0.000000 
0.899310 0.783495 0.000000 
0.704477 -0.670566 0.000000 
0.303097 0.844561 0.000000 
0.727719 0.146045 0.000000 
0.194825 -0.332859 0.000000 
0.469131 0.969599 0.000000 
-0.211170 0.545040 0.000000 
-0.061540 -0.088195 0.000000 
-0.040548 -0.326389 0.000000 
-0.390376 -0.841418 0.000000 
0.063194 0.434886 0.000000 
-0.420988 -0.077489 0.000000 
-0.109901 -0.803671 0.000000 
-0.689096 0.743165 0.000000 
-0.516346 0.072757 0.000000 
0.836842 -0.312473 0.000000 
0.960240 -0.909293 0.000000 
0.615870 -0.847273 0.000000 
-0.766100 0.436740 0.000000 
-0.708774 -0.282250 0.000000 
-0.057334 -0.483312 0.000000 
-0.191176 -0.328063 0.000000 
-0.078575 -0.980370 0.000000 
0.671450 0.883427 0.000000 
0.633513 0.096628 0.000000 
-0.772294 -0.164887 0.000000 
0.383472 0.903155 0.000000 
0.516068 0.268163 0.000000 
-0.696703 0.165515 0.000000 
-0.650521 -0.565106 0.000000 
0.012740 -0.777176 0.000000 
-0.057972 0.402832 0.000000 
0.514301 0.119405 0.000000 
0.972022 0.121540 0.000000 
-0.902367 -0.483914 0.000000 
-0.093980 -0.545544 0.000000 
-0.022092 0.716696 0.000000 
0.701620 0.532849 0.000000 
0.690068 -0.230437 0.000000 
-0.661441 -0.436260 0.000000 
-0.780391 0.700734 0.000000 
-0.239988 0.436937 0.000000 
0.000000 -0.536264 0.000000 
-0.557022 0.774216 0.000000 
0.000000 0.366807 0.000000 
0.557022 0.774216 0.000000 
0.884888 0.011534 0.000000 
-0.556172 -0.306350 0.000000 
0.000000 0.204789 0.000000 
0.556172 -0.306350 0.000000 
-0.884888 0.011534 0.000000 
0.307287 -0.755771 0.000000 
0.866885 0.942446 0.000000 
-0.577642 -0.476595 0.000000 
0.000000 -0.899169 0.000000 
0.577642 -0.476595 0.000000 
-0.866885 0.942446 0.000000 
-0.307287 -0.755771 0.000000 
-0.276792 0.486784 0.000000 
0.282519 0.188470 0.000000 
0.847658 0.811239 0.000000 
-0.578917 0.434682 0.000000 
0.000000 0.912966 0.000000 
0.578917 0.434682 0.000000 
-0.847658 0.811239 0.000000 
-0.282519 0.188470 0.000000 
0.276792 0.486784 0.000000 
-0.615870 -0.847273 0.000000 
0.057334 -0.483312 0.000000 
0.708774 -0.282250 0.000000 
0.766100 0.436740 0.000000 
0.772294 -0.164887 0.000000 
-0.633513 0.096628 0.000000 
-0.671450 0.883427 0.000000 
0.078575 -0.980370 0.000000 
0.191176 -0.328063 0.000000 
-0.514301 0.119405 0.000000 
0.057972 0.402832 0.000000 
-0.012740 -0.777176 0.000000 
0.650521 -0.565106 0.000000 
0.696703 0.165515 0.000000 
-0.516068 0.268163 0.000000 
-0.383472 0.903155 0.000000 
0.239988 0.436937 0.000000 
0.780391 0.700734 0.000000 
0.661441 -0.436260 0.000000 
-0.690068 -0.230437 0.000000 
-0.701620 0.532849 0.000000 
0.022093 0.716696 0.000000 
0.093980 -0.545544 0.000000 
0.902367 -0.483914 0.000000 
-0.972022 0.121540 0.000000 
-0.767874 0.464925 0.000000 
0.137618 -0.375197 0.000000 
0.390946 0.274572 0.000000 
-0.113801 0.751606 0.000000 
-0.899310 0.783495 0.000000 
-0.724526 -0.574548 0.000000 
0.652538 -0.127233 0.000000 
-0.979513 0.560541 0.000000 
0.591366 -0.951392 0.000000 
0.061540 -0.088195 0.000000 
0.211170 0.545040 0.000000 
-0.469131 0.969599 0.000000 
-0.194825 -0.332859 0.000000 
-0.727719 0.146045 0.000000 
-0.303097 0.844561 0.000000 
-0.704477 -0.670566 0.000000 
-0.960240 -0.909293 0.000000 
-0.836842 -0.312473 0.000000 
0.516346 0.072757 0.000000 
0.689096 0.743165 0.000000 
0.109901 -0.803671 0.000000 
0.420988 -0.077489 0.000000 
-0.063194 0.434886 0.000000 
0.390376 -0.841418 0.000000 
0.040548 -0.326389 0.000000 
-0.341244 -0.074179 0.000000 
-0.380415 0.513639 0.000000 
-0.721551 -0.870365 0.000000 
0.597969 -0.976012 0.000000 
-0.385305 -0.877553 0.000000 
-0.770062 -0.327458 0.000000 
0.499201 -0.540795 0.000000 
0.206717 0.187962 0.000000 
-0.429248 0.155182 0.000000 
-0.383113 -0.244678 0.000000 
-0.766231 0.267172 0.000000 
0.484611 0.008793 0.000000 
0.133387 0.647538 0.000000 
-0.561550 0.537663 0.000000 
-0.829971 -0.694483 0.000000 
0.544812 -0.702763 0.000000 
-0.388784 0.416253 0.000000 
-0.771287 0.899680 0.000000 
0.474095 0.611814 0.000000 
0.109329 -0.823656 0.000000 
-0.609800 0.991286 0.000000 
-0.935312 -0.278014 0.000000 
0.378405 -0.382667 0.000000 
0.135737 0.450752 0.000000 
-0.480062 0.449571 0.000000 
CELL_DATA 175 
SCALARS MASS float 
LOOKUP_TABLE default 
0.781831 
0.864274 
0.946717 
0.864274 
0.881307 
0.921110 
0.858535 
0.921110 
0.881307 
0.887046 
0.910001 
0.869829 
0.915556 
0.869829 
0.910001 
0.887046 
0.892784 
0.915740 
0.892784 
0.927218 
0.892784 
0.927218 
0.892784 
0.915740 
0.892784 
0.781831 
0.864274 
0.946717 
0.864274 
0.881307 
0.921110 
0.858535 
0.921110 
0.881307 
0.887046 
0.910001 
0.869829 
0.915556 
0.869829 
0.910001 
0.887046 
0.892784 
0.915740 
0.892784 
0.927218 
0.892784 
0.927218 
0.892784 
0.915740 
0.892784 
0.781831 
0.864274 
0.946717 
0.864274 
0.881307 
0.921110 
0.858535 
0.921110 
0.881307 
0.887046 
0.910001 
0.869829 
0.915556 
0.869829 
0.910001 
0.887046 
0.892784 
0.915740 
0.892784 
0.927218 
0.892784 
0.927218 
0.892784 
0.915740 
0.892784 
0.781831 
0.864274 
0.946717 
0.864274 
0.881307 
0.921110 
0.858535 
0.921110 
0.881307 
0.887046 
0.910001 
0.869829 
0.915556 
0.869829 
0.910001 
0.887046 
0.892784 
0.915740 
0.892784 
0.927218 
0.892784 
0.927218 
0.892784 
0.915740 
0.892784 
0.781831 
0.864274 
0.946717 
0.864274 
0.881307 
0.921110 
0.858535 
0.921110 
0.881307 
0.887046 
0.910001 
0.869829 
0.915556 
0.869829 
0.910001 
0.887046 
0.892784 
0.915740 
0.892784 
0.927218 
0.892784 
0.927218 
0.892784 
0.915740 
0.892784 
0.781831 
0.864274 
0.946717 
0.864274 
0.881307 
0.921110 
0.858535 
0.921110 
0.881307 
0.887046 
0.910001 
0.869829 
0.915556 
0.869829 
0.910001 
0.887046 
0.892784 
0.915740 
0.892784 
0.927218 
0.892784 
0.927218 
0.892784 
0.915740 
0.892784 
0.781831 
0.864274 
0.946717 
0.864274 
0.881307 
0.921110 
0.858535 
0.921110 
0.881307 
0.887046 
0.910001 
0.869829 
0.915556 
0.869829 
0.910001 
0.887046 
0.892784 
0.915740 
0.892784 
0.927218 
0.892784 
0.927218 
0.892784 
0.915740 
0.892784 
SCALARS MASS float 
LOOKUP_TABLE default 
0.781831 
0.864274 
0.946717 
0.864274 
0.881307 
0.921110 
0.858535 
0.921110 
0.881307 
0.887046 
0.910001 
0.869829 
0.915556 
0.869829 
0.910001 
0.887046 
0.892784 
0.915740 
0.892784 
0.927218 
0.892784 
0.927218 
0.892784 
0.915740 
0.892784 
0.781831 
0.864274 
0.946717 
0.864274 
0.881307 
0.921110 
0.858535 
0.921110 
0.881307 
0.887046 
0.910001 
0.869829 
0.915556 
0.869829 
0.910001 
0.887046 
0.892784 
0.915740 
0.892784 
0.927218 
0.892784 
0.927218 
0.892784 
0.915740 
0.892784 
0.781831 
0.864274 
0.946717 
0.864274 
0.881307 
0.921110 
0.858535 
0.921110 
0.881307 
0.887046 
0.910001 
0.869829 
0.915556 
0.869829 
0.910001 
0.887046 
0.892784 
0.915740 
0.892784 
0.927218 
0.892784 
0.927218 
0.892784 
0.915740 
0.892784 
0.781831 
0.864274 
0.946717 
0.864274 
0.881307 
0.921110 
0.858535 
0.921110 
0.881307 
0.887046 
0.910001 
0.869829 
0.915556 
0.869829 
0.910001 
0.887046 
0.892784 
0.915740 
0.892784 
0.927218 
0.892784 
0.927218 
0.892784 
0.915740 
0.892784 
0.781831 
0.864274 
0.946717 
0.864274 
0.881307 
0.921110 
0.858535 
0.921110 
0.881307 
0.887046 
0.910001 
0.869829 
0.915556 
0.869829 
0.910001 
0.887046 
0.892784 
0.915740 
0.892784 
0.927218 
0.892784 
0.927218 
0.892784 
0.915740 
0.892784 
0.781831 
0.864274 
0.946717 
0.864274 
0.881307 
0.921110 
0.858535 
0.921110 
0.881307 
0.887046 
0.910001 
0.869829 
0.915556 
0.869829 
0.910001 
0.887046 
0.892784 
0.915740 
0.892784 
0.927218 
0.892784 
0.927218 
0.892784 
0.915740 
0.892784 
0.781831 
0.864274 
0.946717 
0.864274 
0.881307 
0.921110 
0.858535 
0.921110 
0.881307 
0.887046 
0.910001 
0.869829 
0.915556 
0.869829 
0.910001 
0.887046 
0.892784 
0.915740 
0.892784 
0.927218 
0.892784 
0.927218 
0.892784 
0.915740 
0.892784 
SCALARS DENSITY float 
LOOKUP_TABLE default 
223.493527 
190.786258 
191.159970 
202.436288 
249.992131 
209.613045 
203.931112 
212.535252 
203.545455 
198.477737 
185.565927 
199.293653 
203.693170 
215.349844 
212.875228 
191.715110 
201.050246 
212.072981 
203.562888 
188.771643 
213.119188 
195.785640 
183.310523 
179.244021 
217.196570 
165.245494 
199.380462 
200.164248 
196.731892 
204.886353 
193.927763 
178.436224 
181.767106 
187.312233 
204.023322 
209.696526 
182.448607 
219.099603 
200.670448 
218.139078 
181.412209 
203.028431 
212.505683 
225.458984 
177.027031 
207.846495 
215.515827 
183.074871 
201.499314 
195.572176 
223.512985 
195.217087 
218.660265 
233.055878 
207.558720 
195.536877 
181.828577 
196.059387 
186.906824 
190.345160 
187.320828 
223.745906 
177.389209 
218.014941 
224.770472 
222.422315 
232.544044 
184.496604 
206.122803 
220.033955 
215.502560 
154.886191 
218.628620 
169.480991 
200.747816 
237.811604 
193.533279 
192.119745 
193.533280 
239.676486 
210.011332 
178.108803 
210.011332 
239.676487 
200.468609 
201.893627 
205.051213 
185.737312 
205.051212 
201.893626 
200.468610 
164.996549 
195.250155 
220.219950 
256.032491 
137.939167 
256.032489 
220.219949 
195.250154 
164.996551 
223.512985 
233.055878 
218.660265 
195.217087 
186.906823 
196.059388 
181.828577 
195.536876 
207.558720 
222.422316 
224.770473 
218.014941 
177.389209 
223.745907 
187.320829 
190.345159 
200.747815 
169.480992 
218.628620 
154.886191 
215.502562 
220.033955 
206.122803 
184.496604 
232.544048 
165.245494 
196.731892 
200.164247 
199.380462 
187.312233 
181.767106 
178.436225 
193.927763 
204.886353 
181.412210 
218.139075 
200.670446 
219.099602 
182.448608 
209.696525 
204.023321 
195.572177 
201.499314 
183.074871 
215.515829 
207.846495 
177.027030 
225.458985 
212.505683 
203.028430 
223.493526 
202.436288 
191.159970 
190.786258 
203.545455 
212.535252 
203.931111 
209.613045 
249.992131 
191.715110 
212.875228 
215.349845 
203.693170 
199.293654 
185.565927 
198.477738 
217.196569 
179.244021 
183.310523 
195.785640 
213.119188 
188.771641 
203.562889 
212.072980 
201.050244 
SCALARS ELEM_i float 
LOOKUP_TABLE default 
181 
208 
181 
182 
209 
209 
209 
182 
182 
236 
209 
210 
210 
210 
183 
183 
237 
237 
237 
210 
211 
210 
211 
184 
184 
181 
208 
208 
208 
234 
208 
235 
208 
209 
234 
235 
235 
235 
236 
236 
236 
261 
261 
262 
262 
262 
263 
263 
236 
236 
180 
207 
207 
207 
206 
206 
207 
207 
234 
206 
206 
233 
233 
233 
234 
234 
205 
232 
232 
233 
233 
233 
260 
261 
261 
180 
180 
180 
180 
152 
179 
179 
179 
206 
151 
152 
178 
178 
178 
206 
205 
151 
151 
151 
178 
178 
178 
205 
205 
205 
180 
153 
153 
153 
126 
153 
153 
152 
152 
126 
126 
125 
125 
125 
152 
152 
99 
99 
98 
125 
125 
125 
124 
124 
151 
181 
154 
154 
154 
155 
154 
127 
154 
126 
128 
128 
128 
127 
127 
127 
126 
128 
128 
101 
101 
100 
100 
100 
99 
99 
181 
182 
181 
154 
182 
182 
155 
155 
155 
183 
183 
156 
156 
156 
155 
128 
184 
184 
157 
156 
157 
156 
129 
129 
129 
VECTORS VELOCITY float 
-0.042271 -0.921114 0.015273 
0.000000 -0.000000 0.004582 
-0.770471 -1.270008 0.019463 
-0.304346 -1.455860 0.015667 
-0.141031 -0.898108 0.016082 
-0.362091 -1.363344 0.008848 
-0.434919 -0.587713 0.005632 
-0.074710 -1.308601 0.020207 
-0.138483 -0.449259 0.015833 
-0.035910 -1.155213 0.005270 
-0.114936 -1.018051 0.020884 
-0.040260 -1.368104 0.017761 
-0.267642 -1.136049 0.009864 
-0.055487 -0.281073 0.005879 
-0.361483 -1.047185 0.020035 
0.019864 0.193807 0.015793 
0.029551 -1.900443 0.016816 
-0.057614 -1.539169 0.009770 
0.286492 -0.384304 0.007108 
0.336179 -1.166152 0.022220 
0.847234 -1.357920 0.018466 
-0.082004 -0.151958 0.010111 
0.520462 -1.879205 0.006055 
0.099909 -1.040155 0.020169 
-0.090478 -1.357974 0.015778 
-0.274613 -1.559617 0.020044 
-0.099070 -1.384367 0.012655 
-0.247909 -1.006156 0.006876 
-0.230588 -0.409581 0.009799 
-0.312998 -0.045743 0.004597 
-0.043390 -1.178263 0.022544 
0.390627 -1.316871 0.004040 
-0.187894 -1.215366 0.019558 
0.305618 -1.724925 0.021618 
0.137568 -1.492321 0.019246 
-0.027583 -1.749782 0.014670 
0.023902 -1.634528 0.019414 
-0.232488 -0.686101 0.013492 
-0.320306 -0.982977 0.016477 
-0.171249 -0.802149 0.008900 
-0.394322 -0.887421 0.010544 
0.185671 -1.935892 0.011096 
0.021465 -1.260125 0.006795 
-0.264430 -1.295832 0.011916 
0.053334 -0.165519 0.006509 
0.343776 0.078567 0.010100 
0.109677 -0.387188 0.003460 
1.609431 -0.856570 0.005923 
-0.182329 -1.216204 0.020946 
-0.322481 -1.016713 0.022216 
-0.375488 -0.384704 0.018275 
0.211487 -1.246744 0.002724 
-0.024404 -0.864794 0.003291 
-0.133144 -0.314587 0.010713 
0.030334 -0.339803 0.009183 
0.000000 -0.000000 0.010501 
-0.005028 -1.593874 0.019143 
-0.139160 -1.393973 0.018714 
-0.149070 -0.276230 0.002578 
0.051952 -1.393215 0.015885 
-0.043705 -1.157851 0.017408 
-0.139643 -0.722336 0.003554 
0.164988 -1.252455 0.004241 
-0.425718 -0.013517 0.011647 
-0.148715 -1.038085 0.010791 
-0.344604 -0.956225 0.017280 
-0.415908 -0.990315 0.022358 
-0.061571 -0.813843 0.001152 
0.281785 -0.861985 0.010353 
0.216668 -0.809205 0.011363 
0.311746 -0.062089 0.019648 
0.437429 -1.128468 0.019450 
0.253616 -0.933209 0.004002 
-0.026851 -1.510670 0.002716 
0.899435 -1.133951 0.009074 
-0.000000 -0.199327 0.011396 
-0.323924 -1.685725 0.004973 
0.000000 -1.027034 0.011396 
0.323924 -1.685725 0.017819 
-0.277550 -1.245729 0.021320 
-0.296706 -0.584699 0.004979 
0.000000 -0.749268 0.011396 
0.296706 -0.584699 0.017813 
0.277550 -1.245729 0.001472 
0.128674 -0.410080 0.014781 
-0.034430 -1.341797 0.021187 
-0.061442 -0.490943 0.004820 
-0.000000 0.487896 0.011396 
0.061442 -0.490943 0.017972 
0.034430 -1.341797 0.001605 
-0.128674 -0.410080 0.008011 
0.519370 -1.522875 0.008314 
0.173024 -0.783925 0.014631 
-0.045176 -1.344196 0.021044 
0.028007 -0.992646 0.004806 
0.000000 -1.291659 0.011396 
-0.028007 -0.992646 0.017986 
0.045176 -1.344196 0.001748 
-0.173024 -0.783925 0.008161 
-0.519370 -1.522875 0.014478 
0.375488 -0.384704 0.004517 
0.133144 -0.314587 0.012079 
0.024404 -0.864794 0.019501 
-0.211487 -1.246744 0.020068 
0.149070 -0.276230 0.020214 
0.139160 -1.393973 0.004078 
0.005028 -1.593874 0.003649 
0.000000 -0.000000 0.012291 
-0.030334 -0.339803 0.013609 
0.344604 -0.956225 0.005512 
0.148715 -1.038085 0.012001 
0.425718 -0.013517 0.011145 
-0.164988 -1.252455 0.018551 
0.139643 -0.722336 0.019238 
0.043705 -1.157851 0.005384 
-0.051952 -1.393215 0.006907 
-0.899435 -1.133951 0.013718 
0.026851 -1.510670 0.020076 
-0.253616 -0.933209 0.018790 
-0.437429 -1.128468 0.003342 
-0.311746 -0.062089 0.003144 
-0.216668 -0.809205 0.011429 
-0.281785 -0.861985 0.012439 
0.061571 -0.813843 0.021640 
0.415908 -0.990315 0.000434 
0.274613 -1.559617 0.002748 
0.230588 -0.409581 0.012993 
0.247909 -1.006156 0.015916 
0.099070 -1.384367 0.010137 
-0.305618 -1.724925 0.001174 
0.187894 -1.215366 0.003234 
-0.390627 -1.316871 0.018752 
0.043390 -1.178263 0.000248 
0.312998 -0.045743 0.018195 
0.394322 -0.887421 0.012248 
0.171249 -0.802149 0.013892 
0.320306 -0.982977 0.006315 
0.232488 -0.686101 0.009300 
-0.023902 -1.634528 0.003378 
0.027583 -1.749782 0.008122 
-0.137568 -1.492321 0.003546 
0.322481 -1.016713 0.000576 
0.182329 -1.216204 0.001846 
-1.609431 -0.856570 0.016869 
-0.109677 -0.387188 0.019332 
-0.343776 0.078567 0.012692 
-0.053334 -0.165519 0.016284 
0.264430 -1.295832 0.010876 
-0.021466 -1.260125 0.015997 
-0.185671 -1.935892 0.011696 
0.042271 -0.921114 0.007519 
0.304346 -1.455860 0.007125 
0.770471 -1.270008 0.003329 
0.000000 -0.000000 0.018210 
0.138483 -0.449259 0.006959 
0.074710 -1.308601 0.002585 
0.434919 -0.587713 0.017160 
0.362091 -1.363344 0.013945 
0.141031 -0.898108 0.006710 
-0.019864 0.193807 0.006999 
0.361483 -1.047185 0.002757 
0.055487 -0.281073 0.016913 
0.267642 -1.136049 0.012928 
0.040260 -1.368104 0.005031 
0.114936 -1.018051 0.001908 
0.035910 -1.155213 0.017522 
0.090478 -1.357974 0.007014 
-0.099909 -1.040155 0.002623 
-0.520462 -1.879205 0.016737 
0.082004 -0.151958 0.012681 
-0.847234 -1.357920 0.004326 
-0.336179 -1.166152 0.000572 
-0.286492 -0.384304 0.015684 
0.057614 -1.539169 0.013022 
-0.029551 -1.900443 0.005976 
TENSORS STRESS float 
-36.837545 0.033346 0.000000 
0.000000 -39.743808 0.000000 
0.000000 0.000000 0.000000 

21.433296 2.268136 0.000000 
0.000000 19.183155 0.000000 
0.000000 0.000000 0.000000 

-41.049400 0.879690 0.000000 
0.000000 -42.602712 0.000000 
0.000000 0.000000 0.000000 

-21.334320 0.510662 0.000000 
0.000000 -20.829829 0.000000 
0.000000 0.000000 0.000000 

-2.374541 0.867634 0.000000 
0.000000 -5.411279 0.000000 
0.000000 0.000000 0.000000 

10.939638 1.395676 0.000000 
0.000000 8.321749 0.000000 
0.000000 0.000000 0.000000 

4.331801 2.083345 0.000000 
0.000000 1.236037 0.000000 
0.000000 0.000000 0.000000 

-39.822608 -0.028518 0.000000 
0.000000 -39.817534 0.000000 
0.000000 0.000000 0.000000 

-31.560681 1.280534 0.000000 
0.000000 -29.887798 0.000000 
0.000000 0.000000 0.000000 

-12.292642 2.439893 0.000000 
0.000000 -11.128530 0.000000 
0.000000 0.000000 0.000000 

18.410584 6.543371 0.000000 
0.000000 16.205442 0.000000 
0.000000 0.000000 0.000000 

42.390623 -1.666333 0.000000 