# vtk DataFile Version 3.0 
vtk output 
ASCII 
DATASET UNSTRUCTURED_GRID 
POINTS 175 float 
-0.026061 -1.078351 0.000000 
-0.106992 -1.010296 0.000000 
-0.054870 -1.018528 0.000000 
-0.028809 -0.972645 0.000000 
-0.186430 -0.946220 0.000000 
-0.137056 -0.948746 0.000000 
-0.114311 -0.895099 0.000000 
-0.058186 -0.910765 0.000000 
-0.029377 -0.870588 0.000000 
-0.265318 -0.883065 0.000000 
-0.217198 -0.883864 0.000000 
-0.196633 -0.826568 0.000000 
-0.143120 -0.835276 0.000000 
-0.116563 -0.788008 0.000000 
-0.058945 -0.807653 0.000000 
-0.029568 -0.769533 0.000000 
-0.344206 -0.819909 0.000000 
-0.296791 -0.819902 0.000000 
-0.278030 -0.759959 0.000000 
-0.225992 -0.765825 0.000000 
-0.201664 -0.713708 0.000000 
-0.145749 -0.727182 0.000000 
-0.117890 -0.682839 0.000000 
-0.059328 -0.705545 0.000000 
-0.029759 -0.668479 0.000000 
-0.058559 -1.119102 0.000000 
-0.162226 -1.139945 0.000000 
-0.123292 -1.104327 0.000000 
-0.142917 -1.055344 0.000000 
-0.261851 -1.162101 0.000000 
-0.229092 -1.125074 0.000000 
-0.256854 -1.073842 0.000000 
-0.209613 -1.039730 0.000000 
-0.223062 -0.992156 0.000000 
-0.360414 -1.184401 0.000000 
-0.329787 -1.147278 0.000000 
-0.361761 -1.095476 0.000000 
-0.321587 -1.059067 0.000000 
-0.341985 -1.008833 0.000000 
-0.290702 -0.976034 0.000000 
-0.302189 -0.929299 0.000000 
-0.458977 -1.206701 0.000000 
-0.429420 -1.169627 0.000000 
-0.464588 -1.117585 0.000000 
-0.427556 -1.080557 0.000000 
-0.453135 -1.029043 0.000000 
-0.407738 -0.993727 0.000000 
-0.425037 -0.944299 0.000000 
-0.370772 -0.912670 0.000000 
-0.381315 -0.866443 0.000000 
-0.046960 -1.169917 0.000000 
-0.095301 -1.263963 0.000000 
-0.098873 -1.211316 0.000000 
-0.149405 -1.196118 0.000000 
-0.140093 -1.355667 0.000000 
-0.148617 -1.306969 0.000000 
-0.205981 -1.296732 0.000000 
-0.203197 -1.238528 0.000000 
-0.248777 -1.219382 0.000000 
-0.184111 -1.446631 0.000000 
-0.194039 -1.399540 0.000000 
-0.254475 -1.392240 0.000000 
-0.257893 -1.338130 0.000000 
-0.309886 -1.322758 0.000000 
-0.303554 -1.262213 0.000000 
-0.347255 -1.242055 0.000000 
-0.228129 -1.537594 0.000000 
-0.238687 -1.491370 0.000000 
-0.301302 -1.486418 0.000000 
-0.307162 -1.434379 0.000000 
-0.363386 -1.422258 0.000000 
-0.362692 -1.364747 0.000000 
-0.412122 -1.347454 0.000000 
-0.403017 -1.285307 0.000000 
-0.445733 -1.264728 0.000000 
-0.000000 -1.192532 0.000000 
0.043388 -1.288963 0.000000 
-0.000000 -1.258930 0.000000 
-0.043388 -1.288963 0.000000 
0.087158 -1.381159 0.000000 
0.043769 -1.357461 0.000000 
-0.000000 -1.395927 0.000000 
-0.043769 -1.357461 0.000000 
-0.087158 -1.381159 0.000000 
0.130831 -1.472289 0.000000 
0.087824 -1.450690 0.000000 
0.044436 -1.493390 0.000000 
-0.000000 -1.462325 0.000000 
-0.044436 -1.493390 0.000000 
-0.087824 -1.450690 0.000000 
-0.130831 -1.472289 0.000000 
0.174505 -1.563419 0.000000 
0.131782 -1.542853 0.000000 
0.088871 -1.588719 0.000000 
0.044532 -1.560855 0.000000 
-0.000000 -1.597256 0.000000 
-0.044532 -1.560855 0.000000 
-0.088871 -1.588719 0.000000 
-0.131782 -1.542853 0.000000 
-0.174505 -1.563419 0.000000 
0.046960 -1.169917 0.000000 
0.149405 -1.196118 0.000000 
0.098873 -1.211316 0.000000 
0.095301 -1.263963 0.000000 
0.248777 -1.219382 0.000000 
0.203197 -1.238528 0.000000 
0.205981 -1.296732 0.000000 
0.148617 -1.306969 0.000000 
0.140093 -1.355667 0.000000 
0.347255 -1.242055 0.000000 
0.303554 -1.262213 0.000000 
0.309886 -1.322758 0.000000 
0.257893 -1.338130 0.000000 
0.254475 -1.392240 0.000000 
0.194039 -1.399540 0.000000 
0.184111 -1.446631 0.000000 
0.445733 -1.264728 0.000000 
0.403017 -1.285307 0.000000 
0.412122 -1.347454 0.000000 
0.362692 -1.364747 0.000000 
0.363386 -1.422258 0.000000 
0.307162 -1.434379 0.000000 
0.301302 -1.486418 0.000000 
0.238687 -1.491370 0.000000 
0.228129 -1.537594 0.000000 
0.058559 -1.119102 0.000000 
0.142917 -1.055344 0.000000 
0.123292 -1.104327 0.000000 
0.162226 -1.139945 0.000000 
0.223062 -0.992156 0.000000 
0.209613 -1.039730 0.000000 
0.256854 -1.073842 0.000000 
0.229092 -1.125074 0.000000 
0.261851 -1.162101 0.000000 
0.302189 -0.929299 0.000000 
0.290702 -0.976034 0.000000 
0.341985 -1.008833 0.000000 
0.321587 -1.059067 0.000000 
0.361761 -1.095476 0.000000 
0.329787 -1.147278 0.000000 
0.360414 -1.184401 0.000000 
0.381315 -0.866443 0.000000 
0.370772 -0.912670 0.000000 
0.425037 -0.944299 0.000000 
0.407738 -0.993727 0.000000 
0.453135 -1.029043 0.000000 
0.427556 -1.080557 0.000000 
0.464588 -1.117585 0.000000 
0.429420 -1.169627 0.000000 
0.458977 -1.206701 0.000000 
0.026061 -1.078351 0.000000 
0.028809 -0.972645 0.000000 
0.054870 -1.018528 0.000000 
0.106992 -1.010296 0.000000 
0.029377 -0.870588 0.000000 
0.058186 -0.910765 0.000000 
0.114311 -0.895099 0.000000 
0.137056 -0.948747 0.000000 
0.186430 -0.946220 0.000000 
0.029568 -0.769533 0.000000 
0.058945 -0.807653 0.000000 
0.116563 -0.788008 0.000000 
0.143120 -0.835276 0.000000 
0.196633 -0.826568 0.000000 
0.217198 -0.883864 0.000000 
0.265318 -0.883065 0.000000 
0.029759 -0.668479 0.000000 
0.059328 -0.705545 0.000000 
0.117890 -0.682839 0.000000 
0.145749 -0.727182 0.000000 
0.201664 -0.713708 0.000000 
0.225992 -0.765825 0.000000 
0.278030 -0.759959 0.000000 
0.296791 -0.819902 0.000000 
0.344206 -0.819909 0.000000 
CELLS 175 350 
1 0 
1 1 
1 2 
1 3 
1 4 
1 5 
1 6 
1 7 
1 8 
1 9 
1 10 
1 11 
1 12 
1 13 
1 14 
1 15 
1 16 
1 17 
1 18 
1 19 
1 20 
1 21 
1 22 
1 23 
1 24 
1 25 
1 26 
1 27 
1 28 
1 29 
1 30 
1 31 
1 32 
1 33 
1 34 
1 35 
1 36 
1 37 
1 38 
1 39 
1 40 
1 41 
1 42 
1 43 
1 44 
1 45 
1 46 
1 47 
1 48 
1 49 
1 50 
1 51 
1 52 
1 53 
1 54 
1 55 
1 56 
1 57 
1 58 
1 59 
1 60 
1 61 
1 62 
1 63 
1 64 
1 65 
1 66 
1 67 
1 68 
1 69 
1 70 
1 71 
1 72 
1 73 
1 74 
1 75 
1 76 
1 77 
1 78 
1 79 
1 80 
1 81 
1 82 
1 83 
1 84 
1 85 
1 86 
1 87 
1 88 
1 89 
1 90 
1 91 
1 92 
1 93 
1 94 
1 95 
1 96 
1 97 
1 98 
1 99 
1 100 
1 101 
1 102 
1 103 
1 104 
1 105 
1 106 
1 107 
1 108 
1 109 
1 110 
1 111 
1 112 
1 113 
1 114 
1 115 
1 116 
1 117 
1 118 
1 119 
1 120 
1 121 
1 122 
1 123 
1 124 
1 125 
1 126 
1 127 
1 128 
1 129 
1 130 
1 131 
1 132 
1 133 
1 134 
1 135 
1 136 
1 137 
1 138 
1 139 
1 140 
1 141 
1 142 
1 143 
1 144 
1 145 
1 146 
1 147 
1 148 
1 149 
1 150 
1 151 
1 152 
1 153 
1 154 
1 155 
1 156 
1 157 
1 158 
1 159 
1 160 
1 161 
1 162 
1 163 
1 164 
1 165 
1 166 
1 167 
1 168 
1 169 
1 170 
1 171 
1 172 
1 173 
1 174 
CELL_TYPES 175 
1 
1 
1 
1 
1 
1 
1 
1 
1 
1 
1 
1 
1 
1 
1 
1 
1 
1 
1 
1 
1 
1 
1 
1 
1 
1 
1 
1 
1 
1 
1 
1 
1 
1 
1 
1 
1 
1 
1 
1 
1 
1 
1 
1 
1 
1 
1 
1 
1 
1 
1 
1 
1 
1 
1 
1 
1 
1 
1 
1 
1 
1 
1 
1 
1 
1 
1 
1 
1 
1 
1 
1 
1 
1 
1 
1 
1 
1 
1 
1 
1 
1 
1 
1 
1 
1 
1 
1 
1 
1 
1 
1 
1 
1 
1 
1 
1 
1 
1 
1 
1 
1 
1 
1 
1 
1 
1 
1 
1 
1 
1 
1 
1 
1 
1 
1 
1 
1 
1 
1 
1 
1 
1 
1 
1 
1 
1 
1 
1 
1 
1 
1 
1 
1 
1 
1 
1 
1 
1 
1 
1 
1 
1 
1 
1 
1 
1 
1 
1 
1 
1 
1 
1 
1 
1 
1 
1 
1 
1 
1 
1 
1 
1 
1 
1 
1 
1 
1 
1 
1 
1 
1 
1 
1 
1 
POINT_DATA 175 
VECTORS X_GC float 
-0.026061 -1.078351 0.000000 
-0.106992 -1.010296 0.000000 
-0.054870 -1.018528 0.000000 
-0.028809 -0.972645 0.000000 
-0.186430 -0.946220 0.000000 
-0.137056 -0.948746 0.000000 
-0.114311 -0.895099 0.000000 
-0.058186 -0.910765 0.000000 
-0.029377 -0.870588 0.000000 
-0.265318 -0.883065 0.000000 
-0.217198 -0.883864 0.000000 
-0.196633 -0.826568 0.000000 
-0.143120 -0.835276 0.000000 
-0.116563 -0.788008 0.000000 
-0.058945 -0.807653 0.000000 
-0.029568 -0.769533 0.000000 
-0.344206 -0.819909 0.000000 
-0.296791 -0.819902 0.000000 
-0.278030 -0.759959 0.000000 
-0.225992 -0.765825 0.000000 
-0.201664 -0.713708 0.000000 
-0.145749 -0.727182 0.000000 
-0.117890 -0.682839 0.000000 
-0.059328 -0.705545 0.000000 
-0.029759 -0.668479 0.000000 
-0.058559 -1.119102 0.000000 
-0.162226 -1.139945 0.000000 
-0.123292 -1.104327 0.000000 
-0.142917 -1.055344 0.000000 
-0.261851 -1.162101 0.000000 
-0.229092 -1.125074 0.000000 
-0.256854 -1.073842 0.000000 
-0.209613 -1.039730 0.000000 
-0.223062 -0.992156 0.000000 
-0.360414 -1.184401 0.000000 
-0.329787 -1.147278 0.000000 
-0.361761 -1.095476 0.000000 
-0.321587 -1.059067 0.000000 
-0.341985 -1.008833 0.000000 
-0.290702 -0.976034 0.000000 
-0.302189 -0.929299 0.000000 
-0.458977 -1.206701 0.000000 
-0.429420 -1.169627 0.000000 
-0.464588 -1.117585 0.000000 
-0.427556 -1.080557 0.000000 
-0.453135 -1.029043 0.000000 
-0.407738 -0.993727 0.000000 
-0.425037 -0.944299 0.000000 
-0.370772 -0.912670 0.000000 
-0.381315 -0.866443 0.000000 
-0.046960 -1.169917 0.000000 
-0.095301 -1.263963 0.000000 
-0.098873 -1.211316 0.000000 
-0.149405 -1.196118 0.000000 
-0.140093 -1.355667 0.000000 
-0.148617 -1.306969 0.000000 
-0.205981 -1.296732 0.000000 
-0.203197 -1.238528 0.000000 
-0.248777 -1.219382 0.000000 
-0.184111 -1.446631 0.000000 
-0.194039 -1.399540 0.000000 
-0.254475 -1.392240 0.000000 
-0.257893 -1.338130 0.000000 
-0.309886 -1.322758 0.000000 
-0.303554 -1.262213 0.000000 
-0.347255 -1.242055 0.000000 
-0.228129 -1.537594 0.000000 
-0.238687 -1.491370 0.000000 
-0.301302 -1.486418 0.000000 
-0.307162 -1.434379 0.000000 
-0.363386 -1.422258 0.000000 
-0.362692 -1.364747 0.000000 
-0.412122 -1.347454 0.000000 
-0.403017 -1.285307 0.000000 
-0.445733 -1.264728 0.000000 
-0.000000 -1.192532 0.000000 
0.043388 -1.288963 0.000000 
-0.000000 -1.258930 0.000000 
-0.043388 -1.288963 0.000000 
0.087158 -1.381159 0.000000 
0.043769 -1.357461 0.000000 
-0.000000 -1.395927 0.000000 
-0.043769 -1.357461 0.000000 
-0.087158 -1.381159 0.000000 
0.130831 -1.472289 0.000000 
0.087824 -1.450690 0.000000 
0.044436 -1.493390 0.000000 
-0.000000 -1.462325 0.000000 
-0.044436 -1.493390 0.000000 
-0.087824 -1.450690 0.000000 
-0.130831 -1.472289 0.000000 
0.174505 -1.563419 0.000000 
0.131782 -1.542853 0.000000 
0.088871 -1.588719 0.000000 
0.044532 -1.560855 0.000000 
-0.000000 -1.597256 0.000000 
-0.044532 -1.560855 0.000000 
-0.088871 -1.588719 0.000000 
-0.131782 -1.542853 0.000000 
-0.174505 -1.563419 0.000000 
0.046960 -1.169917 0.000000 
0.149405 -1.196118 0.000000 
0.098873 -1.211316 0.000000 
0.095301 -1.263963 0.000000 
0.248777 -1.219382 0.000000 
0.203197 -1.238528 0.000000 
0.205981 -1.296732 0.000000 
0.148617 -1.306969 0.000000 
0.140093 -1.355667 0.000000 
0.347255 -1.242055 0.000000 
0.303554 -1.262213 0.000000 
0.309886 -1.322758 0.000000 
0.257893 -1.338130 0.000000 
0.254475 -1.392240 0.000000 
0.194039 -1.399540 0.000000 
0.184111 -1.446631 0.000000 
0.445733 -1.264728 0.000000 
0.403017 -1.285307 0.000000 
0.412122 -1.347454 0.000000 
0.362692 -1.364747 0.000000 
0.363386 -1.422258 0.000000 
0.307162 -1.434379 0.000000 
0.301302 -1.486418 0.000000 
0.238687 -1.491370 0.000000 
0.228129 -1.537594 0.000000 
0.058559 -1.119102 0.000000 
0.142917 -1.055344 0.000000 
0.123292 -1.104327 0.000000 
0.162226 -1.139945 0.000000 
0.223062 -0.992156 0.000000 
0.209613 -1.039730 0.000000 
0.256854 -1.073842 0.000000 
0.229092 -1.125074 0.000000 
0.261851 -1.162101 0.000000 
0.302189 -0.929299 0.000000 
0.290702 -0.976034 0.000000 
0.341985 -1.008833 0.000000 
0.321587 -1.059067 0.000000 
0.361761 -1.095476 0.000000 
0.329787 -1.147278 0.000000 
0.360414 -1.184401 0.000000 
0.381315 -0.866443 0.000000 
0.370772 -0.912670 0.000000 
0.425037 -0.944299 0.000000 
0.407738 -0.993727 0.000000 
0.453135 -1.029043 0.000000 
0.427556 -1.080557 0.000000 
0.464588 -1.117585 0.000000 
0.429420 -1.169627 0.000000 
0.458977 -1.206701 0.000000 
0.026061 -1.078351 0.000000 
0.028809 -0.972645 0.000000 
0.054870 -1.018528 0.000000 
0.106992 -1.010296 0.000000 
0.029377 -0.870588 0.000000 
0.058186 -0.910765 0.000000 
0.114311 -0.895099 0.000000 
0.137056 -0.948747 0.000000 
0.186430 -0.946220 0.000000 
0.029568 -0.769533 0.000000 
0.058945 -0.807653 0.000000 
0.116563 -0.788008 0.000000 
0.143120 -0.835276 0.000000 
0.196633 -0.826568 0.000000 
0.217198 -0.883864 0.000000 
0.265318 -0.883065 0.000000 
0.029759 -0.668479 0.000000 
0.059328 -0.705545 0.000000 
0.117890 -0.682839 0.000000 
0.145749 -0.727182 0.000000 
0.201664 -0.713708 0.000000 
0.225992 -0.765825 0.000000 
0.278030 -0.759959 0.000000 
0.296791 -0.819902 0.000000 
0.344206 -0.819909 0.000000 
VECTORS X_EC float 
0.338794 -0.942258 0.000000 
-0.609100 0.138993 0.000000 
0.713312 0.250134 0.000000 
0.374519 -0.369295 0.000000 
0.423588 -0.726026 0.000000 
-0.218274 -0.691922 0.000000 
-0.513962 0.583839 0.000000 
0.756418 0.795325 0.000000 
0.381900 0.252933 0.000000 
-0.550868 0.421371 0.000000 
0.823577 0.432167 0.000000 
0.556234 -0.341338 0.000000 
-0.139443 -0.223769 0.000000 
-0.484677 -0.861893 0.000000 
0.766286 -0.596678 0.000000 
0.384386 0.888702 0.000000 
0.474677 -0.431232 0.000000 
-0.141715 -0.431329 0.000000 
-0.385608 0.759443 0.000000 
0.937896 0.838639 0.000000 
0.621631 0.135059 0.000000 
-0.105264 0.316958 0.000000 
-0.467428 -0.281668 0.000000 
0.771260 0.024860 0.000000 
0.386873 -0.475529 0.000000 
0.761262 -0.392124 0.000000 
0.108942 -0.110747 0.000000 
-0.397202 -0.591586 0.000000 
-0.142083 0.747138 0.000000 
-0.595936 0.188364 0.000000 
0.978194 -0.311502 0.000000 
-0.660903 0.996873 0.000000 
0.724964 0.536353 0.000000 
0.899809 -0.105896 0.000000 
0.685384 0.489416 0.000000 
0.287229 -0.011743 0.000000 
0.702895 -0.711071 0.000000 
0.180633 0.797410 0.000000 
0.445811 0.119251 0.000000 
-0.220880 -0.323535 0.000000 
-0.071546 -0.954461 0.000000 
-0.033296 0.790468 0.000000 
-0.417537 0.289958 0.000000 
0.039645 -0.412604 0.000000 
-0.441768 -0.912475 0.000000 
-0.109248 0.392074 0.000000 
-0.699407 -0.084682 0.000000 
-0.474522 -0.751961 0.000000 
0.820030 0.821046 0.000000 
0.957100 0.196974 0.000000 
0.610485 0.293883 0.000000 
-0.761092 -0.436498 0.000000 
-0.714655 0.852765 0.000000 
-0.057734 0.647597 0.000000 
-0.178789 0.801506 0.000000 
-0.067979 0.144080 0.000000 
0.677748 0.005877 0.000000 
0.641556 -0.779868 0.000000 
-0.765897 0.961653 0.000000 
0.393446 0.029515 0.000000 
0.522510 -0.606215 0.000000 
-0.691820 -0.704759 0.000000 
-0.647393 0.564759 0.000000 
0.028512 0.357232 0.000000 
-0.053800 -0.460128 0.000000 
0.514316 -0.732259 0.000000 
0.965681 -0.742476 0.000000 
-0.897068 0.633496 0.000000 
-0.083078 0.566643 0.000000 
-0.006893 -0.135882 0.000000 
0.724017 -0.299515 0.000000 
0.714996 0.924082 0.000000 
-0.642413 0.690624 0.000000 
-0.760780 -0.148356 0.000000 
-0.205471 -0.426172 0.000000 
0.000000 0.599184 0.000000 
-0.564049 -0.099003 0.000000 
0.000000 -0.504439 0.000000 
0.564049 -0.099003 0.000000 
0.866949 -0.854348 0.000000 
-0.569003 0.825721 0.000000 
0.000000 -0.654991 0.000000 
0.569003 0.825721 0.000000 
-0.866949 -0.854348 0.000000 
0.299194 0.375903 0.000000 
0.858290 0.084319 0.000000 
-0.577662 0.660764 0.000000 
0.000000 0.241386 0.000000 
0.577662 0.660764 0.000000 
-0.858290 0.084319 0.000000 
-0.299194 0.375903 0.000000 
-0.268560 -0.393847 0.000000 
0.286830 -0.671489 0.000000 
0.844677 -0.052291 0.000000 
-0.578910 -0.428454 0.000000 
0.000000 0.062950 0.000000 
0.578910 -0.428454 0.000000 
-0.844677 -0.052291 0.000000 
-0.286830 -0.671489 0.000000 
0.268560 -0.393847 0.000000 
-0.610485 0.293883 0.000000 
0.057734 0.647597 0.000000 
0.714655 0.852765 0.000000 
0.761092 -0.436498 0.000000 
0.765897 0.961653 0.000000 
-0.641556 -0.779868 0.000000 
-0.677748 0.005877 0.000000 
0.067979 0.144080 0.000000 
0.178789 0.801506 0.000000 
-0.514316 -0.732259 0.000000 
0.053800 -0.460128 0.000000 
-0.028512 0.357232 0.000000 
0.647393 0.564759 0.000000 
0.691820 -0.704759 0.000000 
-0.522510 -0.606215 0.000000 
-0.393446 0.029515 0.000000 
0.205471 -0.426172 0.000000 
0.760780 -0.148356 0.000000 
0.642413 0.690624 0.000000 
-0.714996 0.924082 0.000000 
-0.724017 -0.299515 0.000000 
0.006894 -0.135882 0.000000 
0.083078 0.566643 0.000000 
0.897068 0.633496 0.000000 
-0.965681 -0.742476 0.000000 
-0.761262 -0.392124 0.000000 
0.142083 0.747138 0.000000 
0.397202 -0.591586 0.000000 
-0.108942 -0.110747 0.000000 
-0.899809 -0.105896 0.000000 
-0.724964 0.536353 0.000000 
0.660903 0.996873 0.000000 
-0.978194 -0.311502 0.000000 
0.595936 0.188364 0.000000 
0.071546 -0.954461 0.000000 
0.220880 -0.323535 0.000000 
-0.445811 0.119251 0.000000 
-0.180633 0.797410 0.000000 
-0.702895 -0.711071 0.000000 
-0.287229 -0.011743 0.000000 
-0.685384 0.489416 0.000000 
-0.957100 0.196974 0.000000 
-0.820030 0.821046 0.000000 
0.474522 -0.751961 0.000000 
0.699407 -0.084681 0.000000 
0.109248 0.392074 0.000000 
0.441768 -0.912475 0.000000 
-0.039645 -0.412604 0.000000 
0.417537 0.289958 0.000000 
0.033296 0.790468 0.000000 
-0.338794 -0.942258 0.000000 
-0.374519 -0.369295 0.000000 
-0.713312 0.250134 0.000000 
0.609100 0.138993 0.000000 
-0.381900 0.252933 0.000000 
-0.756418 0.795325 0.000000 
0.513962 0.583839 0.000000 
0.218274 -0.691922 0.000000 
-0.423588 -0.726026 0.000000 
-0.384386 0.888702 0.000000 
-0.766286 -0.596678 0.000000 
0.484677 -0.861893 0.000000 
0.139443 -0.223769 0.000000 
-0.556234 -0.341338 0.000000 
-0.823577 0.432167 0.000000 
0.550868 0.421371 0.000000 
-0.386873 -0.475529 0.000000 
-0.771260 0.024860 0.000000 
0.467428 -0.281668 0.000000 
0.105264 0.316958 0.000000 
-0.621631 0.135059 0.000000 
-0.937896 0.838639 0.000000 
0.385608 0.759443 0.000000 
0.141715 -0.431329 0.000000 
-0.474677 -0.431232 0.000000 
CELL_DATA 175 
SCALARS MASS float 
LOOKUP_TABLE default 
0.781831 
0.864274 
0.946717 
0.864274 
0.881307 
0.921110 
0.858535 
0.921110 
0.881307 
0.887046 
0.910001 
0.869829 
0.915556 
0.869829 
0.910001 
0.887046 
0.892784 
0.915740 
0.892784 
0.927218 
0.892784 
0.927218 
0.892784 
0.915740 
0.892784 
0.781831 
0.864274 
0.946717 
0.864274 
0.881307 
0.921110 
0.858535 
0.921110 
0.881307 
0.887046 
0.910001 
0.869829 
0.915556 
0.869829 
0.910001 
0.887046 
0.892784 
0.915740 
0.892784 
0.927218 
0.892784 
0.927218 
0.892784 
0.915740 
0.892784 
0.781831 
0.864274 
0.946717 
0.864274 
0.881307 
0.921110 
0.858535 
0.921110 
0.881307 
0.887046 
0.910001 
0.869829 
0.915556 
0.869829 
0.910001 
0.887046 
0.892784 
0.915740 
0.892784 
0.927218 
0.892784 
0.927218 
0.892784 
0.915740 
0.892784 
0.781831 
0.864274 
0.946717 
0.864274 
0.881307 
0.921110 
0.858535 
0.921110 
0.881307 
0.887046 
0.910001 
0.869829 
0.915556 
0.869829 
0.910001 
0.887046 
0.892784 
0.915740 
0.892784 
0.927218 
0.892784 
0.927218 
0.892784 
0.915740 
0.892784 
0.781831 
0.864274 
0.946717 
0.864274 
0.881307 
0.921110 
0.858535 
0.921110 
0.881307 
0.887046 
0.910001 
0.869829 
0.915556 
0.869829 
0.910001 
0.887046 
0.892784 
0.915740 
0.892784 
0.927218 
0.892784 
0.927218 
0.892784 
0.915740 
0.892784 
0.781831 
0.864274 
0.946717 
0.864274 
0.881307 
0.921110 
0.858535 
0.921110 
0.881307 
0.887046 
0.910001 
0.869829 
0.915556 
0.869829 
0.910001 
0.887046 
0.892784 
0.915740 
0.892784 
0.927218 
0.892784 
0.927218 
0.892784 
0.915740 
0.892784 
0.781831 
0.864274 
0.946717 
0.864274 
0.881307 
0.921110 
0.858535 
0.921110 
0.881307 
0.887046 
0.910001 
0.869829 
0.915556 
0.869829 
0.910001 
0.887046 
0.892784 
0.915740 
0.892784 
0.927218 
0.892784 
0.927218 
0.892784 
0.915740 
0.892784 
SCALARS MASS float 
LOOKUP_TABLE default 
0.781831 
0.864274 
0.946717 
0.864274 
0.881307 
0.921110 
0.858535 
0.921110 
0.881307 
0.887046 
0.910001 
0.869829 
0.915556 
0.869829 
0.910001 
0.887046 
0.892784 
0.915740 
0.892784 
0.927218 
0.892784 
0.927218 
0.892784 
0.915740 
0.892784 
0.781831 
0.864274 
0.946717 
0.864274 
0.881307 
0.921110 
0.858535 
0.921110 
0.881307 
0.887046 
0.910001 
0.869829 
0.915556 
0.869829 
0.910001 
0.887046 
0.892784 
0.915740 
0.892784 
0.927218 
0.892784 
0.927218 
0.892784 
0.915740 
0.892784 
0.781831 
0.864274 
0.946717 
0.864274 
0.881307 
0.921110 
0.858535 
0.921110 
0.881307 
0.887046 
0.910001 
0.869829 
0.915556 
0.869829 
0.910001 
0.887046 
0.892784 
0.915740 
0.892784 
0.927218 
0.892784 
0.927218 
0.892784 
0.915740 
0.892784 
0.781831 
0.864274 
0.946717 
0.864274 
0.881307 
0.921110 
0.858535 
0.921110 
0.881307 
0.887046 
0.910001 
0.869829 
0.915556 
0.869829 
0.910001 
0.887046 
0.892784 
0.915740 
0.892784 
0.927218 
0.892784 
0.927218 
0.892784 
0.915740 
0.892784 
0.781831 
0.864274 
0.946717 
0.864274 
0.881307 
0.921110 
0.858535 
0.921110 
0.881307 
0.887046 
0.910001 
0.869829 
0.915556 
0.869829 
0.910001 
0.887046 
0.892784 
0.915740 
0.892784 
0.927218 
0.892784 
0.927218 
0.892784 
0.915740 
0.892784 
0.781831 
0.864274 
0.946717 
0.864274 
0.881307 
0.921110 
0.858535 
0.921110 
0.881307 
0.887046 
0.910001 
0.869829 
0.915556 
0.869829 
0.910001 
0.887046 
0.892784 
0.915740 
0.892784 
0.927218 
0.892784 
0.927218 
0.892784 
0.915740 
0.892784 
0.781831 
0.864274 
0.946717 
0.864274 
0.881307 
0.921110 
0.858535 
0.921110 
0.881307 
0.887046 
0.910001 
0.869829 
0.915556 
0.869829 
0.910001 
0.887046 
0.892784 
0.915740 
0.892784 
0.927218 
0.892784 
0.927218 
0.892784 
0.915740 
0.892784 
SCALARS DENSITY float 
LOOKUP_TABLE default 
200.000000 
200.000000 
200.000000 
200.000000 
200.000000 
200.000000 
200.000000 
200.000000 
200.000000 
200.000000 
200.000000 
200.000000 
200.000000 
200.000000 
200.000000 
200.000000 
200.000000 
200.000000 
200.000000 
200.000000 
200.000000 
200.000000 
200.000000 
200.000000 
200.000000 
200.000000 
200.000000 
200.000000 
200.000000 
200.000000 
200.000000 
200.000000 
200.000000 
200.000000 
200.000000 
200.000000 
200.000000 
200.000000 
200.000000 
200.000000 
200.000000 
200.000000 
200.000000 
200.000000 
200.000000 
200.000000 
200.000000 
200.000000 
200.000000 
200.000000 
200.000000 
200.000000 
200.000000 
200.000000 
200.000000 
200.000000 
200.000000 
200.000000 
200.000000 
200.000000 
200.000000 
200.000000 
200.000000 
200.000000 
200.000000 
200.000000 
200.000000 
200.000000 
200.000000 
200.000000 
200.000000 
200.000000 
200.000000 
200.000000 
200.000000 
200.000000 
200.000000 
200.000000 
200.000000 
200.000000 
200.000000 
200.000000 
200.000000 
200.000000 
200.000000 
200.000000 
200.000000 
200.000000 
200.000000 
200.000000 
200.000000 
200.000000 
200.000000 
200.000000 
200.000000 
200.000000 
200.000000 
200.000000 
200.000000 
200.000000 
200.000000 
200.000000 
200.000000 
200.000000 
200.000000 
200.000000 
200.000000 
200.000000 
200.000000 
200.000000 
200.000000 
200.000000 
200.000000 
200.000000 
200.000000 
200.000000 
200.000000 
200.000000 
200.000000 
200.000000 
200.000000 
200.000000 
200.000000 
200.000000 
200.000000 
200.000000 
200.000000 
200.000000 
200.000000 
200.000000 
200.000000 
200.000000 
200.000000 
200.000000 
200.000000 
200.000000 
200.000000 
200.000000 
200.000000 
200.000000 
200.000000 
200.000000 
200.000000 
200.000000 
200.000000 
200.000000 
200.000000 
200.000000 
200.000000 
200.000000 
200.000000 
200.000000 
200.000000 
200.000000 
200.000000 
200.000000 
200.000000 
200.000000 
200.000000 
200.000000 
200.000000 
200.000000 
200.000000 
200.000000 
200.000000 
200.000000 
200.000000 
200.000000 
200.000000 
200.000000 
200.000000 
200.000000 
200.000000 
200.000000 
200.000000 
SCALARS ELEM_i float 
LOOKUP_TABLE default 
174 
202 
175 
175 
202 
202 
203 
176 
176 
230 
203 
203 
203 
203 
176 
177 
230 
230 
231 
204 
204 
204 
204 
177 
177 
174 
201 
201 
202 
228 
201 
229 
202 
202 
228 
228 
228 
229 
229 
229 
229 
255 
255 
255 
255 
256 
256 
256 
230 
230 
174 
200 
201 
201 
200 
200 
200 
200 
228 
199 
199 
226 
227 
227 
227 
227 
198 
226 
226 
226 
226 
227 
254 
254 
254 
174 
173 
173 
173 
145 
173 
172 
173 
199 
145 
145 
172 
172 
172 
199 
199 
144 
144 
144 
171 
171 
171 
198 
198 
198 
174 
147 
147 
146 
120 
146 
146 
146 
146 
119 
119 
119 
119 
118 
145 
145 
92 
92 
92 
119 
118 
118 
118 
118 
144 
174 
148 
147 
147 
148 
148 
121 
147 
120 
121 
121 
121 
121 
120 
120 
120 
122 
122 
94 
94 
94 
93 
93 
93 
93 
174 
175 
175 
148 
176 
176 
149 
148 
148 
177 
176 
149 
149 
149 
149 
122 
177 
177 
150 
150 
150 
150 
123 
122 
122 
VECTORS VELOCITY float 
-0.000000 -4.712724 0.000000 
-0.000000 -4.712724 0.000000 
-0.000000 -4.712724 0.000000 
0.000000 -4.712724 0.000000 
0.000000 -4.712724 0.000000 
0.000000 -4.712724 0.000000 
0.000000 -4.712724 0.000000 
0.000000 -4.712724 0.000000 
0.000000 -4.712724 0.000000 
0.000000 -4.712724 0.000000 
0.000000 -4.712724 0.000000 
0.000000 -4.712724 0.000000 
0.000000 -4.712724 0.000000 
0.000000 -4.712724 0.000000 
0.000000 -4.712724 0.000000 
0.000000 -4.712724 0.000000 
-0.000000 -4.712724 0.000000 
-0.000000 -4.712724 0.000000 
-0.000000 -4.712724 0.000000 
0.000000 -4.712724 0.000000 
0.000000 -4.712724 0.000000 
0.000000 -4.712724 0.000000 
-0.000000 -4.712724 0.000000 
-0.000000 -4.712724 0.000000 
0.000000 -4.712724 0.000000 
-0.000000 -4.712724 0.000000 
0.000000 -4.712724 0.000000 
-0.000000 -4.712724 0.000000 
-0.000000 -4.712724 0.000000 
0.000000 -4.712724 0.000000 
0.000000 -4.712724 0.000000 
0.000000 -4.712724 0.000000 
0.000000 -4.712724 0.000000 
0.000000 -4.712724 0.000000 
-0.000000 -4.712724 0.000000 
0.000000 -4.712724 0.000000 
0.000000 -4.712724 0.000000 
0.000000 -4.712724 0.000000 
0.000000 -4.712724 0.000000 
0.000000 -4.712724 0.000000 
-0.000000 -4.712724 0.000000 
0.000000 -4.712724 0.000000 
-0.000000 -4.712724 0.000000 
0.000000 -4.712724 0.000000 
0.000000 -4.712724 0.000000 
0.000000 -4.712724 0.000000 
0.000000 -4.712724 0.000000 
0.000000 -4.712724 0.000000 
0.000000 -4.712724 0.000000 
0.000000 -4.712724 0.000000 
-0.000000 -4.712724 0.000000 
-0.000000 -4.712724 0.000000 
-0.000000 -4.712724 0.000000 
-0.000000 -4.712724 0.000000 
-0.000000 -4.712724 0.000000 
-0.000000 -4.712724 0.000000 
0.000000 -4.712724 0.000000 
0.000000 -4.712724 0.000000 
0.000000 -4.712724 0.000000 
-0.000000 -4.712724 0.000000 
-0.000000 -4.712724 0.000000 
-0.000000 -4.712724 0.000000 
0.000000 -4.712724 0.000000 
-0.000000 -4.712724 0.000000 
0.000000 -4.712724 0.000000 
-0.000000 -4.712724 0.000000 
0.000000 -4.712724 0.000000 
-0.000000 -4.712724 0.000000 
0.000000 -4.712724 0.000000 
-0.000000 -4.712724 0.000000 
-0.000000 -4.712724 0.000000 
-0.000000 -4.712724 0.000000 
0.000000 -4.712724 0.000000 
-0.000000 -4.712724 0.000000 
0.000000 -4.712724 0.000000 
-0.000000 -4.712724 0.000000 
-0.000000 -4.712724 0.000000 
-0.000000 -4.712724 0.000000 
-0.000000 -4.712724 0.000000 
0.000000 -4.712724 0.000000 
-0.000000 -4.712724 0.000000 
-0.000000 -4.712724 0.000000 
-0.000000 -4.712724 0.000000 
-0.000000 -4.712724 0.000000 
-0.000000 -4.712724 0.000000 
-0.000000 -4.712724 0.000000 
-0.000000 -4.712724 0.000000 
-0.000000 -4.712724 0.000000 
-0.000000 -4.712724 0.000000 
-0.000000 -4.712724 0.000000 
-0.000000 -4.712724 0.000000 
-0.000000 -4.712724 0.000000 
-0.000000 -4.712724 0.000000 
-0.000000 -4.712724 0.000000 
-0.000000 -4.712724 0.000000 
-0.000000 -4.712724 0.000000 
-0.000000 -4.712724 0.000000 
-0.000000 -4.712724 0.000000 
0.000000 -4.712724 0.000000 
0.000000 -4.712724 0.000000 
0.000000 -4.712724 0.000000 
-0.000000 -4.712724 0.000000 
-0.000000 -4.712724 0.000000 
-0.000000 -4.712724 0.000000 
-0.000000 -4.712724 0.000000 
-0.000000 -4.712724 0.000000 
0.000000 -4.712724 0.000000 
0.000000 -4.712724 0.000000 
0.000000 -4.712724 0.000000 
0.000000 -4.712724 0.000000 
0.000000 -4.712724 0.000000 
0.000000 -4.712724 0.000000 
0.000000 -4.712724 0.000000 
0.000000 -4.712724 0.000000 
0.000000 -4.712724 0.000000 
-0.000000 -4.712724 0.000000 
-0.000000 -4.712724 0.000000 
0.000000 -4.712724 0.000000 
0.000000 -4.712724 0.000000 
0.000000 -4.712724 0.000000 
-0.000000 -4.712724 0.000000 
-0.000000 -4.712724 0.000000 
-0.000000 -4.712724 0.000000 
-0.000000 -4.712724 0.000000 
0.000000 -4.712724 0.000000 
-0.000000 -4.712724 0.000000 
0.000000 -4.712724 0.000000 
0.000000 -4.712724 0.000000 
0.000000 -4.712724 0.000000 
0.000000 -4.712724 0.000000 
0.000000 -4.712724 0.000000 
0.000000 -4.712724 0.000000 
0.000000 -4.712724 0.000000 
-0.000000 -4.712724 0.000000 
-0.000000 -4.712724 0.000000 
-0.000000 -4.712724 0.000000 
0.000000 -4.712724 0.000000 
0.000000 -4.712724 0.000000 
0.000000 -4.712724 0.000000 
-0.000000 -4.712724 0.000000 
-0.000000 -4.712724 0.000000 
-0.000000 -4.712724 0.000000 
-0.000000 -4.712724 0.000000 
0.000000 -4.712724 0.000000 
-0.000000 -4.712724 0.000000 
-0.000000 -4.712724 0.000000 
0.000000 -4.712724 0.000000 
-0.000000 -4.712724 0.000000 
0.000000 -4.712724 0.000000 
-0.000000 -4.712724 0.000000 
-0.000000 -4.712724 0.000000 
0.000000 -4.712724 0.000000 
0.000000 -4.712724 0.000000 
0.000000 -4.712724 0.000000 
0.000000 -4.712724 0.000000 
0.000000 -4.712724 0.000000 
0.000000 -4.712724 0.000000 
0.000000 -4.712724 0.000000 
-0.000000 -4.712724 0.000000 
0.000000 -4.712724 0.000000 
-0.000000 -4.712724 0.000000 
-0.000000 -4.712724 0.000000 
0.000000 -4.712724 0.000000 
0.000000 -4.712724 0.000000 
-0.000000 -4.712724 0.000000 
-0.000000 -4.712724 0.000000 
0.000000 -4.712724 0.000000 
0.000000 -4.712724 0.000000 
0.000000 -4.712724 0.000000 
0.000000 -4.712724 0.000000 
0.000000 -4.712724 0.000000 
0.000000 -4.712724 0.000000 
0.000000 -4.712724 0.000000 
0.000000 -4.712724 0.000000 
0.000000 -4.712724 0.000000 
TENSORS STRESS float 
0.000000 -0.000000 0.000000 
0.000000 0.000000 0.000000 
0.000000 0.000000 0.000000 

0.000000 0.000000 0.000000 
0.000000 0.000000 0.000000 
0.000000 0.000000 0.000000 

0.000000 0.000000 0.000000 
0.000000 0.000000 0.000000 
0.000000 0.000000 0.000000 

0.000000 -0.000000 0.000000 
0.000000 0.000000 0.000000 
0.000000 0.000000 0.000000 

-0.000000 0.000000 0.000000 
0.000000 -0.000000 0.000000 
0.000000 0.000000 0.000000 

0.000000 0.000000 0.000000 
0.000000 0.000000 0.000000 
0.000000 0.000000 0.000000 

-0.000000 0.000000 0.000000 
0.000000 -0.000000 0.000000 
0.000000 0.000000 0.000000 

-0.000000 -0.000000 0.000000 
0.000000 -0.000000 0.000000 
0.000000 0.000000 0.000000 

-0.000000 -0.000000 0.000000 
0.000000 -0.000000 0.000000 
0.000000 0.000000 0.000000 

0.000000 -0.000000 0.000000 
0.000000 0.000000 0.000000 
0.000000 0.000000 0.000000 

-0.000000 0.000000 0.000000 
0.000000 -0.000000 0.000000 