# vtk DataFile Version 3.0 
vtk output 
ASCII 
DATASET UNSTRUCTURED_GRID 
POINTS 175 float 
-0.026061 0.020570 0.000000 
-0.106992 0.088625 0.000000 
-0.054870 0.080392 0.000000 
-0.028809 0.126276 0.000000 
-0.186430 0.152701 0.000000 
-0.137056 0.150174 0.000000 
-0.114311 0.203822 0.000000 
-0.058186 0.188156 0.000000 
-0.029377 0.228333 0.000000 
-0.265318 0.215856 0.000000 
-0.217198 0.215057 0.000000 
-0.196633 0.272353 0.000000 
-0.143120 0.263645 0.000000 
-0.116563 0.310913 0.000000 
-0.058945 0.291267 0.000000 
-0.029568 0.329387 0.000000 
-0.344206 0.279012 0.000000 
-0.296791 0.279019 0.000000 
-0.278030 0.338962 0.000000 
-0.225992 0.333096 0.000000 
-0.201664 0.385213 0.000000 
-0.145749 0.371739 0.000000 
-0.117890 0.416082 0.000000 
-0.059328 0.393376 0.000000 
-0.029759 0.430442 0.000000 
-0.058559 -0.020181 0.000000 
-0.162226 -0.041024 0.000000 
-0.123292 -0.005406 0.000000 
-0.142917 0.043577 0.000000 
-0.261851 -0.063180 0.000000 
-0.229092 -0.026153 0.000000 
-0.256854 0.025078 0.000000 
-0.209613 0.059191 0.000000 
-0.223062 0.106765 0.000000 
-0.360414 -0.085480 0.000000 
-0.329787 -0.048357 0.000000 
-0.361761 0.003445 0.000000 
-0.321587 0.039853 0.000000 
-0.341985 0.090088 0.000000 
-0.290702 0.122886 0.000000 
-0.302189 0.169622 0.000000 
-0.458977 -0.107780 0.000000 
-0.429420 -0.070706 0.000000 
-0.464588 -0.018664 0.000000 
-0.427556 0.018364 0.000000 
-0.453135 0.069878 0.000000 
-0.407738 0.105194 0.000000 
-0.425037 0.154622 0.000000 
-0.370772 0.186251 0.000000 
-0.381315 0.232478 0.000000 
-0.046960 -0.070996 0.000000 
-0.095301 -0.165042 0.000000 
-0.098873 -0.112395 0.000000 
-0.149405 -0.097197 0.000000 
-0.140093 -0.256746 0.000000 
-0.148617 -0.208048 0.000000 
-0.205981 -0.197811 0.000000 
-0.203197 -0.139607 0.000000 
-0.248777 -0.120461 0.000000 
-0.184111 -0.347710 0.000000 
-0.194039 -0.300619 0.000000 
-0.254475 -0.293319 0.000000 
-0.257893 -0.239209 0.000000 
-0.309886 -0.223837 0.000000 
-0.303554 -0.163292 0.000000 
-0.347255 -0.143134 0.000000 
-0.228129 -0.438673 0.000000 
-0.238687 -0.392449 0.000000 
-0.301302 -0.387497 0.000000 
-0.307162 -0.335458 0.000000 
-0.363386 -0.323337 0.000000 
-0.362692 -0.265826 0.000000 
-0.412122 -0.248533 0.000000 
-0.403017 -0.186386 0.000000 
-0.445733 -0.165807 0.000000 
-0.000000 -0.093611 0.000000 
0.043388 -0.190042 0.000000 
-0.000000 -0.160010 0.000000 
-0.043388 -0.190042 0.000000 
0.087158 -0.282239 0.000000 
0.043769 -0.258540 0.000000 
-0.000000 -0.297006 0.000000 
-0.043769 -0.258540 0.000000 
-0.087158 -0.282239 0.000000 
0.130831 -0.373368 0.000000 
0.087824 -0.351769 0.000000 
0.044436 -0.394469 0.000000 
-0.000000 -0.363404 0.000000 
-0.044436 -0.394469 0.000000 
-0.087824 -0.351769 0.000000 
-0.130831 -0.373368 0.000000 
0.174505 -0.464498 0.000000 
0.131782 -0.443932 0.000000 
0.088871 -0.489798 0.000000 
0.044532 -0.461934 0.000000 
-0.000000 -0.498335 0.000000 
-0.044532 -0.461934 0.000000 
-0.088871 -0.489798 0.000000 
-0.131782 -0.443932 0.000000 
-0.174505 -0.464498 0.000000 
0.046960 -0.070996 0.000000 
0.149405 -0.097197 0.000000 
0.098873 -0.112395 0.000000 
0.095301 -0.165042 0.000000 
0.248777 -0.120461 0.000000 
0.203197 -0.139607 0.000000 
0.205981 -0.197811 0.000000 
0.148617 -0.208048 0.000000 
0.140093 -0.256746 0.000000 
0.347255 -0.143134 0.000000 
0.303554 -0.163292 0.000000 
0.309886 -0.223837 0.000000 
0.257893 -0.239209 0.000000 
0.254475 -0.293319 0.000000 
0.194039 -0.300619 0.000000 
0.184111 -0.347710 0.000000 
0.445733 -0.165807 0.000000 
0.403017 -0.186386 0.000000 
0.412122 -0.248533 0.000000 
0.362692 -0.265826 0.000000 
0.363386 -0.323337 0.000000 
0.307162 -0.335458 0.000000 
0.301302 -0.387497 0.000000 
0.238687 -0.392449 0.000000 
0.228129 -0.438673 0.000000 
0.058559 -0.020181 0.000000 
0.142917 0.043577 0.000000 
0.123292 -0.005406 0.000000 
0.162226 -0.041024 0.000000 
0.223062 0.106765 0.000000 
0.209613 0.059191 0.000000 
0.256854 0.025078 0.000000 
0.229092 -0.026153 0.000000 
0.261851 -0.063180 0.000000 
0.302189 0.169622 0.000000 
0.290702 0.122886 0.000000 
0.341985 0.090088 0.000000 
0.321587 0.039853 0.000000 
0.361761 0.003445 0.000000 
0.329787 -0.048357 0.000000 
0.360414 -0.085480 0.000000 
0.381315 0.232478 0.000000 
0.370772 0.186251 0.000000 
0.425037 0.154622 0.000000 
0.407738 0.105194 0.000000 
0.453135 0.069878 0.000000 
0.427556 0.018364 0.000000 
0.464588 -0.018664 0.000000 
0.429420 -0.070706 0.000000 
0.458977 -0.107780 0.000000 
0.026061 0.020570 0.000000 
0.028809 0.126276 0.000000 
0.054870 0.080392 0.000000 
0.106992 0.088625 0.000000 
0.029377 0.228333 0.000000 
0.058186 0.188156 0.000000 
0.114311 0.203822 0.000000 
0.137056 0.150174 0.000000 
0.186430 0.152701 0.000000 
0.029568 0.329387 0.000000 
0.058945 0.291267 0.000000 
0.116563 0.310913 0.000000 
0.143120 0.263645 0.000000 
0.196633 0.272353 0.000000 
0.217198 0.215057 0.000000 
0.265318 0.215856 0.000000 
0.029759 0.430442 0.000000 
0.059328 0.393376 0.000000 
0.117890 0.416082 0.000000 
0.145749 0.371739 0.000000 
0.201664 0.385213 0.000000 
0.225992 0.333096 0.000000 
0.278030 0.338962 0.000000 
0.296791 0.279019 0.000000 
0.344206 0.279012 0.000000 
CELLS 175 350 
1 0 
1 1 
1 2 
1 3 
1 4 
1 5 
1 6 
1 7 
1 8 
1 9 
1 10 
1 11 
1 12 
1 13 
1 14 
1 15 
1 16 
1 17 
1 18 
1 19 
1 20 
1 21 
1 22 
1 23 
1 24 
1 25 
1 26 
1 27 
1 28 
1 29 
1 30 
1 31 
1 32 
1 33 
1 34 
1 35 
1 36 
1 37 
1 38 
1 39 
1 40 
1 41 
1 42 
1 43 
1 44 
1 45 
1 46 
1 47 
1 48 
1 49 
1 50 
1 51 
1 52 
1 53 
1 54 
1 55 
1 56 
1 57 
1 58 
1 59 
1 60 
1 61 
1 62 
1 63 
1 64 
1 65 
1 66 
1 67 
1 68 
1 69 
1 70 
1 71 
1 72 
1 73 
1 74 
1 75 
1 76 
1 77 
1 78 
1 79 
1 80 
1 81 
1 82 
1 83 
1 84 
1 85 
1 86 
1 87 
1 88 
1 89 
1 90 
1 91 
1 92 
1 93 
1 94 
1 95 
1 96 
1 97 
1 98 
1 99 
1 100 
1 101 
1 102 
1 103 
1 104 
1 105 
1 106 
1 107 
1 108 
1 109 
1 110 
1 111 
1 112 
1 113 
1 114 
1 115 
1 116 
1 117 
1 118 
1 119 
1 120 
1 121 
1 122 
1 123 
1 124 
1 125 
1 126 
1 127 
1 128 
1 129 
1 130 
1 131 
1 132 
1 133 
1 134 
1 135 
1 136 
1 137 
1 138 
1 139 
1 140 
1 141 
1 142 
1 143 
1 144 
1 145 
1 146 
1 147 
1 148 
1 149 
1 150 
1 151 
1 152 
1 153 
1 154 
1 155 
1 156 
1 157 
1 158 
1 159 
1 160 
1 161 
1 162 
1 163 
1 164 
1 165 
1 166 
1 167 
1 168 
1 169 
1 170 
1 171 
1 172 
1 173 
1 174 
CELL_TYPES 175 
1 
1 
1 
1 
1 
1 
1 
1 
1 
1 
1 
1 
1 
1 
1 
1 
1 
1 
1 
1 
1 
1 
1 
1 
1 
1 
1 
1 
1 
1 
1 
1 
1 
1 
1 
1 
1 
1 
1 
1 
1 
1 
1 
1 
1 
1 
1 
1 
1 
1 
1 
1 
1 
1 
1 
1 
1 
1 
1 
1 
1 
1 
1 
1 
1 
1 
1 
1 
1 
1 
1 
1 
1 
1 
1 
1 
1 
1 
1 
1 
1 
1 
1 
1 
1 
1 
1 
1 
1 
1 
1 
1 
1 
1 
1 
1 
1 
1 
1 
1 
1 
1 
1 
1 
1 
1 
1 
1 
1 
1 
1 
1 
1 
1 
1 
1 
1 
1 
1 
1 
1 
1 
1 
1 
1 
1 
1 
1 
1 
1 
1 
1 
1 
1 
1 
1 
1 
1 
1 
1 
1 
1 
1 
1 
1 
1 
1 
1 
1 
1 
1 
1 
1 
1 
1 
1 
1 
1 
1 
1 
1 
1 
1 
1 
1 
1 
1 
1 
1 
1 
1 
1 
1 
1 
1 
POINT_DATA 175 
VECTORS X_GC float 
-0.026061 0.020570 0.000000 
-0.106992 0.088625 0.000000 
-0.054870 0.080392 0.000000 
-0.028809 0.126276 0.000000 
-0.186430 0.152701 0.000000 
-0.137056 0.150174 0.000000 
-0.114311 0.203822 0.000000 
-0.058186 0.188156 0.000000 
-0.029377 0.228333 0.000000 
-0.265318 0.215856 0.000000 
-0.217198 0.215057 0.000000 
-0.196633 0.272353 0.000000 
-0.143120 0.263645 0.000000 
-0.116563 0.310913 0.000000 
-0.058945 0.291267 0.000000 
-0.029568 0.329387 0.000000 
-0.344206 0.279012 0.000000 
-0.296791 0.279019 0.000000 
-0.278030 0.338962 0.000000 
-0.225992 0.333096 0.000000 
-0.201664 0.385213 0.000000 
-0.145749 0.371739 0.000000 
-0.117890 0.416082 0.000000 
-0.059328 0.393376 0.000000 
-0.029759 0.430442 0.000000 
-0.058559 -0.020181 0.000000 
-0.162226 -0.041024 0.000000 
-0.123292 -0.005406 0.000000 
-0.142917 0.043577 0.000000 
-0.261851 -0.063180 0.000000 
-0.229092 -0.026153 0.000000 
-0.256854 0.025078 0.000000 
-0.209613 0.059191 0.000000 
-0.223062 0.106765 0.000000 
-0.360414 -0.085480 0.000000 
-0.329787 -0.048357 0.000000 
-0.361761 0.003445 0.000000 
-0.321587 0.039853 0.000000 
-0.341985 0.090088 0.000000 
-0.290702 0.122886 0.000000 
-0.302189 0.169622 0.000000 
-0.458977 -0.107780 0.000000 
-0.429420 -0.070706 0.000000 
-0.464588 -0.018664 0.000000 
-0.427556 0.018364 0.000000 
-0.453135 0.069878 0.000000 
-0.407738 0.105194 0.000000 
-0.425037 0.154622 0.000000 
-0.370772 0.186251 0.000000 
-0.381315 0.232478 0.000000 
-0.046960 -0.070996 0.000000 
-0.095301 -0.165042 0.000000 
-0.098873 -0.112395 0.000000 
-0.149405 -0.097197 0.000000 
-0.140093 -0.256746 0.000000 
-0.148617 -0.208048 0.000000 
-0.205981 -0.197811 0.000000 
-0.203197 -0.139607 0.000000 
-0.248777 -0.120461 0.000000 
-0.184111 -0.347710 0.000000 
-0.194039 -0.300619 0.000000 
-0.254475 -0.293319 0.000000 
-0.257893 -0.239209 0.000000 
-0.309886 -0.223837 0.000000 
-0.303554 -0.163292 0.000000 
-0.347255 -0.143134 0.000000 
-0.228129 -0.438673 0.000000 
-0.238687 -0.392449 0.000000 
-0.301302 -0.387497 0.000000 
-0.307162 -0.335458 0.000000 
-0.363386 -0.323337 0.000000 
-0.362692 -0.265826 0.000000 
-0.412122 -0.248533 0.000000 
-0.403017 -0.186386 0.000000 
-0.445733 -0.165807 0.000000 
-0.000000 -0.093611 0.000000 
0.043388 -0.190042 0.000000 
-0.000000 -0.160010 0.000000 
-0.043388 -0.190042 0.000000 
0.087158 -0.282239 0.000000 
0.043769 -0.258540 0.000000 
-0.000000 -0.297006 0.000000 
-0.043769 -0.258540 0.000000 
-0.087158 -0.282239 0.000000 
0.130831 -0.373368 0.000000 
0.087824 -0.351769 0.000000 
0.044436 -0.394469 0.000000 
-0.000000 -0.363404 0.000000 
-0.044436 -0.394469 0.000000 
-0.087824 -0.351769 0.000000 
-0.130831 -0.373368 0.000000 
0.174505 -0.464498 0.000000 
0.131782 -0.443932 0.000000 
0.088871 -0.489798 0.000000 
0.044532 -0.461934 0.000000 
-0.000000 -0.498335 0.000000 
-0.044532 -0.461934 0.000000 
-0.088871 -0.489798 0.000000 
-0.131782 -0.443932 0.000000 
-0.174505 -0.464498 0.000000 
0.046960 -0.070996 0.000000 
0.149405 -0.097197 0.000000 
0.098873 -0.112395 0.000000 
0.095301 -0.165042 0.000000 
0.248777 -0.120461 0.000000 
0.203197 -0.139607 0.000000 
0.205981 -0.197811 0.000000 
0.148617 -0.208048 0.000000 
0.140093 -0.256746 0.000000 
0.347255 -0.143134 0.000000 
0.303554 -0.163292 0.000000 
0.309886 -0.223837 0.000000 
0.257893 -0.239209 0.000000 
0.254475 -0.293319 0.000000 
0.194039 -0.300619 0.000000 
0.184111 -0.347710 0.000000 
0.445733 -0.165807 0.000000 
0.403017 -0.186386 0.000000 
0.412122 -0.248533 0.000000 
0.362692 -0.265826 0.000000 
0.363386 -0.323337 0.000000 
0.307162 -0.335458 0.000000 
0.301302 -0.387497 0.000000 
0.238687 -0.392449 0.000000 
0.228129 -0.438673 0.000000 
0.058559 -0.020181 0.000000 
0.142917 0.043577 0.000000 
0.123292 -0.005406 0.000000 
0.162226 -0.041024 0.000000 
0.223062 0.106765 0.000000 
0.209613 0.059191 0.000000 
0.256854 0.025078 0.000000 
0.229092 -0.026153 0.000000 
0.261851 -0.063180 0.000000 
0.302189 0.169622 0.000000 
0.290702 0.122886 0.000000 
0.341985 0.090088 0.000000 
0.321587 0.039853 0.000000 
0.361761 0.003445 0.000000 
0.329787 -0.048357 0.000000 
0.360414 -0.085480 0.000000 
0.381315 0.232478 0.000000 
0.370772 0.186251 0.000000 
0.425037 0.154622 0.000000 
0.407738 0.105194 0.000000 
0.453135 0.069878 0.000000 
0.427556 0.018364 0.000000 
0.464588 -0.018664 0.000000 
0.429420 -0.070706 0.000000 
0.458977 -0.107780 0.000000 
0.026061 0.020570 0.000000 
0.028809 0.126276 0.000000 
0.054870 0.080392 0.000000 
0.106992 0.088625 0.000000 
0.029377 0.228333 0.000000 
0.058186 0.188156 0.000000 
0.114311 0.203822 0.000000 
0.137056 0.150174 0.000000 
0.186430 0.152701 0.000000 
0.029568 0.329387 0.000000 
0.058945 0.291267 0.000000 
0.116563 0.310913 0.000000 
0.143120 0.263645 0.000000 
0.196633 0.272353 0.000000 
0.217198 0.215057 0.000000 
0.265318 0.215856 0.000000 
0.029759 0.430442 0.000000 
0.059328 0.393376 0.000000 
0.117890 0.416082 0.000000 
0.145749 0.371739 0.000000 
0.201664 0.385213 0.000000 
0.225992 0.333096 0.000000 
0.278030 0.338962 0.000000 
0.296791 0.279019 0.000000 
0.344206 0.279012 0.000000 
VECTORS X_EC float 
0.338794 0.222310 0.000000 
-0.609100 -0.696439 0.000000 
0.713312 -0.585298 0.000000 
0.374519 0.795272 0.000000 
0.423588 0.438542 0.000000 
-0.218274 0.472645 0.000000 
-0.513962 -0.251593 0.000000 
0.756418 -0.040107 0.000000 
0.381900 -0.582500 0.000000 
-0.550868 -0.414061 0.000000 
0.823577 -0.403266 0.000000 
0.556234 0.823230 0.000000 
-0.139443 0.940799 0.000000 
-0.484677 0.302674 0.000000 
0.766286 0.567890 0.000000 
0.384386 0.053269 0.000000 
0.474677 0.733336 0.000000 
-0.141715 0.733239 0.000000 
-0.385608 -0.075989 0.000000 
0.937896 0.003206 0.000000 
0.621631 -0.700374 0.000000 
-0.105264 -0.518474 0.000000 
-0.467428 0.882899 0.000000 
0.771260 -0.810572 0.000000 
0.386873 0.689038 0.000000 
0.761262 0.772444 0.000000 
0.108942 -0.946179 0.000000 
-0.397202 0.572981 0.000000 
-0.142083 -0.088294 0.000000 
-0.595936 -0.647069 0.000000 
0.978194 0.853065 0.000000 
-0.660903 0.161440 0.000000 
0.724964 -0.299080 0.000000 
0.899809 -0.941328 0.000000 
0.685384 -0.346016 0.000000 
0.287229 -0.847175 0.000000 
0.702895 0.453497 0.000000 
0.180633 -0.038022 0.000000 
0.445811 -0.716182 0.000000 
-0.220880 0.841032 0.000000 
-0.071546 0.210107 0.000000 
-0.033296 -0.044964 0.000000 
-0.417537 -0.545474 0.000000 
0.039645 0.751964 0.000000 
-0.441768 0.252092 0.000000 
-0.109248 -0.443358 0.000000 
-0.699407 -0.920114 0.000000 
-0.474522 0.412607 0.000000 
0.820030 -0.014386 0.000000 
0.957100 -0.638458 0.000000 
0.610485 -0.541550 0.000000 
-0.761092 0.728070 0.000000 
-0.714655 0.017332 0.000000 
-0.057734 -0.187835 0.000000 
-0.178789 -0.033926 0.000000 
-0.067979 -0.691352 0.000000 
0.677748 -0.829556 0.000000 
0.641556 0.384699 0.000000 
-0.765897 0.126221 0.000000 
0.393446 -0.805917 0.000000 
0.522510 0.558353 0.000000 
-0.691820 0.459809 0.000000 
-0.647393 -0.270674 0.000000 
0.028512 -0.478200 0.000000 
-0.053800 0.704439 0.000000 
0.514316 0.432308 0.000000 
0.965681 0.422092 0.000000 
-0.897068 -0.201937 0.000000 
-0.083078 -0.268790 0.000000 
-0.006893 -0.971314 0.000000 
0.724017 0.865053 0.000000 
0.714996 0.088649 0.000000 
-0.642413 -0.144808 0.000000 
-0.760780 -0.983789 0.000000 
-0.205471 0.738396 0.000000 
0.000000 -0.236248 0.000000 
-0.564049 -0.934435 0.000000 
0.000000 0.660129 0.000000 
0.564049 -0.934435 0.000000 
0.866949 0.310220 0.000000 
-0.569003 -0.009711 0.000000 
0.000000 0.509577 0.000000 
0.569003 -0.009711 0.000000 
-0.866949 0.310220 0.000000 
0.299194 -0.459530 0.000000 
0.858290 -0.751114 0.000000 
-0.577662 -0.174668 0.000000 
0.000000 -0.594046 0.000000 
0.577662 -0.174668 0.000000 
-0.858290 -0.751114 0.000000 
-0.299194 -0.459530 0.000000 
-0.268560 0.770720 0.000000 
0.286830 0.493079 0.000000 
0.844677 -0.887723 0.000000 
-0.578910 0.736114 0.000000 
0.000000 -0.772482 0.000000 
0.578910 0.736114 0.000000 
-0.844677 -0.887723 0.000000 
-0.286830 0.493079 0.000000 
0.268560 0.770720 0.000000 
-0.610485 -0.541550 0.000000 
0.057734 -0.187835 0.000000 
0.714655 0.017332 0.000000 
0.761092 0.728070 0.000000 
0.765897 0.126221 0.000000 
-0.641556 0.384699 0.000000 
-0.677748 -0.829556 0.000000 
0.067979 -0.691352 0.000000 
0.178789 -0.033926 0.000000 
-0.514316 0.432308 0.000000 
0.053800 0.704439 0.000000 
-0.028512 -0.478200 0.000000 
0.647393 -0.270674 0.000000 
0.691820 0.459809 0.000000 
-0.522510 0.558353 0.000000 
-0.393446 -0.805917 0.000000 
0.205471 0.738396 0.000000 
0.760780 -0.983789 0.000000 
0.642413 -0.144808 0.000000 
-0.714996 0.088649 0.000000 
-0.724017 0.865053 0.000000 
0.006894 -0.971314 0.000000 
0.083078 -0.268790 0.000000 
0.897068 -0.201937 0.000000 
-0.965681 0.422092 0.000000 
-0.761262 0.772444 0.000000 
0.142083 -0.088294 0.000000 
0.397202 0.572981 0.000000 
-0.108942 -0.946179 0.000000 
-0.899809 -0.941328 0.000000 
-0.724964 -0.299080 0.000000 
0.660903 0.161440 0.000000 
-0.978194 0.853065 0.000000 
0.595936 -0.647069 0.000000 
0.071546 0.210107 0.000000 
0.220880 0.841032 0.000000 
-0.445811 -0.716182 0.000000 
-0.180633 -0.038022 0.000000 
-0.702895 0.453497 0.000000 
-0.287229 -0.847175 0.000000 
-0.685384 -0.346016 0.000000 
-0.957100 -0.638458 0.000000 
-0.820030 -0.014386 0.000000 
0.474522 0.412607 0.000000 
0.699407 -0.920114 0.000000 
0.109248 -0.443358 0.000000 
0.441768 0.252092 0.000000 
-0.039645 0.751964 0.000000 
0.417537 -0.545474 0.000000 
0.033296 -0.044964 0.000000 
-0.338794 0.222310 0.000000 
-0.374519 0.795272 0.000000 
-0.713312 -0.585298 0.000000 
0.609100 -0.696439 0.000000 
-0.381900 -0.582500 0.000000 
-0.756418 -0.040107 0.000000 
0.513962 -0.251593 0.000000 
0.218274 0.472645 0.000000 
-0.423588 0.438542 0.000000 
-0.384386 0.053269 0.000000 
-0.766286 0.567890 0.000000 
0.484677 0.302674 0.000000 
0.139443 0.940799 0.000000 
-0.556234 0.823230 0.000000 
-0.823577 -0.403266 0.000000 
0.550868 -0.414061 0.000000 
-0.386873 0.689038 0.000000 
-0.771260 -0.810572 0.000000 
0.467428 0.882899 0.000000 
0.105264 -0.518474 0.000000 
-0.621631 -0.700374 0.000000 
-0.937896 0.003207 0.000000 
0.385608 -0.075989 0.000000 
0.141715 0.733239 0.000000 
-0.474677 0.733336 0.000000 
CELL_DATA 175 
SCALARS MASS float 
LOOKUP_TABLE default 
0.781831 
0.864274 
0.946717 
0.864274 
0.881307 
0.921110 
0.858535 
0.921110 
0.881307 
0.887046 
0.910001 
0.869829 
0.915556 
0.869829 
0.910001 
0.887046 
0.892784 
0.915740 
0.892784 
0.927218 
0.892784 
0.927218 
0.892784 
0.915740 
0.892784 
0.781831 
0.864274 
0.946717 
0.864274 
0.881307 
0.921110 
0.858535 
0.921110 
0.881307 
0.887046 
0.910001 
0.869829 
0.915556 
0.869829 
0.910001 
0.887046 
0.892784 
0.915740 
0.892784 
0.927218 
0.892784 
0.927218 
0.892784 
0.915740 
0.892784 
0.781831 
0.864274 
0.946717 
0.864274 
0.881307 
0.921110 
0.858535 
0.921110 
0.881307 
0.887046 
0.910001 
0.869829 
0.915556 
0.869829 
0.910001 
0.887046 
0.892784 
0.915740 
0.892784 
0.927218 
0.892784 
0.927218 
0.892784 
0.915740 
0.892784 
0.781831 
0.864274 
0.946717 
0.864274 
0.881307 
0.921110 
0.858535 
0.921110 
0.881307 
0.887046 
0.910001 
0.869829 
0.915556 
0.869829 
0.910001 
0.887046 
0.892784 
0.915740 
0.892784 
0.927218 
0.892784 
0.927218 
0.892784 
0.915740 
0.892784 
0.781831 
0.864274 
0.946717 
0.864274 
0.881307 
0.921110 
0.858535 
0.921110 
0.881307 
0.887046 
0.910001 
0.869829 
0.915556 
0.869829 
0.910001 
0.887046 
0.892784 
0.915740 
0.892784 
0.927218 
0.892784 
0.927218 
0.892784 
0.915740 
0.892784 
0.781831 
0.864274 
0.946717 
0.864274 
0.881307 
0.921110 
0.858535 
0.921110 
0.881307 
0.887046 
0.910001 
0.869829 
0.915556 
0.869829 
0.910001 
0.887046 
0.892784 
0.915740 
0.892784 
0.927218 
0.892784 
0.927218 
0.892784 
0.915740 
0.892784 
0.781831 
0.864274 
0.946717 
0.864274 
0.881307 
0.921110 
0.858535 
0.921110 
0.881307 
0.887046 
0.910001 
0.869829 
0.915556 
0.869829 
0.910001 
0.887046 
0.892784 
0.915740 
0.892784 
0.927218 
0.892784 
0.927218 
0.892784 
0.915740 
0.892784 
SCALARS MASS float 
LOOKUP_TABLE default 
0.781831 
0.864274 
0.946717 
0.864274 
0.881307 
0.921110 
0.858535 
0.921110 
0.881307 
0.887046 
0.910001 
0.869829 
0.915556 
0.869829 
0.910001 
0.887046 
0.892784 
0.915740 
0.892784 
0.927218 
0.892784 
0.927218 
0.892784 
0.915740 
0.892784 
0.781831 
0.864274 
0.946717 
0.864274 
0.881307 
0.921110 
0.858535 
0.921110 
0.881307 
0.887046 
0.910001 
0.869829 
0.915556 
0.869829 
0.910001 
0.887046 
0.892784 
0.915740 
0.892784 
0.927218 
0.892784 
0.927218 
0.892784 
0.915740 
0.892784 
0.781831 
0.864274 
0.946717 
0.864274 
0.881307 
0.921110 
0.858535 
0.921110 
0.881307 
0.887046 
0.910001 
0.869829 
0.915556 
0.869829 
0.910001 
0.887046 
0.892784 
0.915740 
0.892784 
0.927218 
0.892784 
0.927218 
0.892784 
0.915740 
0.892784 
0.781831 
0.864274 
0.946717 
0.864274 
0.881307 
0.921110 
0.858535 
0.921110 
0.881307 
0.887046 
0.910001 
0.869829 
0.915556 
0.869829 
0.910001 
0.887046 
0.892784 
0.915740 
0.892784 
0.927218 
0.892784 
0.927218 
0.892784 
0.915740 
0.892784 
0.781831 
0.864274 
0.946717 
0.864274 
0.881307 
0.921110 
0.858535 
0.921110 
0.881307 
0.887046 
0.910001 
0.869829 
0.915556 
0.869829 
0.910001 
0.887046 
0.892784 
0.915740 
0.892784 
0.927218 
0.892784 
0.927218 
0.892784 
0.915740 
0.892784 
0.781831 
0.864274 
0.946717 
0.864274 
0.881307 
0.921110 
0.858535 
0.921110 
0.881307 
0.887046 
0.910001 
0.869829 
0.915556 
0.869829 
0.910001 
0.887046 
0.892784 
0.915740 
0.892784 
0.927218 
0.892784 
0.927218 
0.892784 
0.915740 
0.892784 
0.781831 
0.864274 
0.946717 
0.864274 
0.881307 
0.921110 
0.858535 
0.921110 
0.881307 
0.887046 
0.910001 
0.869829 
0.915556 
0.869829 
0.910001 
0.887046 
0.892784 
0.915740 
0.892784 
0.927218 
0.892784 
0.927218 
0.892784 
0.915740 
0.892784 
SCALARS DENSITY float 
LOOKUP_TABLE default 
200.000000 
200.000000 
200.000000 
200.000000 
200.000000 
200.000000 
200.000000 
200.000000 
200.000000 
200.000000 
200.000000 
200.000000 
200.000000 
200.000000 
200.000000 
200.000000 
200.000000 
200.000000 
200.000000 
200.000000 
200.000000 
200.000000 
200.000000 
200.000000 
200.000000 
200.000000 
200.000000 
200.000000 
200.000000 
200.000000 
200.000000 
200.000000 
200.000000 
200.000000 
200.000000 
200.000000 
200.000000 
200.000000 
200.000000 
200.000000 
200.000000 
200.000000 
200.000000 
200.000000 
200.000000 
200.000000 
200.000000 
200.000000 
200.000000 
200.000000 
200.000000 
200.000000 
200.000000 
200.000000 
200.000000 
200.000000 
200.000000 
200.000000 
200.000000 
200.000000 
200.000000 
200.000000 
200.000000 
200.000000 
200.000000 
200.000000 
200.000000 
200.000000 
200.000000 
200.000000 
200.000000 
200.000000 
200.000000 
200.000000 
200.000000 
200.000000 
200.000000 
200.000000 
200.000000 
200.000000 
200.000000 
200.000000 
200.000000 
200.000000 
200.000000 
200.000000 
200.000000 
200.000000 
200.000000 
200.000000 
200.000000 
200.000000 
200.000000 
200.000000 
200.000000 
200.000000 
200.000000 
200.000000 
200.000000 
200.000000 
200.000000 
200.000000 
200.000000 
200.000000 
200.000000 
200.000000 
200.000000 
200.000000 
200.000000 
200.000000 
200.000000 
200.000000 
200.000000 
200.000000 
200.000000 
200.000000 
200.000000 
200.000000 
200.000000 
200.000000 
200.000000 
200.000000 
200.000000 
200.000000 
200.000000 
200.000000 
200.000000 
200.000000 
200.000000 
200.000000 
200.000000 
200.000000 
200.000000 
200.000000 
200.000000 
200.000000 
200.000000 
200.000000 
200.000000 
200.000000 
200.000000 
200.000000 
200.000000 
200.000000 
200.000000 
200.000000 
200.000000 
200.000000 
200.000000 
200.000000 
200.000000 
200.000000 
200.000000 
200.000000 
200.000000 
200.000000 
200.000000 
200.000000 
200.000000 
200.000000 
200.000000 
200.000000 
200.000000 
200.000000 
200.000000 
200.000000 
200.000000 
200.000000 
200.000000 
200.000000 
200.000000 
200.000000 
200.000000 
200.000000 
200.000000 
SCALARS ELEM_i float 
LOOKUP_TABLE default 
182 
209 
182 
183 
210 
210 
210 
183 
183 
237 
210 
211 
211 
211 
184 
184 
238 
238 
238 
211 
211 
211 
212 
184 
185 
182 
208 
209 
209 
235 
209 
236 
209 
209 
235 
235 
236 
236 
236 
237 
237 
262 
262 
263 
263 
263 
263 
264 
237 
237 
181 
208 
208 
208 
207 
207 
207 
208 
235 
206 
207 
234 
234 
234 
235 
235 
206 
233 
233 
233 
234 
234 
261 
261 
262 
181 
180 
181 
180 
153 
180 
180 
180 
207 
152 
152 
179 
179 
179 
206 
206 
152 
152 
151 
179 
178 
179 
205 
206 
206 
181 
154 
154 
154 
127 
154 
153 
153 
153 
127 
127 
126 
126 
126 
153 
152 
100 
99 
99 
126 
126 
125 
125 
125 
152 
182 
155 
155 
154 
155 
155 
128 
155 
127 
129 
129 
128 
128 
128 
127 
127 
129 
129 
102 
101 
101 
101 
101 
100 
100 
182 
183 
182 
155 
183 
183 
156 
156 
156 
184 
184 
157 
157 
157 
156 
129 
185 
184 
158 
157 
157 
157 
130 
130 
130 
VECTORS VELOCITY float 
-0.000000 -0.810306 0.000000 
-0.000000 -0.810306 0.000000 
-0.000000 -0.810306 0.000000 
-0.000000 -0.810306 0.000000 
0.000000 -0.810306 0.000000 
0.000000 -0.810306 0.000000 
0.000000 -0.810306 0.000000 
0.000000 -0.810306 0.000000 
0.000000 -0.810306 0.000000 
0.000000 -0.810306 0.000000 
0.000000 -0.810306 0.000000 
0.000000 -0.810306 0.000000 
0.000000 -0.810306 0.000000 
0.000000 -0.810306 0.000000 
0.000000 -0.810306 0.000000 
-0.000000 -0.810306 0.000000 
-0.000000 -0.810306 0.000000 
-0.000000 -0.810306 0.000000 
-0.000000 -0.810306 0.000000 
0.000000 -0.810306 0.000000 
0.000000 -0.810306 0.000000 
-0.000000 -0.810306 0.000000 
-0.000000 -0.810306 0.000000 
-0.000000 -0.810306 0.000000 
-0.000000 -0.810306 0.000000 
0.000000 -0.810306 0.000000 
-0.000000 -0.810306 0.000000 
-0.000000 -0.810306 0.000000 
0.000000 -0.810306 0.000000 
-0.000000 -0.810306 0.000000 
-0.000000 -0.810306 0.000000 
-0.000000 -0.810306 0.000000 
0.000000 -0.810306 0.000000 
0.000000 -0.810306 0.000000 
0.000000 -0.810306 0.000000 
-0.000000 -0.810306 0.000000 
-0.000000 -0.810306 0.000000 
-0.000000 -0.810306 0.000000 
-0.000000 -0.810306 0.000000 
0.000000 -0.810306 0.000000 
0.000000 -0.810306 0.000000 
0.000000 -0.810306 0.000000 
0.000000 -0.810306 0.000000 
0.000000 -0.810306 0.000000 
0.000000 -0.810306 0.000000 
0.000000 -0.810306 0.000000 
-0.000000 -0.810306 0.000000 
-0.000000 -0.810306 0.000000 
-0.000000 -0.810306 0.000000 
0.000000 -0.810306 0.000000 
0.000000 -0.810306 0.000000 
-0.000000 -0.810306 0.000000 
-0.000000 -0.810306 0.000000 
-0.000000 -0.810306 0.000000 
0.000000 -0.810306 0.000000 
0.000000 -0.810306 0.000000 
0.000000 -0.810306 0.000000 
-0.000000 -0.810306 0.000000 
-0.000000 -0.810306 0.000000 
0.000000 -0.810306 0.000000 
0.000000 -0.810306 0.000000 
0.000000 -0.810306 0.000000 
0.000000 -0.810306 0.000000 
0.000000 -0.810306 0.000000 
0.000000 -0.810306 0.000000 
0.000000 -0.810306 0.000000 
0.000000 -0.810306 0.000000 
0.000000 -0.810306 0.000000 
-0.000000 -0.810306 0.000000 
-0.000000 -0.810306 0.000000 
-0.000000 -0.810306 0.000000 
-0.000000 -0.810306 0.000000 
-0.000000 -0.810306 0.000000 
0.000000 -0.810306 0.000000 
0.000000 -0.810306 0.000000 
0.000000 -0.810306 0.000000 
0.000000 -0.810306 0.000000 
0.000000 -0.810306 0.000000 
0.000000 -0.810306 0.000000 
0.000000 -0.810306 0.000000 
0.000000 -0.810306 0.000000 
0.000000 -0.810306 0.000000 
0.000000 -0.810306 0.000000 
-0.000000 -0.810306 0.000000 
-0.000000 -0.810306 0.000000 
0.000000 -0.810306 0.000000 
0.000000 -0.810306 0.000000 
0.000000 -0.810306 0.000000 
-0.000000 -0.810306 0.000000 
-0.000000 -0.810306 0.000000 
0.000000 -0.810306 0.000000 
-0.000000 -0.810306 0.000000 
-0.000000 -0.810306 0.000000 
-0.000000 -0.810306 0.000000 
-0.000000 -0.810306 0.000000 
0.000000 -0.810306 0.000000 
-0.000000 -0.810306 0.000000 
0.000000 -0.810306 0.000000 
0.000000 -0.810306 0.000000 
0.000000 -0.810306 0.000000 
-0.000000 -0.810306 0.000000 
0.000000 -0.810306 0.000000 
0.000000 -0.810306 0.000000 
0.000000 -0.810306 0.000000 
-0.000000 -0.810306 0.000000 
0.000000 -0.810306 0.000000 
0.000000 -0.810306 0.000000 
0.000000 -0.810306 0.000000 
0.000000 -0.810306 0.000000 
-0.000000 -0.810306 0.000000 
-0.000000 -0.810306 0.000000 
-0.000000 -0.810306 0.000000 
-0.000000 -0.810306 0.000000 
-0.000000 -0.810306 0.000000 
-0.000000 -0.810306 0.000000 
-0.000000 -0.810306 0.000000 
0.000000 -0.810306 0.000000 
-0.000000 -0.810306 0.000000 
0.000000 -0.810306 0.000000 
-0.000000 -0.810306 0.000000 
-0.000000 -0.810306 0.000000 
-0.000000 -0.810306 0.000000 
0.000000 -0.810306 0.000000 
-0.000000 -0.810306 0.000000 
-0.000000 -0.810306 0.000000 
-0.000000 -0.810306 0.000000 
-0.000000 -0.810306 0.000000 
-0.000000 -0.810306 0.000000 
-0.000000 -0.810306 0.000000 
-0.000000 -0.810306 0.000000 
-0.000000 -0.810306 0.000000 
-0.000000 -0.810306 0.000000 
0.000000 -0.810306 0.000000 
-0.000000 -0.810306 0.000000 
0.000000 -0.810306 0.000000 
-0.000000 -0.810306 0.000000 
-0.000000 -0.810306 0.000000 
-0.000000 -0.810306 0.000000 
-0.000000 -0.810306 0.000000 
0.000000 -0.810306 0.000000 
-0.000000 -0.810306 0.000000 
0.000000 -0.810306 0.000000 
0.000000 -0.810306 0.000000 
0.000000 -0.810306 0.000000 
-0.000000 -0.810306 0.000000 
0.000000 -0.810306 0.000000 
0.000000 -0.810306 0.000000 
0.000000 -0.810306 0.000000 
-0.000000 -0.810306 0.000000 
0.000000 -0.810306 0.000000 
-0.000000 -0.810306 0.000000 
-0.000000 -0.810306 0.000000 
-0.000000 -0.810306 0.000000 
-0.000000 -0.810306 0.000000 
-0.000000 -0.810306 0.000000 
-0.000000 -0.810306 0.000000 
-0.000000 -0.810306 0.000000 
-0.000000 -0.810306 0.000000 
-0.000000 -0.810306 0.000000 
-0.000000 -0.810306 0.000000 
-0.000000 -0.810306 0.000000 
-0.000000 -0.810306 0.000000 
-0.000000 -0.810306 0.000000 
0.000000 -0.810306 0.000000 
0.000000 -0.810306 0.000000 
0.000000 -0.810306 0.000000 
-0.000000 -0.810306 0.000000 
-0.000000 -0.810306 0.000000 
-0.000000 -0.810306 0.000000 
0.000000 -0.810306 0.000000 
0.000000 -0.810306 0.000000 
0.000000 -0.810306 0.000000 
0.000000 -0.810306 0.000000 
0.000000 -0.810306 0.000000 
0.000000 -0.810306 0.000000 
TENSORS STRESS float 
-0.000000 0.000000 0.000000 
0.000000 -0.000000 0.000000 
0.000000 0.000000 0.000000 

-0.000000 0.000000 0.000000 
0.000000 -0.000000 0.000000 
0.000000 0.000000 0.000000 

-0.000000 0.000000 0.000000 
0.000000 -0.000000 0.000000 
0.000000 0.000000 0.000000 

-0.000000 -0.000000 0.000000 
0.000000 -0.000000 0.000000 
0.000000 0.000000 0.000000 

-0.000000 -0.000000 0.000000 
0.000000 -0.000000 0.000000 
0.000000 0.000000 0.000000 

0.000000 -0.000000 0.000000 
0.000000 0.000000 0.000000 
0.000000 0.000000 0.000000 

-0.000000 -0.000000 0.000000 
0.000000 -0.000000 0.000000 
0.000000 0.000000 0.000000 

-0.000000 -0.000000 0.000000 
0.000000 -0.000000 0.000000 
0.000000 0.000000 0.000000 

-0.000000 -0.000000 0.000000 
0.000000 -0.000000 0.000000 
0.000000 0.000000 0.000000 

0.000000 0.000000 0.000000 
0.000000 0.000000 0.000000 
0.000000 0.000000 0.000000 

-0.000000 -0.000000 0.000000 
0.000000 -0.000000 0.000000 
0.000000 0.000000 0.000000 

-0.000000 0.000000 0.000000 
0.000000 -0.000000 0.000000 
0.000000 0.000000 0.000000 
