# vtk DataFile Version 3.0 
vtk output 
ASCII 
DATASET UNSTRUCTURED_GRID 
POINTS 175 float 
-0.026061 -0.475193 0.000000 
-0.106992 -0.407138 0.000000 
-0.054870 -0.415370 0.000000 
-0.028809 -0.369487 0.000000 
-0.186430 -0.343062 0.000000 
-0.137056 -0.345588 0.000000 
-0.114311 -0.291941 0.000000 
-0.058186 -0.307607 0.000000 
-0.029377 -0.267430 0.000000 
-0.265318 -0.279906 0.000000 
-0.217198 -0.280706 0.000000 
-0.196633 -0.223410 0.000000 
-0.143120 -0.232118 0.000000 
-0.116563 -0.184850 0.000000 
-0.058945 -0.204495 0.000000 
-0.029568 -0.166375 0.000000 
-0.344206 -0.216751 0.000000 
-0.296791 -0.216744 0.000000 
-0.278030 -0.156801 0.000000 
-0.225992 -0.162667 0.000000 
-0.201664 -0.110550 0.000000 
-0.145749 -0.124024 0.000000 
-0.117890 -0.079681 0.000000 
-0.059328 -0.102387 0.000000 
-0.029759 -0.065321 0.000000 
-0.058559 -0.515944 0.000000 
-0.162226 -0.536787 0.000000 
-0.123292 -0.501169 0.000000 
-0.142917 -0.452186 0.000000 
-0.261851 -0.558943 0.000000 
-0.229092 -0.521916 0.000000 
-0.256854 -0.470684 0.000000 
-0.209613 -0.436572 0.000000 
-0.223062 -0.388998 0.000000 
-0.360414 -0.581243 0.000000 
-0.329787 -0.544120 0.000000 
-0.361761 -0.492318 0.000000 
-0.321587 -0.455909 0.000000 
-0.341985 -0.405675 0.000000 
-0.290702 -0.372876 0.000000 
-0.302189 -0.326141 0.000000 
-0.458977 -0.603543 0.000000 
-0.429420 -0.566469 0.000000 
-0.464588 -0.514427 0.000000 
-0.427556 -0.477399 0.000000 
-0.453135 -0.425884 0.000000 
-0.407738 -0.390569 0.000000 
-0.425037 -0.341141 0.000000 
-0.370772 -0.309512 0.000000 
-0.381315 -0.263284 0.000000 
-0.046960 -0.566759 0.000000 
-0.095301 -0.660805 0.000000 
-0.098873 -0.608158 0.000000 
-0.149405 -0.592960 0.000000 
-0.140093 -0.752509 0.000000 
-0.148617 -0.703811 0.000000 
-0.205981 -0.693574 0.000000 
-0.203197 -0.635370 0.000000 
-0.248777 -0.616224 0.000000 
-0.184111 -0.843473 0.000000 
-0.194039 -0.796382 0.000000 
-0.254475 -0.789082 0.000000 
-0.257893 -0.734972 0.000000 
-0.309886 -0.719600 0.000000 
-0.303554 -0.659055 0.000000 
-0.347255 -0.638897 0.000000 
-0.228129 -0.934436 0.000000 
-0.238687 -0.888212 0.000000 
-0.301302 -0.883260 0.000000 
-0.307162 -0.831221 0.000000 
-0.363386 -0.819100 0.000000 
-0.362692 -0.761589 0.000000 
-0.412122 -0.744296 0.000000 
-0.403017 -0.682149 0.000000 
-0.445733 -0.661570 0.000000 
-0.000000 -0.589374 0.000000 
0.043388 -0.685805 0.000000 
-0.000000 -0.655772 0.000000 
-0.043388 -0.685805 0.000000 
0.087158 -0.778001 0.000000 
0.043769 -0.754303 0.000000 
-0.000000 -0.792769 0.000000 
-0.043769 -0.754303 0.000000 
-0.087158 -0.778001 0.000000 
0.130831 -0.869131 0.000000 
0.087824 -0.847532 0.000000 
0.044436 -0.890232 0.000000 
-0.000000 -0.859167 0.000000 
-0.044436 -0.890232 0.000000 
-0.087824 -0.847532 0.000000 
-0.130831 -0.869131 0.000000 
0.174505 -0.960261 0.000000 
0.131782 -0.939695 0.000000 
0.088871 -0.985561 0.000000 
0.044532 -0.957697 0.000000 
-0.000000 -0.994098 0.000000 
-0.044532 -0.957697 0.000000 
-0.088871 -0.985561 0.000000 
-0.131782 -0.939695 0.000000 
-0.174505 -0.960261 0.000000 
0.046960 -0.566759 0.000000 
0.149405 -0.592960 0.000000 
0.098873 -0.608158 0.000000 
0.095301 -0.660805 0.000000 
0.248777 -0.616224 0.000000 
0.203197 -0.635370 0.000000 
0.205981 -0.693574 0.000000 
0.148617 -0.703811 0.000000 
0.140093 -0.752509 0.000000 
0.347255 -0.638897 0.000000 
0.303554 -0.659055 0.000000 
0.309886 -0.719600 0.000000 
0.257893 -0.734972 0.000000 
0.254475 -0.789082 0.000000 
0.194039 -0.796382 0.000000 
0.184111 -0.843473 0.000000 
0.445733 -0.661570 0.000000 
0.403017 -0.682149 0.000000 
0.412122 -0.744296 0.000000 
0.362692 -0.761589 0.000000 
0.363386 -0.819100 0.000000 
0.307162 -0.831221 0.000000 
0.301302 -0.883260 0.000000 
0.238687 -0.888212 0.000000 
0.228129 -0.934436 0.000000 
0.058559 -0.515944 0.000000 
0.142917 -0.452186 0.000000 
0.123292 -0.501169 0.000000 
0.162226 -0.536787 0.000000 
0.223062 -0.388998 0.000000 
0.209613 -0.436572 0.000000 
0.256854 -0.470684 0.000000 
0.229092 -0.521916 0.000000 
0.261851 -0.558943 0.000000 
0.302189 -0.326141 0.000000 
0.290702 -0.372876 0.000000 
0.341985 -0.405675 0.000000 
0.321587 -0.455909 0.000000 
0.361761 -0.492318 0.000000 
0.329787 -0.544120 0.000000 
0.360414 -0.581243 0.000000 
0.381315 -0.263284 0.000000 
0.370772 -0.309512 0.000000 
0.425037 -0.341141 0.000000 
0.407738 -0.390569 0.000000 
0.453135 -0.425884 0.000000 
0.427556 -0.477399 0.000000 
0.464588 -0.514427 0.000000 
0.429420 -0.566469 0.000000 
0.458977 -0.603543 0.000000 
0.026061 -0.475193 0.000000 
0.028809 -0.369487 0.000000 
0.054870 -0.415370 0.000000 
0.106992 -0.407138 0.000000 
0.029377 -0.267430 0.000000 
0.058186 -0.307607 0.000000 
0.114311 -0.291941 0.000000 
0.137056 -0.345588 0.000000 
0.186430 -0.343062 0.000000 
0.029568 -0.166375 0.000000 
0.058945 -0.204495 0.000000 
0.116563 -0.184850 0.000000 
0.143120 -0.232118 0.000000 
0.196633 -0.223410 0.000000 
0.217198 -0.280706 0.000000 
0.265318 -0.279906 0.000000 
0.029759 -0.065321 0.000000 
0.059328 -0.102387 0.000000 
0.117890 -0.079681 0.000000 
0.145749 -0.124024 0.000000 
0.201664 -0.110550 0.000000 
0.225992 -0.162667 0.000000 
0.278030 -0.156801 0.000000 
0.296791 -0.216744 0.000000 
0.344206 -0.216751 0.000000 
CELLS 175 350 
1 0 
1 1 
1 2 
1 3 
1 4 
1 5 
1 6 
1 7 
1 8 
1 9 
1 10 
1 11 
1 12 
1 13 
1 14 
1 15 
1 16 
1 17 
1 18 
1 19 
1 20 
1 21 
1 22 
1 23 
1 24 
1 25 
1 26 
1 27 
1 28 
1 29 
1 30 
1 31 
1 32 
1 33 
1 34 
1 35 
1 36 
1 37 
1 38 
1 39 
1 40 
1 41 
1 42 
1 43 
1 44 
1 45 
1 46 
1 47 
1 48 
1 49 
1 50 
1 51 
1 52 
1 53 
1 54 
1 55 
1 56 
1 57 
1 58 
1 59 
1 60 
1 61 
1 62 
1 63 
1 64 
1 65 
1 66 
1 67 
1 68 
1 69 
1 70 
1 71 
1 72 
1 73 
1 74 
1 75 
1 76 
1 77 
1 78 
1 79 
1 80 
1 81 
1 82 
1 83 
1 84 
1 85 
1 86 
1 87 
1 88 
1 89 
1 90 
1 91 
1 92 
1 93 
1 94 
1 95 
1 96 
1 97 
1 98 
1 99 
1 100 
1 101 
1 102 
1 103 
1 104 
1 105 
1 106 
1 107 
1 108 
1 109 
1 110 
1 111 
1 112 
1 113 
1 114 
1 115 
1 116 
1 117 
1 118 
1 119 
1 120 
1 121 
1 122 
1 123 
1 124 
1 125 
1 126 
1 127 
1 128 
1 129 
1 130 
1 131 
1 132 
1 133 
1 134 
1 135 
1 136 
1 137 
1 138 
1 139 
1 140 
1 141 
1 142 
1 143 
1 144 
1 145 
1 146 
1 147 
1 148 
1 149 
1 150 
1 151 
1 152 
1 153 
1 154 
1 155 
1 156 
1 157 
1 158 
1 159 
1 160 
1 161 
1 162 
1 163 
1 164 
1 165 
1 166 
1 167 
1 168 
1 169 
1 170 
1 171 
1 172 
1 173 
1 174 
CELL_TYPES 175 
1 
1 
1 
1 
1 
1 
1 
1 
1 
1 
1 
1 
1 
1 
1 
1 
1 
1 
1 
1 
1 
1 
1 
1 
1 
1 
1 
1 
1 
1 
1 
1 
1 
1 
1 
1 
1 
1 
1 
1 
1 
1 
1 
1 
1 
1 
1 
1 
1 
1 
1 
1 
1 
1 
1 
1 
1 
1 
1 
1 
1 
1 
1 
1 
1 
1 
1 
1 
1 
1 
1 
1 
1 
1 
1 
1 
1 
1 
1 
1 
1 
1 
1 
1 
1 
1 
1 
1 
1 
1 
1 
1 
1 
1 
1 
1 
1 
1 
1 
1 
1 
1 
1 
1 
1 
1 
1 
1 
1 
1 
1 
1 
1 
1 
1 
1 
1 
1 
1 
1 
1 
1 
1 
1 
1 
1 
1 
1 
1 
1 
1 
1 
1 
1 
1 
1 
1 
1 
1 
1 
1 
1 
1 
1 
1 
1 
1 
1 
1 
1 
1 
1 
1 
1 
1 
1 
1 
1 
1 
1 
1 
1 
1 
1 
1 
1 
1 
1 
1 
1 
1 
1 
1 
1 
1 
POINT_DATA 175 
VECTORS X_GC float 
-0.026061 -0.475193 0.000000 
-0.106992 -0.407138 0.000000 
-0.054870 -0.415370 0.000000 
-0.028809 -0.369487 0.000000 
-0.186430 -0.343062 0.000000 
-0.137056 -0.345588 0.000000 
-0.114311 -0.291941 0.000000 
-0.058186 -0.307607 0.000000 
-0.029377 -0.267430 0.000000 
-0.265318 -0.279906 0.000000 
-0.217198 -0.280706 0.000000 
-0.196633 -0.223410 0.000000 
-0.143120 -0.232118 0.000000 
-0.116563 -0.184850 0.000000 
-0.058945 -0.204495 0.000000 
-0.029568 -0.166375 0.000000 
-0.344206 -0.216751 0.000000 
-0.296791 -0.216744 0.000000 
-0.278030 -0.156801 0.000000 
-0.225992 -0.162667 0.000000 
-0.201664 -0.110550 0.000000 
-0.145749 -0.124024 0.000000 
-0.117890 -0.079681 0.000000 
-0.059328 -0.102387 0.000000 
-0.029759 -0.065321 0.000000 
-0.058559 -0.515944 0.000000 
-0.162226 -0.536787 0.000000 
-0.123292 -0.501169 0.000000 
-0.142917 -0.452186 0.000000 
-0.261851 -0.558943 0.000000 
-0.229092 -0.521916 0.000000 
-0.256854 -0.470684 0.000000 
-0.209613 -0.436572 0.000000 
-0.223062 -0.388998 0.000000 
-0.360414 -0.581243 0.000000 
-0.329787 -0.544120 0.000000 
-0.361761 -0.492318 0.000000 
-0.321587 -0.455909 0.000000 
-0.341985 -0.405675 0.000000 
-0.290702 -0.372876 0.000000 
-0.302189 -0.326141 0.000000 
-0.458977 -0.603543 0.000000 
-0.429420 -0.566469 0.000000 
-0.464588 -0.514427 0.000000 
-0.427556 -0.477399 0.000000 
-0.453135 -0.425884 0.000000 
-0.407738 -0.390569 0.000000 
-0.425037 -0.341141 0.000000 
-0.370772 -0.309512 0.000000 
-0.381315 -0.263284 0.000000 
-0.046960 -0.566759 0.000000 
-0.095301 -0.660805 0.000000 
-0.098873 -0.608158 0.000000 
-0.149405 -0.592960 0.000000 
-0.140093 -0.752509 0.000000 
-0.148617 -0.703811 0.000000 
-0.205981 -0.693574 0.000000 
-0.203197 -0.635370 0.000000 
-0.248777 -0.616224 0.000000 
-0.184111 -0.843473 0.000000 
-0.194039 -0.796382 0.000000 
-0.254475 -0.789082 0.000000 
-0.257893 -0.734972 0.000000 
-0.309886 -0.719600 0.000000 
-0.303554 -0.659055 0.000000 
-0.347255 -0.638897 0.000000 
-0.228129 -0.934436 0.000000 
-0.238687 -0.888212 0.000000 
-0.301302 -0.883260 0.000000 
-0.307162 -0.831221 0.000000 
-0.363386 -0.819100 0.000000 
-0.362692 -0.761589 0.000000 
-0.412122 -0.744296 0.000000 
-0.403017 -0.682149 0.000000 
-0.445733 -0.661570 0.000000 
-0.000000 -0.589374 0.000000 
0.043388 -0.685805 0.000000 
-0.000000 -0.655772 0.000000 
-0.043388 -0.685805 0.000000 
0.087158 -0.778001 0.000000 
0.043769 -0.754303 0.000000 
-0.000000 -0.792769 0.000000 
-0.043769 -0.754303 0.000000 
-0.087158 -0.778001 0.000000 
0.130831 -0.869131 0.000000 
0.087824 -0.847532 0.000000 
0.044436 -0.890232 0.000000 
-0.000000 -0.859167 0.000000 
-0.044436 -0.890232 0.000000 
-0.087824 -0.847532 0.000000 
-0.130831 -0.869131 0.000000 
0.174505 -0.960261 0.000000 
0.131782 -0.939695 0.000000 
0.088871 -0.985561 0.000000 
0.044532 -0.957697 0.000000 
-0.000000 -0.994098 0.000000 
-0.044532 -0.957697 0.000000 
-0.088871 -0.985561 0.000000 
-0.131782 -0.939695 0.000000 
-0.174505 -0.960261 0.000000 
0.046960 -0.566759 0.000000 
0.149405 -0.592960 0.000000 
0.098873 -0.608158 0.000000 
0.095301 -0.660805 0.000000 
0.248777 -0.616224 0.000000 
0.203197 -0.635370 0.000000 
0.205981 -0.693574 0.000000 
0.148617 -0.703811 0.000000 
0.140093 -0.752509 0.000000 
0.347255 -0.638897 0.000000 
0.303554 -0.659055 0.000000 
0.309886 -0.719600 0.000000 
0.257893 -0.734972 0.000000 
0.254475 -0.789082 0.000000 
0.194039 -0.796382 0.000000 
0.184111 -0.843473 0.000000 
0.445733 -0.661570 0.000000 
0.403017 -0.682149 0.000000 
0.412122 -0.744296 0.000000 
0.362692 -0.761589 0.000000 
0.363386 -0.819100 0.000000 
0.307162 -0.831221 0.000000 
0.301302 -0.883260 0.000000 
0.238687 -0.888212 0.000000 
0.228129 -0.934436 0.000000 
0.058559 -0.515944 0.000000 
0.142917 -0.452186 0.000000 
0.123292 -0.501169 0.000000 
0.162226 -0.536787 0.000000 
0.223062 -0.388998 0.000000 
0.209613 -0.436572 0.000000 
0.256854 -0.470684 0.000000 
0.229092 -0.521916 0.000000 
0.261851 -0.558943 0.000000 
0.302189 -0.326141 0.000000 
0.290702 -0.372876 0.000000 
0.341985 -0.405675 0.000000 
0.321587 -0.455909 0.000000 
0.361761 -0.492318 0.000000 
0.329787 -0.544120 0.000000 
0.360414 -0.581243 0.000000 
0.381315 -0.263284 0.000000 
0.370772 -0.309512 0.000000 
0.425037 -0.341141 0.000000 
0.407738 -0.390569 0.000000 
0.453135 -0.425884 0.000000 
0.427556 -0.477399 0.000000 
0.464588 -0.514427 0.000000 
0.429420 -0.566469 0.000000 
0.458977 -0.603543 0.000000 
0.026061 -0.475193 0.000000 
0.028809 -0.369487 0.000000 
0.054870 -0.415370 0.000000 
0.106992 -0.407138 0.000000 
0.029377 -0.267430 0.000000 
0.058186 -0.307607 0.000000 
0.114311 -0.291941 0.000000 
0.137056 -0.345588 0.000000 
0.186430 -0.343062 0.000000 
0.029568 -0.166375 0.000000 
0.058945 -0.204495 0.000000 
0.116563 -0.184850 0.000000 
0.143120 -0.232118 0.000000 
0.196633 -0.223410 0.000000 
0.217198 -0.280706 0.000000 
0.265318 -0.279906 0.000000 
0.029759 -0.065321 0.000000 
0.059328 -0.102387 0.000000 
0.117890 -0.079681 0.000000 
0.145749 -0.124024 0.000000 
0.201664 -0.110550 0.000000 
0.225992 -0.162667 0.000000 
0.278030 -0.156801 0.000000 
0.296791 -0.216744 0.000000 
0.344206 -0.216751 0.000000 
VECTORS X_EC float 
0.338794 0.915108 0.000000 
-0.609100 -0.003640 0.000000 
0.713312 0.107501 0.000000 
0.374519 -0.511929 0.000000 
0.423588 -0.868659 0.000000 
-0.218274 -0.834556 0.000000 
-0.513962 0.441205 0.000000 
0.756418 0.652691 0.000000 
0.381900 0.110299 0.000000 
-0.550868 0.278737 0.000000 
0.823577 0.289533 0.000000 
0.556234 -0.483971 0.000000 
-0.139443 -0.366402 0.000000 
-0.484677 0.995473 0.000000 
0.766286 -0.739312 0.000000 
0.384386 0.746068 0.000000 
0.474677 -0.573866 0.000000 
-0.141715 -0.573962 0.000000 
-0.385608 0.616810 0.000000 
0.937896 0.696005 0.000000 
0.621631 -0.007575 0.000000 
-0.105264 0.174324 0.000000 
-0.467428 -0.424302 0.000000 
0.771260 -0.117773 0.000000 
0.386873 -0.618163 0.000000 
0.761262 -0.534757 0.000000 
0.108942 -0.253381 0.000000 
-0.397202 -0.734220 0.000000 
-0.142083 0.604505 0.000000 
-0.595936 0.045730 0.000000 
0.978194 -0.454136 0.000000 
-0.660903 0.854239 0.000000 
0.724964 0.393719 0.000000 
0.899809 -0.248529 0.000000 
0.685384 0.346782 0.000000 
0.287229 -0.154376 0.000000 
0.702895 -0.853705 0.000000 
0.180633 0.654777 0.000000 
0.445811 -0.023383 0.000000 
-0.220880 -0.466169 0.000000 
-0.071546 0.902906 0.000000 
-0.033296 0.647834 0.000000 
-0.417537 0.147325 0.000000 
0.039645 -0.555238 0.000000 
-0.441768 0.944891 0.000000 
-0.109248 0.249440 0.000000 
-0.699407 -0.227315 0.000000 
-0.474522 -0.894594 0.000000 
0.820030 0.678412 0.000000 
0.957100 0.054341 0.000000 
0.610485 0.151249 0.000000 
-0.761092 -0.579131 0.000000 
-0.714655 0.710131 0.000000 
-0.057734 0.504964 0.000000 
-0.178789 0.658873 0.000000 
-0.067979 0.001447 0.000000 
0.677748 -0.136757 0.000000 
0.641556 -0.922502 0.000000 
-0.765897 0.819019 0.000000 
0.393446 -0.113118 0.000000 
0.522510 -0.748848 0.000000 
-0.691820 -0.847392 0.000000 
-0.647393 0.422125 0.000000 
0.028512 0.214598 0.000000 
-0.053800 -0.602762 0.000000 
0.514316 -0.874893 0.000000 
0.965681 -0.885109 0.000000 
-0.897068 0.490862 0.000000 
-0.083078 0.424009 0.000000 
-0.006893 -0.278515 0.000000 
0.724017 -0.442148 0.000000 
0.714996 0.781448 0.000000 
-0.642413 0.547991 0.000000 
-0.760780 -0.290990 0.000000 
-0.205471 -0.568805 0.000000 
0.000000 0.456551 0.000000 
-0.564049 -0.241636 0.000000 
0.000000 -0.647072 0.000000 
0.564049 -0.241636 0.000000 
0.866949 -0.996981 0.000000 
-0.569003 0.683088 0.000000 
0.000000 -0.797624 0.000000 
0.569003 0.683088 0.000000 
-0.866949 -0.996981 0.000000 
0.299194 0.233269 0.000000 
0.858290 -0.058315 0.000000 
-0.577662 0.518131 0.000000 
0.000000 0.098753 0.000000 
0.577662 0.518131 0.000000 
-0.858290 -0.058315 0.000000 
-0.299194 0.233269 0.000000 
-0.268560 -0.536481 0.000000 
0.286830 -0.814123 0.000000 
0.844677 -0.194924 0.000000 
-0.578910 -0.571087 0.000000 
0.000000 -0.079683 0.000000 
0.578910 -0.571087 0.000000 
-0.844677 -0.194924 0.000000 
-0.286830 -0.814123 0.000000 
0.268560 -0.536481 0.000000 
-0.610485 0.151249 0.000000 
0.057734 0.504964 0.000000 
0.714655 0.710131 0.000000 
0.761092 -0.579131 0.000000 
0.765897 0.819019 0.000000 
-0.641556 -0.922502 0.000000 
-0.677748 -0.136757 0.000000 
0.067979 0.001447 0.000000 
0.178789 0.658873 0.000000 
-0.514316 -0.874893 0.000000 
0.053800 -0.602762 0.000000 
-0.028512 0.214598 0.000000 
0.647393 0.422125 0.000000 
0.691820 -0.847392 0.000000 
-0.522510 -0.748848 0.000000 
-0.393446 -0.113118 0.000000 
0.205471 -0.568805 0.000000 
0.760780 -0.290990 0.000000 
0.642413 0.547991 0.000000 
-0.714996 0.781448 0.000000 
-0.724017 -0.442148 0.000000 
0.006894 -0.278515 0.000000 
0.083078 0.424009 0.000000 
0.897068 0.490862 0.000000 
-0.965681 -0.885109 0.000000 
-0.761262 -0.534757 0.000000 
0.142083 0.604505 0.000000 
0.397202 -0.734220 0.000000 
-0.108942 -0.253381 0.000000 
-0.899809 -0.248529 0.000000 
-0.724964 0.393719 0.000000 
0.660903 0.854239 0.000000 
-0.978194 -0.454136 0.000000 
0.595936 0.045730 0.000000 
0.071546 0.902906 0.000000 
0.220880 -0.466169 0.000000 
-0.445811 -0.023383 0.000000 
-0.180633 0.654777 0.000000 
-0.702895 -0.853705 0.000000 
-0.287229 -0.154376 0.000000 
-0.685384 0.346782 0.000000 
-0.957100 0.054341 0.000000 
-0.820030 0.678412 0.000000 
0.474522 -0.894594 0.000000 
0.699407 -0.227315 0.000000 
0.109248 0.249440 0.000000 
0.441768 0.944891 0.000000 
-0.039645 -0.555238 0.000000 
0.417537 0.147325 0.000000 
0.033296 0.647834 0.000000 
-0.338794 0.915108 0.000000 
-0.374519 -0.511929 0.000000 
-0.713312 0.107501 0.000000 
0.609100 -0.003640 0.000000 
-0.381900 0.110299 0.000000 
-0.756418 0.652691 0.000000 
0.513962 0.441205 0.000000 
0.218274 -0.834556 0.000000 
-0.423588 -0.868659 0.000000 
-0.384386 0.746068 0.000000 
-0.766286 -0.739312 0.000000 
0.484677 0.995473 0.000000 
0.139443 -0.366402 0.000000 
-0.556234 -0.483971 0.000000 
-0.823577 0.289533 0.000000 
0.550868 0.278737 0.000000 
-0.386873 -0.618163 0.000000 
-0.771260 -0.117773 0.000000 
0.467428 -0.424302 0.000000 
0.105264 0.174324 0.000000 
-0.621631 -0.007575 0.000000 
-0.937896 0.696005 0.000000 
0.385608 0.616810 0.000000 
0.141715 -0.573962 0.000000 
-0.474677 -0.573866 0.000000 
CELL_DATA 175 
SCALARS MASS float 
LOOKUP_TABLE default 
0.781831 
0.864274 
0.946717 
0.864274 
0.881307 
0.921110 
0.858535 
0.921110 
0.881307 
0.887046 
0.910001 
0.869829 
0.915556 
0.869829 
0.910001 
0.887046 
0.892784 
0.915740 
0.892784 
0.927218 
0.892784 
0.927218 
0.892784 
0.915740 
0.892784 
0.781831 
0.864274 
0.946717 
0.864274 
0.881307 
0.921110 
0.858535 
0.921110 
0.881307 
0.887046 
0.910001 
0.869829 
0.915556 
0.869829 
0.910001 
0.887046 
0.892784 
0.915740 
0.892784 
0.927218 
0.892784 
0.927218 
0.892784 
0.915740 
0.892784 
0.781831 
0.864274 
0.946717 
0.864274 
0.881307 
0.921110 
0.858535 
0.921110 
0.881307 
0.887046 
0.910001 
0.869829 
0.915556 
0.869829 
0.910001 
0.887046 
0.892784 
0.915740 
0.892784 
0.927218 
0.892784 
0.927218 
0.892784 
0.915740 
0.892784 
0.781831 
0.864274 
0.946717 
0.864274 
0.881307 
0.921110 
0.858535 
0.921110 
0.881307 
0.887046 
0.910001 
0.869829 
0.915556 
0.869829 
0.910001 
0.887046 
0.892784 
0.915740 
0.892784 
0.927218 
0.892784 
0.927218 
0.892784 
0.915740 
0.892784 
0.781831 
0.864274 
0.946717 
0.864274 
0.881307 
0.921110 
0.858535 
0.921110 
0.881307 
0.887046 
0.910001 
0.869829 
0.915556 
0.869829 
0.910001 
0.887046 
0.892784 
0.915740 
0.892784 
0.927218 
0.892784 
0.927218 
0.892784 
0.915740 
0.892784 
0.781831 
0.864274 
0.946717 
0.864274 
0.881307 
0.921110 
0.858535 
0.921110 
0.881307 
0.887046 
0.910001 
0.869829 
0.915556 
0.869829 
0.910001 
0.887046 
0.892784 
0.915740 
0.892784 
0.927218 
0.892784 
0.927218 
0.892784 
0.915740 
0.892784 
0.781831 
0.864274 
0.946717 
0.864274 
0.881307 
0.921110 
0.858535 
0.921110 
0.881307 
0.887046 
0.910001 
0.869829 
0.915556 
0.869829 
0.910001 
0.887046 
0.892784 
0.915740 
0.892784 
0.927218 
0.892784 
0.927218 
0.892784 
0.915740 
0.892784 
SCALARS MASS float 
LOOKUP_TABLE default 
0.781831 
0.864274 
0.946717 
0.864274 
0.881307 
0.921110 
0.858535 
0.921110 
0.881307 
0.887046 
0.910001 
0.869829 
0.915556 
0.869829 
0.910001 
0.887046 
0.892784 
0.915740 
0.892784 
0.927218 
0.892784 
0.927218 
0.892784 
0.915740 
0.892784 
0.781831 
0.864274 
0.946717 
0.864274 
0.881307 
0.921110 
0.858535 
0.921110 
0.881307 
0.887046 
0.910001 
0.869829 
0.915556 
0.869829 
0.910001 
0.887046 
0.892784 
0.915740 
0.892784 
0.927218 
0.892784 
0.927218 
0.892784 
0.915740 
0.892784 
0.781831 
0.864274 
0.946717 
0.864274 
0.881307 
0.921110 
0.858535 
0.921110 
0.881307 
0.887046 
0.910001 
0.869829 
0.915556 
0.869829 
0.910001 
0.887046 
0.892784 
0.915740 
0.892784 
0.927218 
0.892784 
0.927218 
0.892784 
0.915740 
0.892784 
0.781831 
0.864274 
0.946717 
0.864274 
0.881307 
0.921110 
0.858535 
0.921110 
0.881307 
0.887046 
0.910001 
0.869829 
0.915556 
0.869829 
0.910001 
0.887046 
0.892784 
0.915740 
0.892784 
0.927218 
0.892784 
0.927218 
0.892784 
0.915740 
0.892784 
0.781831 
0.864274 
0.946717 
0.864274 
0.881307 
0.921110 
0.858535 
0.921110 
0.881307 
0.887046 
0.910001 
0.869829 
0.915556 
0.869829 
0.910001 
0.887046 
0.892784 
0.915740 
0.892784 
0.927218 
0.892784 
0.927218 
0.892784 
0.915740 
0.892784 
0.781831 
0.864274 
0.946717 
0.864274 
0.881307 
0.921110 
0.858535 
0.921110 
0.881307 
0.887046 
0.910001 
0.869829 
0.915556 
0.869829 
0.910001 
0.887046 
0.892784 
0.915740 
0.892784 
0.927218 
0.892784 
0.927218 
0.892784 
0.915740 
0.892784 
0.781831 
0.864274 
0.946717 
0.864274 
0.881307 
0.921110 
0.858535 
0.921110 
0.881307 
0.887046 
0.910001 
0.869829 
0.915556 
0.869829 
0.910001 
0.887046 
0.892784 
0.915740 
0.892784 
0.927218 
0.892784 
0.927218 
0.892784 
0.915740 
0.892784 
SCALARS DENSITY float 
LOOKUP_TABLE default 
200.000000 
200.000000 
200.000000 
200.000000 
200.000000 
200.000000 
200.000000 
200.000000 
200.000000 
200.000000 
200.000000 
200.000000 
200.000000 
200.000000 
200.000000 
200.000000 
200.000000 
200.000000 
200.000000 
200.000000 
200.000000 
200.000000 
200.000000 
200.000000 
200.000000 
200.000000 
200.000000 
200.000000 
200.000000 
200.000000 
200.000000 
200.000000 
200.000000 
200.000000 
200.000000 
200.000000 
200.000000 
200.000000 
200.000000 
200.000000 
200.000000 
200.000000 
200.000000 
200.000000 
200.000000 
200.000000 
200.000000 
200.000000 
200.000000 
200.000000 
200.000000 
200.000000 
200.000000 
200.000000 
200.000000 
200.000000 
200.000000 
200.000000 
200.000000 
200.000000 
200.000000 
200.000000 
200.000000 
200.000000 
200.000000 
200.000000 
200.000000 
200.000000 
200.000000 
200.000000 
200.000000 
200.000000 
200.000000 
200.000000 
200.000000 
200.000000 
200.000000 
200.000000 
200.000000 
200.000000 
200.000000 
200.000000 
200.000000 
200.000000 
200.000000 
200.000000 
200.000000 
200.000000 
200.000000 
200.000000 
200.000000 
200.000000 
200.000000 
200.000000 
200.000000 
200.000000 
200.000000 
200.000000 
200.000000 
200.000000 
200.000000 
200.000000 
200.000000 
200.000000 
200.000000 
200.000000 
200.000000 
200.000000 
200.000000 
200.000000 
200.000000 
200.000000 
200.000000 
200.000000 
200.000000 
200.000000 
200.000000 
200.000000 
200.000000 
200.000000 
200.000000 
200.000000 
200.000000 
200.000000 
200.000000 
200.000000 
200.000000 
200.000000 
200.000000 
200.000000 
200.000000 
200.000000 
200.000000 
200.000000 
200.000000 
200.000000 
200.000000 
200.000000 
200.000000 
200.000000 
200.000000 
200.000000 
200.000000 
200.000000 
200.000000 
200.000000 
200.000000 
200.000000 
200.000000 
200.000000 
200.000000 
200.000000 
200.000000 
200.000000 
200.000000 
200.000000 
200.000000 
200.000000 
200.000000 
200.000000 
200.000000 
200.000000 
200.000000 
200.000000 
200.000000 
200.000000 
200.000000 
200.000000 
200.000000 
200.000000 
200.000000 
200.000000 
200.000000 
200.000000 
200.000000 
SCALARS ELEM_i float 
LOOKUP_TABLE default 
179 
206 
179 
179 
206 
206 
207 
180 
180 
234 
207 
207 
207 
208 
180 
181 
234 
234 
235 
208 
208 
208 
208 
181 
181 
178 
205 
205 
206 
232 
205 
233 
206 
206 
232 
232 
232 
233 
233 
233 
234 
259 
259 
259 
260 
260 
260 
260 
234 
234 
178 
204 
205 
205 
204 
204 
204 
204 
232 
203 
203 
230 
231 
231 
231 
231 
202 
230 
230 
230 
230 
231 
258 
258 
258 
178 
177 
177 
177 
149 
177 
176 
177 
203 
149 
149 
176 
176 
176 
203 
203 
148 
148 
148 
175 
175 
175 
202 
202 
202 
178 
151 
151 
150 
124 
150 
150 
150 
150 
123 
123 
123 
123 
122 
149 
149 
96 
96 
96 
123 
122 
122 
122 
122 
148 
178 
152 
151 
151 
152 
152 
125 
151 
124 
126 
125 
125 
125 
124 
124 
124 
126 
126 
98 
98 
98 
98 
97 
97 
97 
179 
179 
179 
152 
180 
180 
153 
152 
152 
181 
180 
154 
153 
153 
153 
126 
181 
181 
154 
154 
154 
154 
127 
126 
126 
VECTORS VELOCITY float 
-0.000000 -3.221604 0.000000 
-0.000000 -3.221604 0.000000 
0.000000 -3.221604 0.000000 
-0.000000 -3.221604 0.000000 
0.000000 -3.221604 0.000000 
0.000000 -3.221604 0.000000 
0.000000 -3.221604 0.000000 
0.000000 -3.221604 0.000000 
0.000000 -3.221604 0.000000 
0.000000 -3.221604 0.000000 
0.000000 -3.221604 0.000000 
0.000000 -3.221604 0.000000 
0.000000 -3.221604 0.000000 
0.000000 -3.221604 0.000000 
0.000000 -3.221604 0.000000 
0.000000 -3.221604 0.000000 
0.000000 -3.221604 0.000000 
0.000000 -3.221604 0.000000 
-0.000000 -3.221604 0.000000 
-0.000000 -3.221604 0.000000 
0.000000 -3.221604 0.000000 
-0.000000 -3.221604 0.000000 
0.000000 -3.221604 0.000000 
-0.000000 -3.221604 0.000000 
-0.000000 -3.221604 0.000000 
0.000000 -3.221604 0.000000 
-0.000000 -3.221604 0.000000 
-0.000000 -3.221604 0.000000 
-0.000000 -3.221604 0.000000 
-0.000000 -3.221604 0.000000 
-0.000000 -3.221604 0.000000 
-0.000000 -3.221604 0.000000 
-0.000000 -3.221604 0.000000 
0.000000 -3.221604 0.000000 
0.000000 -3.221604 0.000000 
0.000000 -3.221604 0.000000 
-0.000000 -3.221604 0.000000 
-0.000000 -3.221604 0.000000 
-0.000000 -3.221604 0.000000 
0.000000 -3.221604 0.000000 
0.000000 -3.221604 0.000000 
0.000000 -3.221604 0.000000 
0.000000 -3.221604 0.000000 
-0.000000 -3.221604 0.000000 
0.000000 -3.221604 0.000000 
0.000000 -3.221604 0.000000 
-0.000000 -3.221604 0.000000 
0.000000 -3.221604 0.000000 
0.000000 -3.221604 0.000000 
-0.000000 -3.221604 0.000000 
-0.000000 -3.221604 0.000000 
-0.000000 -3.221604 0.000000 
0.000000 -3.221604 0.000000 
-0.000000 -3.221604 0.000000 
-0.000000 -3.221604 0.000000 
-0.000000 -3.221604 0.000000 
-0.000000 -3.221604 0.000000 
-0.000000 -3.221604 0.000000 
-0.000000 -3.221604 0.000000 
0.000000 -3.221604 0.000000 
-0.000000 -3.221604 0.000000 
-0.000000 -3.221604 0.000000 
-0.000000 -3.221604 0.000000 
-0.000000 -3.221604 0.000000 
-0.000000 -3.221604 0.000000 
-0.000000 -3.221604 0.000000 
-0.000000 -3.221604 0.000000 
-0.000000 -3.221604 0.000000 
-0.000000 -3.221604 0.000000 
-0.000000 -3.221604 0.000000 
-0.000000 -3.221604 0.000000 
0.000000 -3.221604 0.000000 
-0.000000 -3.221604 0.000000 
-0.000000 -3.221604 0.000000 
-0.000000 -3.221604 0.000000 
-0.000000 -3.221604 0.000000 
-0.000000 -3.221604 0.000000 
-0.000000 -3.221604 0.000000 
-0.000000 -3.221604 0.000000 
0.000000 -3.221604 0.000000 
-0.000000 -3.221604 0.000000 
-0.000000 -3.221604 0.000000 
-0.000000 -3.221604 0.000000 
-0.000000 -3.221604 0.000000 
0.000000 -3.221604 0.000000 
0.000000 -3.221604 0.000000 
-0.000000 -3.221604 0.000000 
-0.000000 -3.221604 0.000000 
-0.000000 -3.221604 0.000000 
-0.000000 -3.221604 0.000000 
-0.000000 -3.221604 0.000000 
-0.000000 -3.221604 0.000000 
0.000000 -3.221604 0.000000 
0.000000 -3.221604 0.000000 
0.000000 -3.221604 0.000000 
-0.000000 -3.221604 0.000000 
-0.000000 -3.221604 0.000000 
0.000000 -3.221604 0.000000 
-0.000000 -3.221604 0.000000 
0.000000 -3.221604 0.000000 
-0.000000 -3.221604 0.000000 
0.000000 -3.221604 0.000000 
-0.000000 -3.221604 0.000000 
-0.000000 -3.221604 0.000000 
0.000000 -3.221604 0.000000 
-0.000000 -3.221604 0.000000 
-0.000000 -3.221604 0.000000 
-0.000000 -3.221604 0.000000 
-0.000000 -3.221604 0.000000 
-0.000000 -3.221604 0.000000 
-0.000000 -3.221604 0.000000 
-0.000000 -3.221604 0.000000 
-0.000000 -3.221604 0.000000 
-0.000000 -3.221604 0.000000 
-0.000000 -3.221604 0.000000 
0.000000 -3.221604 0.000000 
0.000000 -3.221604 0.000000 
0.000000 -3.221604 0.000000 
0.000000 -3.221604 0.000000 
0.000000 -3.221604 0.000000 
-0.000000 -3.221604 0.000000 
-0.000000 -3.221604 0.000000 
-0.000000 -3.221604 0.000000 
0.000000 -3.221604 0.000000 
0.000000 -3.221604 0.000000 
0.000000 -3.221604 0.000000 
-0.000000 -3.221604 0.000000 
0.000000 -3.221604 0.000000 
0.000000 -3.221604 0.000000 
-0.000000 -3.221604 0.000000 
-0.000000 -3.221604 0.000000 
-0.000000 -3.221604 0.000000 
-0.000000 -3.221604 0.000000 
0.000000 -3.221604 0.000000 
0.000000 -3.221604 0.000000 
0.000000 -3.221604 0.000000 
0.000000 -3.221604 0.000000 
0.000000 -3.221604 0.000000 
0.000000 -3.221604 0.000000 
-0.000000 -3.221604 0.000000 
-0.000000 -3.221604 0.000000 
-0.000000 -3.221604 0.000000 
-0.000000 -3.221604 0.000000 
-0.000000 -3.221604 0.000000 
0.000000 -3.221604 0.000000 
0.000000 -3.221604 0.000000 
0.000000 -3.221604 0.000000 
0.000000 -3.221604 0.000000 
0.000000 -3.221604 0.000000 
0.000000 -3.221604 0.000000 
0.000000 -3.221604 0.000000 
0.000000 -3.221604 0.000000 
0.000000 -3.221604 0.000000 
0.000000 -3.221604 0.000000 
0.000000 -3.221604 0.000000 
0.000000 -3.221604 0.000000 
0.000000 -3.221604 0.000000 
0.000000 -3.221604 0.000000 
0.000000 -3.221604 0.000000 
-0.000000 -3.221604 0.000000 
-0.000000 -3.221604 0.000000 
0.000000 -3.221604 0.000000 
0.000000 -3.221604 0.000000 
0.000000 -3.221604 0.000000 
0.000000 -3.221604 0.000000 
0.000000 -3.221604 0.000000 
0.000000 -3.221604 0.000000 
0.000000 -3.221604 0.000000 
0.000000 -3.221604 0.000000 
0.000000 -3.221604 0.000000 
0.000000 -3.221604 0.000000 
0.000000 -3.221604 0.000000 
0.000000 -3.221604 0.000000 
0.000000 -3.221604 0.000000 
0.000000 -3.221604 0.000000 
TENSORS STRESS float 
-0.000000 0.000000 0.000000 
0.000000 -0.000000 0.000000 
0.000000 0.000000 0.000000 

0.000000 0.000000 0.000000 
0.000000 0.000000 0.000000 
0.000000 0.000000 0.000000 

-0.000000 0.000000 0.000000 
0.000000 -0.000000 0.000000 
0.000000 0.000000 0.000000 

0.000000 -0.000000 0.000000 
0.000000 0.000000 0.000000 
0.000000 0.000000 0.000000 

-0.000000 0.000000 0.000000 
0.000000 -0.000000 0.000000 
0.000000 0.000000 0.000000 

-0.000000 0.000000 0.000000 
0.000000 -0.000000 0.000000 
0.000000 0.000000 0.000000 

0.000000 -0.000000 0.000000 
0.000000 0.000000 0.000000 
0.000000 0.000000 0.000000 

0.000000 -0.000000 0.000000 
0.000000 0.000000 0.000000 
0.000000 0.000000 0.000000 

-0.000000 -0.000000 0.000000 
0.000000 -0.000000 0.000000 
0.000000 0.000000 0.000000 

0.000000 -0.000000 0.000000 
0.000000 0.000000 0.000000 
0.000000 0.000000 0.000000 

0.000000 -0.000000 0.000000 