# vtk DataFile Version 3.0 
vtk output 
ASCII 
DATASET UNSTRUCTURED_GRID 
POINTS 175 float 
-0.026061 -1.017902 0.000000 
-0.106992 -0.949847 0.000000 
-0.054870 -0.958079 0.000000 
-0.028809 -0.912196 0.000000 
-0.186430 -0.885771 0.000000 
-0.137056 -0.888297 0.000000 
-0.114311 -0.834650 0.000000 
-0.058186 -0.850316 0.000000 
-0.029377 -0.810138 0.000000 
-0.265318 -0.822615 0.000000 
-0.217198 -0.823415 0.000000 
-0.196633 -0.766118 0.000000 
-0.143120 -0.774827 0.000000 
-0.116563 -0.727559 0.000000 
-0.058945 -0.747204 0.000000 
-0.029568 -0.709084 0.000000 
-0.344206 -0.759460 0.000000 
-0.296791 -0.759452 0.000000 
-0.278030 -0.699510 0.000000 
-0.225992 -0.705376 0.000000 
-0.201664 -0.653259 0.000000 
-0.145749 -0.666733 0.000000 
-0.117890 -0.622390 0.000000 
-0.059328 -0.645096 0.000000 
-0.029759 -0.608030 0.000000 
-0.058559 -1.058653 0.000000 
-0.162226 -1.079495 0.000000 
-0.123292 -1.043878 0.000000 
-0.142917 -0.994894 0.000000 
-0.261851 -1.101652 0.000000 
-0.229092 -1.064625 0.000000 
-0.256854 -1.013393 0.000000 
-0.209613 -0.979281 0.000000 
-0.223062 -0.931707 0.000000 
-0.360414 -1.123952 0.000000 
-0.329787 -1.086829 0.000000 
-0.361761 -1.035027 0.000000 
-0.321587 -0.998618 0.000000 
-0.341985 -0.948384 0.000000 
-0.290702 -0.915585 0.000000 
-0.302189 -0.868850 0.000000 
-0.458977 -1.146252 0.000000 
-0.429420 -1.109177 0.000000 
-0.464588 -1.057136 0.000000 
-0.427556 -1.020108 0.000000 
-0.453135 -0.968593 0.000000 
-0.407738 -0.933278 0.000000 
-0.425037 -0.883850 0.000000 
-0.370772 -0.852221 0.000000 
-0.381315 -0.805993 0.000000 
-0.046960 -1.109468 0.000000 
-0.095301 -1.203514 0.000000 
-0.098873 -1.150867 0.000000 
-0.149405 -1.135669 0.000000 
-0.140093 -1.295218 0.000000 
-0.148617 -1.246520 0.000000 
-0.205981 -1.236282 0.000000 
-0.203197 -1.178079 0.000000 
-0.248777 -1.158932 0.000000 
-0.184111 -1.386182 0.000000 
-0.194039 -1.339090 0.000000 
-0.254475 -1.331791 0.000000 
-0.257893 -1.277681 0.000000 
-0.309886 -1.262309 0.000000 
-0.303554 -1.201763 0.000000 
-0.347255 -1.181606 0.000000 
-0.228129 -1.477145 0.000000 
-0.238687 -1.430921 0.000000 
-0.301302 -1.425969 0.000000 
-0.307162 -1.373930 0.000000 
-0.363386 -1.361809 0.000000 
-0.362692 -1.304298 0.000000 
-0.412122 -1.287004 0.000000 
-0.403017 -1.224858 0.000000 
-0.445733 -1.204279 0.000000 
-0.000000 -1.132083 0.000000 
0.043388 -1.228514 0.000000 
-0.000000 -1.198481 0.000000 
-0.043388 -1.228514 0.000000 
0.087158 -1.320710 0.000000 
0.043769 -1.297012 0.000000 
-0.000000 -1.335477 0.000000 
-0.043769 -1.297012 0.000000 
-0.087158 -1.320710 0.000000 
0.130831 -1.411840 0.000000 
0.087824 -1.390241 0.000000 
0.044436 -1.432941 0.000000 
-0.000000 -1.401876 0.000000 
-0.044436 -1.432941 0.000000 
-0.087824 -1.390241 0.000000 
-0.130831 -1.411840 0.000000 
0.174505 -1.502969 0.000000 
0.131782 -1.482403 0.000000 
0.088871 -1.528270 0.000000 
0.044532 -1.500406 0.000000 
-0.000000 -1.536806 0.000000 
-0.044532 -1.500406 0.000000 
-0.088871 -1.528270 0.000000 
-0.131782 -1.482403 0.000000 
-0.174505 -1.502969 0.000000 
0.046960 -1.109468 0.000000 
0.149405 -1.135669 0.000000 
0.098873 -1.150867 0.000000 
0.095301 -1.203514 0.000000 
0.248777 -1.158932 0.000000 
0.203197 -1.178079 0.000000 
0.205981 -1.236282 0.000000 
0.148617 -1.246520 0.000000 
0.140093 -1.295218 0.000000 
0.347255 -1.181606 0.000000 
0.303554 -1.201763 0.000000 
0.309886 -1.262309 0.000000 
0.257893 -1.277681 0.000000 
0.254475 -1.331791 0.000000 
0.194039 -1.339090 0.000000 
0.184111 -1.386182 0.000000 
0.445733 -1.204279 0.000000 
0.403017 -1.224858 0.000000 
0.412122 -1.287004 0.000000 
0.362692 -1.304298 0.000000 
0.363386 -1.361809 0.000000 
0.307162 -1.373930 0.000000 
0.301302 -1.425969 0.000000 
0.238687 -1.430921 0.000000 
0.228129 -1.477145 0.000000 
0.058559 -1.058653 0.000000 
0.142917 -0.994894 0.000000 
0.123292 -1.043878 0.000000 
0.162226 -1.079495 0.000000 
0.223062 -0.931707 0.000000 
0.209613 -0.979281 0.000000 
0.256854 -1.013393 0.000000 
0.229092 -1.064625 0.000000 
0.261851 -1.101652 0.000000 
0.302189 -0.868850 0.000000 
0.290702 -0.915585 0.000000 
0.341985 -0.948384 0.000000 
0.321587 -0.998618 0.000000 
0.361761 -1.035027 0.000000 
0.329787 -1.086829 0.000000 
0.360414 -1.123952 0.000000 
0.381315 -0.805993 0.000000 
0.370772 -0.852221 0.000000 
0.425037 -0.883850 0.000000 
0.407738 -0.933278 0.000000 
0.453135 -0.968593 0.000000 
0.427556 -1.020108 0.000000 
0.464588 -1.057136 0.000000 
0.429420 -1.109177 0.000000 
0.458977 -1.146252 0.000000 
0.026061 -1.017902 0.000000 
0.028809 -0.912196 0.000000 
0.054870 -0.958079 0.000000 
0.106992 -0.949847 0.000000 
0.029377 -0.810138 0.000000 
0.058186 -0.850316 0.000000 
0.114311 -0.834650 0.000000 
0.137056 -0.888297 0.000000 
0.186430 -0.885771 0.000000 
0.029568 -0.709084 0.000000 
0.058945 -0.747204 0.000000 
0.116563 -0.727559 0.000000 
0.143120 -0.774827 0.000000 
0.196633 -0.766118 0.000000 
0.217198 -0.823415 0.000000 
0.265318 -0.822615 0.000000 
0.029759 -0.608030 0.000000 
0.059328 -0.645096 0.000000 
0.117890 -0.622390 0.000000 
0.145749 -0.666733 0.000000 
0.201664 -0.653259 0.000000 
0.225992 -0.705376 0.000000 
0.278030 -0.699510 0.000000 
0.296791 -0.759452 0.000000 
0.344206 -0.759460 0.000000 
CELLS 175 350 
1 0 
1 1 
1 2 
1 3 
1 4 
1 5 
1 6 
1 7 
1 8 
1 9 
1 10 
1 11 
1 12 
1 13 
1 14 
1 15 
1 16 
1 17 
1 18 
1 19 
1 20 
1 21 
1 22 
1 23 
1 24 
1 25 
1 26 
1 27 
1 28 
1 29 
1 30 
1 31 
1 32 
1 33 
1 34 
1 35 
1 36 
1 37 
1 38 
1 39 
1 40 
1 41 
1 42 
1 43 
1 44 
1 45 
1 46 
1 47 
1 48 
1 49 
1 50 
1 51 
1 52 
1 53 
1 54 
1 55 
1 56 
1 57 
1 58 
1 59 
1 60 
1 61 
1 62 
1 63 
1 64 
1 65 
1 66 
1 67 
1 68 
1 69 
1 70 
1 71 
1 72 
1 73 
1 74 
1 75 
1 76 
1 77 
1 78 
1 79 
1 80 
1 81 
1 82 
1 83 
1 84 
1 85 
1 86 
1 87 
1 88 
1 89 
1 90 
1 91 
1 92 
1 93 
1 94 
1 95 
1 96 
1 97 
1 98 
1 99 
1 100 
1 101 
1 102 
1 103 
1 104 
1 105 
1 106 
1 107 
1 108 
1 109 
1 110 
1 111 
1 112 
1 113 
1 114 
1 115 
1 116 
1 117 
1 118 
1 119 
1 120 
1 121 
1 122 
1 123 
1 124 
1 125 
1 126 
1 127 
1 128 
1 129 
1 130 
1 131 
1 132 
1 133 
1 134 
1 135 
1 136 
1 137 
1 138 
1 139 
1 140 
1 141 
1 142 
1 143 
1 144 
1 145 
1 146 
1 147 
1 148 
1 149 
1 150 
1 151 
1 152 
1 153 
1 154 
1 155 
1 156 
1 157 
1 158 
1 159 
1 160 
1 161 
1 162 
1 163 
1 164 
1 165 
1 166 
1 167 
1 168 
1 169 
1 170 
1 171 
1 172 
1 173 
1 174 
CELL_TYPES 175 
1 
1 
1 
1 
1 
1 
1 
1 
1 
1 
1 
1 
1 
1 
1 
1 
1 
1 
1 
1 
1 
1 
1 
1 
1 
1 
1 
1 
1 
1 
1 
1 
1 
1 
1 
1 
1 
1 
1 
1 
1 
1 
1 
1 
1 
1 
1 
1 
1 
1 
1 
1 
1 
1 
1 
1 
1 
1 
1 
1 
1 
1 
1 
1 
1 
1 
1 
1 
1 
1 
1 
1 
1 
1 
1 
1 
1 
1 
1 
1 
1 
1 
1 
1 
1 
1 
1 
1 
1 
1 
1 
1 
1 
1 
1 
1 
1 
1 
1 
1 
1 
1 
1 
1 
1 
1 
1 
1 
1 
1 
1 
1 
1 
1 
1 
1 
1 
1 
1 
1 
1 
1 
1 
1 
1 
1 
1 
1 
1 
1 
1 
1 
1 
1 
1 
1 
1 
1 
1 
1 
1 
1 
1 
1 
1 
1 
1 
1 
1 
1 
1 
1 
1 
1 
1 
1 
1 
1 
1 
1 
1 
1 
1 
1 
1 
1 
1 
1 
1 
1 
1 
1 
1 
1 
1 
POINT_DATA 175 
VECTORS X_GC float 
-0.026061 -1.017902 0.000000 
-0.106992 -0.949847 0.000000 
-0.054870 -0.958079 0.000000 
-0.028809 -0.912196 0.000000 
-0.186430 -0.885771 0.000000 
-0.137056 -0.888297 0.000000 
-0.114311 -0.834650 0.000000 
-0.058186 -0.850316 0.000000 
-0.029377 -0.810138 0.000000 
-0.265318 -0.822615 0.000000 
-0.217198 -0.823415 0.000000 
-0.196633 -0.766118 0.000000 
-0.143120 -0.774827 0.000000 
-0.116563 -0.727559 0.000000 
-0.058945 -0.747204 0.000000 
-0.029568 -0.709084 0.000000 
-0.344206 -0.759460 0.000000 
-0.296791 -0.759452 0.000000 
-0.278030 -0.699510 0.000000 
-0.225992 -0.705376 0.000000 
-0.201664 -0.653259 0.000000 
-0.145749 -0.666733 0.000000 
-0.117890 -0.622390 0.000000 
-0.059328 -0.645096 0.000000 
-0.029759 -0.608030 0.000000 
-0.058559 -1.058653 0.000000 
-0.162226 -1.079495 0.000000 
-0.123292 -1.043878 0.000000 
-0.142917 -0.994894 0.000000 
-0.261851 -1.101652 0.000000 
-0.229092 -1.064625 0.000000 
-0.256854 -1.013393 0.000000 
-0.209613 -0.979281 0.000000 
-0.223062 -0.931707 0.000000 
-0.360414 -1.123952 0.000000 
-0.329787 -1.086829 0.000000 
-0.361761 -1.035027 0.000000 
-0.321587 -0.998618 0.000000 
-0.341985 -0.948384 0.000000 
-0.290702 -0.915585 0.000000 
-0.302189 -0.868850 0.000000 
-0.458977 -1.146252 0.000000 
-0.429420 -1.109177 0.000000 
-0.464588 -1.057136 0.000000 
-0.427556 -1.020108 0.000000 
-0.453135 -0.968593 0.000000 
-0.407738 -0.933278 0.000000 
-0.425037 -0.883850 0.000000 
-0.370772 -0.852221 0.000000 
-0.381315 -0.805993 0.000000 
-0.046960 -1.109468 0.000000 
-0.095301 -1.203514 0.000000 
-0.098873 -1.150867 0.000000 
-0.149405 -1.135669 0.000000 
-0.140093 -1.295218 0.000000 
-0.148617 -1.246520 0.000000 
-0.205981 -1.236282 0.000000 
-0.203197 -1.178079 0.000000 
-0.248777 -1.158932 0.000000 
-0.184111 -1.386182 0.000000 
-0.194039 -1.339090 0.000000 
-0.254475 -1.331791 0.000000 
-0.257893 -1.277681 0.000000 
-0.309886 -1.262309 0.000000 
-0.303554 -1.201763 0.000000 
-0.347255 -1.181606 0.000000 
-0.228129 -1.477145 0.000000 
-0.238687 -1.430921 0.000000 
-0.301302 -1.425969 0.000000 
-0.307162 -1.373930 0.000000 
-0.363386 -1.361809 0.000000 
-0.362692 -1.304298 0.000000 
-0.412122 -1.287004 0.000000 
-0.403017 -1.224858 0.000000 
-0.445733 -1.204279 0.000000 
-0.000000 -1.132083 0.000000 
0.043388 -1.228514 0.000000 
-0.000000 -1.198481 0.000000 
-0.043388 -1.228514 0.000000 
0.087158 -1.320710 0.000000 
0.043769 -1.297012 0.000000 
-0.000000 -1.335477 0.000000 
-0.043769 -1.297012 0.000000 
-0.087158 -1.320710 0.000000 
0.130831 -1.411840 0.000000 
0.087824 -1.390241 0.000000 
0.044436 -1.432941 0.000000 
-0.000000 -1.401876 0.000000 
-0.044436 -1.432941 0.000000 
-0.087824 -1.390241 0.000000 
-0.130831 -1.411840 0.000000 
0.174505 -1.502969 0.000000 
0.131782 -1.482403 0.000000 
0.088871 -1.528270 0.000000 
0.044532 -1.500406 0.000000 
-0.000000 -1.536806 0.000000 
-0.044532 -1.500406 0.000000 
-0.088871 -1.528270 0.000000 
-0.131782 -1.482403 0.000000 
-0.174505 -1.502969 0.000000 
0.046960 -1.109468 0.000000 
0.149405 -1.135669 0.000000 
0.098873 -1.150867 0.000000 
0.095301 -1.203514 0.000000 
0.248777 -1.158932 0.000000 
0.203197 -1.178079 0.000000 
0.205981 -1.236282 0.000000 
0.148617 -1.246520 0.000000 
0.140093 -1.295218 0.000000 
0.347255 -1.181606 0.000000 
0.303554 -1.201763 0.000000 
0.309886 -1.262309 0.000000 
0.257893 -1.277681 0.000000 
0.254475 -1.331791 0.000000 
0.194039 -1.339090 0.000000 
0.184111 -1.386182 0.000000 
0.445733 -1.204279 0.000000 
0.403017 -1.224858 0.000000 
0.412122 -1.287004 0.000000 
0.362692 -1.304298 0.000000 
0.363386 -1.361809 0.000000 
0.307162 -1.373930 0.000000 
0.301302 -1.425969 0.000000 
0.238687 -1.430921 0.000000 
0.228129 -1.477145 0.000000 
0.058559 -1.058653 0.000000 
0.142917 -0.994894 0.000000 
0.123292 -1.043878 0.000000 
0.162226 -1.079495 0.000000 
0.223062 -0.931707 0.000000 
0.209613 -0.979281 0.000000 
0.256854 -1.013393 0.000000 
0.229092 -1.064625 0.000000 
0.261851 -1.101652 0.000000 
0.302189 -0.868850 0.000000 
0.290702 -0.915585 0.000000 
0.341985 -0.948384 0.000000 
0.321587 -0.998618 0.000000 
0.361761 -1.035027 0.000000 
0.329787 -1.086829 0.000000 
0.360414 -1.123952 0.000000 
0.381315 -0.805993 0.000000 
0.370772 -0.852221 0.000000 
0.425037 -0.883850 0.000000 
0.407738 -0.933278 0.000000 
0.453135 -0.968593 0.000000 
0.427556 -1.020108 0.000000 
0.464588 -1.057136 0.000000 
0.429420 -1.109177 0.000000 
0.458977 -1.146252 0.000000 
0.026061 -1.017902 0.000000 
0.028809 -0.912196 0.000000 
0.054870 -0.958079 0.000000 
0.106992 -0.949847 0.000000 
0.029377 -0.810138 0.000000 
0.058186 -0.850316 0.000000 
0.114311 -0.834650 0.000000 
0.137056 -0.888297 0.000000 
0.186430 -0.885771 0.000000 
0.029568 -0.709084 0.000000 
0.058945 -0.747204 0.000000 
0.116563 -0.727559 0.000000 
0.143120 -0.774827 0.000000 
0.196633 -0.766118 0.000000 
0.217198 -0.823415 0.000000 
0.265318 -0.822615 0.000000 
0.029759 -0.608030 0.000000 
0.059328 -0.645096 0.000000 
0.117890 -0.622390 0.000000 
0.145749 -0.666733 0.000000 
0.201664 -0.653259 0.000000 
0.225992 -0.705376 0.000000 
0.278030 -0.699510 0.000000 
0.296791 -0.759452 0.000000 
0.344206 -0.759460 0.000000 
VECTORS X_EC float 
0.338794 0.241677 0.000000 
-0.609100 -0.677071 0.000000 
0.713312 -0.565930 0.000000 
0.374519 0.814640 0.000000 
0.423588 0.457910 0.000000 
-0.218274 0.492013 0.000000 
-0.513962 -0.232226 0.000000 
0.756418 -0.020740 0.000000 
0.381900 -0.563132 0.000000 
-0.550868 -0.394693 0.000000 
0.823577 -0.383898 0.000000 
0.556234 0.842598 0.000000 
-0.139443 0.960167 0.000000 
-0.484677 0.322042 0.000000 
0.766286 0.587257 0.000000 
0.384386 0.072637 0.000000 
0.474677 0.752703 0.000000 
-0.141715 0.752607 0.000000 
-0.385608 -0.056621 0.000000 
0.937896 0.022574 0.000000 
0.621631 -0.681006 0.000000 
-0.105264 -0.499107 0.000000 
-0.467428 0.902267 0.000000 
0.771260 -0.791204 0.000000 
0.386873 0.708406 0.000000 
0.761262 0.791812 0.000000 
0.108942 -0.926811 0.000000 
-0.397202 0.592349 0.000000 
-0.142083 -0.068926 0.000000 
-0.595936 -0.627701 0.000000 
0.978194 0.872433 0.000000 
-0.660903 0.180808 0.000000 
0.724964 -0.279712 0.000000 
0.899809 -0.921960 0.000000 
0.685384 -0.326649 0.000000 
0.287229 -0.827807 0.000000 
0.702895 0.472864 0.000000 
0.180633 -0.018654 0.000000 
0.445811 -0.696814 0.000000 
-0.220880 0.860400 0.000000 
-0.071546 0.229475 0.000000 
-0.033296 -0.025596 0.000000 
-0.417537 -0.526106 0.000000 
0.039645 0.771331 0.000000 
-0.441768 0.271460 0.000000 
-0.109248 -0.423990 0.000000 
-0.699407 -0.900746 0.000000 
-0.474522 0.431975 0.000000 
0.820030 0.004981 0.000000 
0.957100 -0.619090 0.000000 
0.610485 -0.522182 0.000000 
-0.761092 0.747438 0.000000 
-0.714655 0.036700 0.000000 
-0.057734 -0.168467 0.000000 
-0.178789 -0.014558 0.000000 
-0.067979 -0.671984 0.000000 
0.677748 -0.810188 0.000000 
0.641556 0.404067 0.000000 
-0.765897 0.145589 0.000000 
0.393446 -0.786549 0.000000 
0.522510 0.577721 0.000000 
-0.691820 0.479177 0.000000 
-0.647393 -0.251306 0.000000 
0.028512 -0.458833 0.000000 
-0.053800 0.723807 0.000000 
0.514316 0.451676 0.000000 
0.965681 0.441460 0.000000 
-0.897068 -0.182569 0.000000 
-0.083078 -0.249422 0.000000 
-0.006893 -0.951946 0.000000 
0.724017 0.884421 0.000000 
0.714996 0.108017 0.000000 
-0.642413 -0.125440 0.000000 
-0.760780 -0.964421 0.000000 
-0.205471 0.757764 0.000000 
0.000000 -0.216880 0.000000 
-0.564049 -0.915067 0.000000 
0.000000 0.679497 0.000000 
0.564049 -0.915067 0.000000 
0.866949 0.329588 0.000000 
-0.569003 0.009657 0.000000 
0.000000 0.528945 0.000000 
0.569003 0.009657 0.000000 
-0.866949 0.329588 0.000000 
0.299194 -0.440162 0.000000 
0.858290 -0.731746 0.000000 
-0.577662 -0.155300 0.000000 
0.000000 -0.574678 0.000000 
0.577662 -0.155300 0.000000 
-0.858290 -0.731746 0.000000 
-0.299194 -0.440162 0.000000 
-0.268560 0.790088 0.000000 
0.286830 0.512447 0.000000 
0.844677 -0.868355 0.000000 
-0.578910 0.755482 0.000000 
0.000000 -0.753114 0.000000 
0.578910 0.755482 0.000000 
-0.844677 -0.868355 0.000000 
-0.286830 0.512447 0.000000 
0.268560 0.790088 0.000000 
-0.610485 -0.522182 0.000000 
0.057734 -0.168467 0.000000 
0.714655 0.036700 0.000000 
0.761092 0.747438 0.000000 
0.765897 0.145589 0.000000 
-0.641556 0.404067 0.000000 
-0.677748 -0.810188 0.000000 
0.067979 -0.671984 0.000000 
0.178789 -0.014558 0.000000 
-0.514316 0.451676 0.000000 
0.053800 0.723807 0.000000 
-0.028512 -0.458833 0.000000 
0.647393 -0.251306 0.000000 
0.691820 0.479177 0.000000 
-0.522510 0.577721 0.000000 
-0.393446 -0.786549 0.000000 
0.205471 0.757764 0.000000 
0.760780 -0.964421 0.000000 
0.642413 -0.125440 0.000000 
-0.714996 0.108017 0.000000 
-0.724017 0.884421 0.000000 
0.006894 -0.951946 0.000000 
0.083078 -0.249422 0.000000 
0.897068 -0.182569 0.000000 
-0.965681 0.441460 0.000000 
-0.761262 0.791812 0.000000 
0.142083 -0.068926 0.000000 
0.397202 0.592349 0.000000 
-0.108942 -0.926811 0.000000 
-0.899809 -0.921960 0.000000 
-0.724964 -0.279712 0.000000 
0.660903 0.180808 0.000000 
-0.978194 0.872433 0.000000 
0.595936 -0.627701 0.000000 
0.071546 0.229475 0.000000 
0.220880 0.860400 0.000000 
-0.445811 -0.696814 0.000000 
-0.180633 -0.018654 0.000000 
-0.702895 0.472864 0.000000 
-0.287229 -0.827807 0.000000 
-0.685384 -0.326649 0.000000 
-0.957100 -0.619090 0.000000 
-0.820030 0.004981 0.000000 
0.474522 0.431975 0.000000 
0.699407 -0.900746 0.000000 
0.109248 -0.423990 0.000000 
0.441768 0.271460 0.000000 
-0.039645 0.771331 0.000000 
0.417537 -0.526106 0.000000 
0.033296 -0.025596 0.000000 
-0.338794 0.241677 0.000000 
-0.374519 0.814640 0.000000 
-0.713312 -0.565930 0.000000 
0.609100 -0.677071 0.000000 
-0.381900 -0.563132 0.000000 
-0.756418 -0.020740 0.000000 
0.513962 -0.232226 0.000000 
0.218274 0.492013 0.000000 
-0.423588 0.457910 0.000000 
-0.384386 0.072637 0.000000 
-0.766286 0.587257 0.000000 
0.484677 0.322042 0.000000 
0.139443 0.960167 0.000000 
-0.556234 0.842598 0.000000 
-0.823577 -0.383898 0.000000 
0.550868 -0.394693 0.000000 
-0.386873 0.708406 0.000000 
-0.771260 -0.791204 0.000000 
0.467428 0.902267 0.000000 
0.105264 -0.499107 0.000000 
-0.621631 -0.681006 0.000000 
-0.937896 0.022574 0.000000 
0.385608 -0.056621 0.000000 
0.141715 0.752607 0.000000 
-0.474677 0.752703 0.000000 
CELL_DATA 175 
SCALARS MASS float 
LOOKUP_TABLE default 
0.781831 
0.864274 
0.946717 
0.864274 
0.881307 
0.921110 
0.858535 
0.921110 
0.881307 
0.887046 
0.910001 
0.869829 
0.915556 
0.869829 
0.910001 
0.887046 
0.892784 
0.915740 
0.892784 
0.927218 
0.892784 
0.927218 
0.892784 
0.915740 
0.892784 
0.781831 
0.864274 
0.946717 
0.864274 
0.881307 
0.921110 
0.858535 
0.921110 
0.881307 
0.887046 
0.910001 
0.869829 
0.915556 
0.869829 
0.910001 
0.887046 
0.892784 
0.915740 
0.892784 
0.927218 
0.892784 
0.927218 
0.892784 
0.915740 
0.892784 
0.781831 
0.864274 
0.946717 
0.864274 
0.881307 
0.921110 
0.858535 
0.921110 
0.881307 
0.887046 
0.910001 
0.869829 
0.915556 
0.869829 
0.910001 
0.887046 
0.892784 
0.915740 
0.892784 
0.927218 
0.892784 
0.927218 
0.892784 
0.915740 
0.892784 
0.781831 
0.864274 
0.946717 
0.864274 
0.881307 
0.921110 
0.858535 
0.921110 
0.881307 
0.887046 
0.910001 
0.869829 
0.915556 
0.869829 
0.910001 
0.887046 
0.892784 
0.915740 
0.892784 
0.927218 
0.892784 
0.927218 
0.892784 
0.915740 
0.892784 
0.781831 
0.864274 
0.946717 
0.864274 
0.881307 
0.921110 
0.858535 
0.921110 
0.881307 
0.887046 
0.910001 
0.869829 
0.915556 
0.869829 
0.910001 
0.887046 
0.892784 
0.915740 
0.892784 
0.927218 
0.892784 
0.927218 
0.892784 
0.915740 
0.892784 
0.781831 
0.864274 
0.946717 
0.864274 
0.881307 
0.921110 
0.858535 
0.921110 
0.881307 
0.887046 
0.910001 
0.869829 
0.915556 
0.869829 
0.910001 
0.887046 
0.892784 
0.915740 
0.892784 
0.927218 
0.892784 
0.927218 
0.892784 
0.915740 
0.892784 
0.781831 
0.864274 
0.946717 
0.864274 
0.881307 
0.921110 
0.858535 
0.921110 
0.881307 
0.887046 
0.910001 
0.869829 
0.915556 
0.869829 
0.910001 
0.887046 
0.892784 
0.915740 
0.892784 
0.927218 
0.892784 
0.927218 
0.892784 
0.915740 
0.892784 
SCALARS MASS float 
LOOKUP_TABLE default 
0.781831 
0.864274 
0.946717 
0.864274 
0.881307 
0.921110 
0.858535 
0.921110 
0.881307 
0.887046 
0.910001 
0.869829 
0.915556 
0.869829 
0.910001 
0.887046 
0.892784 
0.915740 
0.892784 
0.927218 
0.892784 
0.927218 
0.892784 
0.915740 
0.892784 
0.781831 
0.864274 
0.946717 
0.864274 
0.881307 
0.921110 
0.858535 
0.921110 
0.881307 
0.887046 
0.910001 
0.869829 
0.915556 
0.869829 
0.910001 
0.887046 
0.892784 
0.915740 
0.892784 
0.927218 
0.892784 
0.927218 
0.892784 
0.915740 
0.892784 
0.781831 
0.864274 
0.946717 
0.864274 
0.881307 
0.921110 
0.858535 
0.921110 
0.881307 
0.887046 
0.910001 
0.869829 
0.915556 
0.869829 
0.910001 
0.887046 
0.892784 
0.915740 
0.892784 
0.927218 
0.892784 
0.927218 
0.892784 
0.915740 
0.892784 
0.781831 
0.864274 
0.946717 
0.864274 
0.881307 
0.921110 
0.858535 
0.921110 
0.881307 
0.887046 
0.910001 
0.869829 
0.915556 
0.869829 
0.910001 
0.887046 
0.892784 
0.915740 
0.892784 
0.927218 
0.892784 
0.927218 
0.892784 
0.915740 
0.892784 
0.781831 
0.864274 
0.946717 
0.864274 
0.881307 
0.921110 
0.858535 
0.921110 
0.881307 
0.887046 
0.910001 
0.869829 
0.915556 
0.869829 
0.910001 
0.887046 
0.892784 
0.915740 
0.892784 
0.927218 
0.892784 
0.927218 
0.892784 
0.915740 
0.892784 
0.781831 
0.864274 
0.946717 
0.864274 
0.881307 
0.921110 
0.858535 
0.921110 
0.881307 
0.887046 
0.910001 
0.869829 
0.915556 
0.869829 
0.910001 
0.887046 
0.892784 
0.915740 
0.892784 
0.927218 
0.892784 
0.927218 
0.892784 
0.915740 
0.892784 
0.781831 
0.864274 
0.946717 
0.864274 
0.881307 
0.921110 
0.858535 
0.921110 
0.881307 
0.887046 
0.910001 
0.869829 
0.915556 
0.869829 
0.910001 
0.887046 
0.892784 
0.915740 
0.892784 
0.927218 
0.892784 
0.927218 
0.892784 
0.915740 
0.892784 
SCALARS DENSITY float 
LOOKUP_TABLE default 
200.000000 
200.000000 
200.000000 
200.000000 
200.000000 
200.000000 
200.000000 
200.000000 
200.000000 
200.000000 
200.000000 
200.000000 
200.000000 
200.000000 
200.000000 
200.000000 
200.000000 
200.000000 
200.000000 
200.000000 
200.000000 
200.000000 
200.000000 
200.000000 
200.000000 
200.000000 
200.000000 
200.000000 
200.000000 
200.000000 
200.000000 
200.000000 
200.000000 
200.000000 
200.000000 
200.000000 
200.000000 
200.000000 
200.000000 
200.000000 
200.000000 
200.000000 
200.000000 
200.000000 
200.000000 
200.000000 
200.000000 
200.000000 
200.000000 
200.000000 
200.000000 
200.000000 
200.000000 
200.000000 
200.000000 
200.000000 
200.000000 
200.000000 
200.000000 
200.000000 
200.000000 
200.000000 
200.000000 
200.000000 
200.000000 
200.000000 
200.000000 
200.000000 
200.000000 
200.000000 
200.000000 
200.000000 
200.000000 
200.000000 
200.000000 
200.000000 
200.000000 
200.000000 
200.000000 
200.000000 
200.000000 
200.000000 
200.000000 
200.000000 
200.000000 
200.000000 
200.000000 
200.000000 
200.000000 
200.000000 
200.000000 
200.000000 
200.000000 
200.000000 
200.000000 
200.000000 
200.000000 
200.000000 
200.000000 
200.000000 
200.000000 
200.000000 
200.000000 
200.000000 
200.000000 
200.000000 
200.000000 
200.000000 
200.000000 
200.000000 
200.000000 
200.000000 
200.000000 
200.000000 
200.000000 
200.000000 
200.000000 
200.000000 
200.000000 
200.000000 
200.000000 
200.000000 
200.000000 
200.000000 
200.000000 
200.000000 
200.000000 
200.000000 
200.000000 
200.000000 
200.000000 
200.000000 
200.000000 
200.000000 
200.000000 
200.000000 
200.000000 
200.000000 
200.000000 
200.000000 
200.000000 
200.000000 
200.000000 
200.000000 
200.000000 
200.000000 
200.000000 
200.000000 
200.000000 
200.000000 
200.000000 
200.000000 
200.000000 
200.000000 
200.000000 
200.000000 
200.000000 
200.000000 
200.000000 
200.000000 
200.000000 
200.000000 
200.000000 
200.000000 
200.000000 
200.000000 
200.000000 
200.000000 
200.000000 
200.000000 
200.000000 
200.000000 
200.000000 
200.000000 
200.000000 
SCALARS ELEM_i float 
LOOKUP_TABLE default 
175 
202 
175 
176 
203 
203 
203 
176 
176 
230 
203 
204 
204 
204 
177 
177 
231 
231 
231 
204 
204 
204 
205 
177 
178 
175 
201 
202 
202 
228 
202 
229 
202 
202 
228 
228 
229 
229 
229 
230 
230 
255 
255 
256 
256 
256 
256 
257 
230 
230 
174 
201 
201 
201 
200 
200 
200 
201 
228 
199 
200 
227 
227 
227 
228 
228 
199 
226 
226 
226 
227 
227 
254 
254 
255 
174 
173 
174 
173 
146 
173 
173 
173 
200 
145 
145 
172 
172 
172 
199 
199 
145 
145 
144 
172 
171 
172 
198 
199 
199 
174 
147 
147 
147 
120 
147 
146 
146 
146 
120 
120 
119 
119 
119 
146 
145 
93 
92 
92 
119 
119 
118 
118 
118 
145 
175 
148 
148 
147 
148 
148 
121 
148 
120 
122 
122 
121 
121 
121 
120 
120 
122 
122 
95 
94 
94 
94 
94 
93 
93 
175 
176 
175 
148 
176 
176 
149 
149 
149 
177 
177 
150 
150 
150 
149 
122 
178 
177 
151 
150 
150 
150 
123 
123 
123 
VECTORS VELOCITY float 
-0.000000 -4.585194 0.000000 
-0.000000 -4.585194 0.000000 
-0.000000 -4.585194 0.000000 
0.000000 -4.585194 0.000000 
0.000000 -4.585194 0.000000 
0.000000 -4.585194 0.000000 
0.000000 -4.585194 0.000000 
0.000000 -4.585194 0.000000 
0.000000 -4.585194 0.000000 
0.000000 -4.585194 0.000000 
0.000000 -4.585194 0.000000 
0.000000 -4.585194 0.000000 
0.000000 -4.585194 0.000000 
0.000000 -4.585194 0.000000 
0.000000 -4.585194 0.000000 
0.000000 -4.585194 0.000000 
0.000000 -4.585194 0.000000 
0.000000 -4.585194 0.000000 
0.000000 -4.585194 0.000000 
0.000000 -4.585194 0.000000 
0.000000 -4.585194 0.000000 
0.000000 -4.585194 0.000000 
0.000000 -4.585194 0.000000 
0.000000 -4.585194 0.000000 
0.000000 -4.585194 0.000000 
-0.000000 -4.585194 0.000000 
0.000000 -4.585194 0.000000 
-0.000000 -4.585194 0.000000 
-0.000000 -4.585194 0.000000 
0.000000 -4.585194 0.000000 
0.000000 -4.585194 0.000000 
0.000000 -4.585194 0.000000 
0.000000 -4.585194 0.000000 
0.000000 -4.585194 0.000000 
-0.000000 -4.585194 0.000000 
0.000000 -4.585194 0.000000 
0.000000 -4.585194 0.000000 
0.000000 -4.585194 0.000000 
0.000000 -4.585194 0.000000 
0.000000 -4.585194 0.000000 
0.000000 -4.585194 0.000000 
-0.000000 -4.585194 0.000000 
-0.000000 -4.585194 0.000000 
-0.000000 -4.585194 0.000000 
0.000000 -4.585194 0.000000 
0.000000 -4.585194 0.000000 
0.000000 -4.585194 0.000000 
0.000000 -4.585194 0.000000 
-0.000000 -4.585194 0.000000 
0.000000 -4.585194 0.000000 
0.000000 -4.585194 0.000000 
-0.000000 -4.585194 0.000000 
-0.000000 -4.585194 0.000000 
-0.000000 -4.585194 0.000000 
-0.000000 -4.585194 0.000000 
-0.000000 -4.585194 0.000000 
0.000000 -4.585194 0.000000 
-0.000000 -4.585194 0.000000 
-0.000000 -4.585194 0.000000 
-0.000000 -4.585194 0.000000 
-0.000000 -4.585194 0.000000 
-0.000000 -4.585194 0.000000 
-0.000000 -4.585194 0.000000 
-0.000000 -4.585194 0.000000 
-0.000000 -4.585194 0.000000 
-0.000000 -4.585194 0.000000 
0.000000 -4.585194 0.000000 
-0.000000 -4.585194 0.000000 
0.000000 -4.585194 0.000000 
-0.000000 -4.585194 0.000000 
0.000000 -4.585194 0.000000 
-0.000000 -4.585194 0.000000 
-0.000000 -4.585194 0.000000 
-0.000000 -4.585194 0.000000 
0.000000 -4.585194 0.000000 
-0.000000 -4.585194 0.000000 
-0.000000 -4.585194 0.000000 
-0.000000 -4.585194 0.000000 
-0.000000 -4.585194 0.000000 
0.000000 -4.585194 0.000000 
-0.000000 -4.585194 0.000000 
-0.000000 -4.585194 0.000000 
-0.000000 -4.585194 0.000000 
-0.000000 -4.585194 0.000000 
-0.000000 -4.585194 0.000000 
0.000000 -4.585194 0.000000 
0.000000 -4.585194 0.000000 
-0.000000 -4.585194 0.000000 
-0.000000 -4.585194 0.000000 
-0.000000 -4.585194 0.000000 
-0.000000 -4.585194 0.000000 
-0.000000 -4.585194 0.000000 
-0.000000 -4.585194 0.000000 
-0.000000 -4.585194 0.000000 
-0.000000 -4.585194 0.000000 
-0.000000 -4.585194 0.000000 
-0.000000 -4.585194 0.000000 
-0.000000 -4.585194 0.000000 
-0.000000 -4.585194 0.000000 
-0.000000 -4.585194 0.000000 
0.000000 -4.585194 0.000000 
-0.000000 -4.585194 0.000000 
-0.000000 -4.585194 0.000000 
0.000000 -4.585194 0.000000 
-0.000000 -4.585194 0.000000 
-0.000000 -4.585194 0.000000 
0.000000 -4.585194 0.000000 
0.000000 -4.585194 0.000000 
0.000000 -4.585194 0.000000 
-0.000000 -4.585194 0.000000 
-0.000000 -4.585194 0.000000 
0.000000 -4.585194 0.000000 
0.000000 -4.585194 0.000000 
-0.000000 -4.585194 0.000000 
-0.000000 -4.585194 0.000000 
-0.000000 -4.585194 0.000000 
-0.000000 -4.585194 0.000000 
-0.000000 -4.585194 0.000000 
0.000000 -4.585194 0.000000 
0.000000 -4.585194 0.000000 
-0.000000 -4.585194 0.000000 
0.000000 -4.585194 0.000000 
0.000000 -4.585194 0.000000 
-0.000000 -4.585194 0.000000 
-0.000000 -4.585194 0.000000 
-0.000000 -4.585194 0.000000 
-0.000000 -4.585194 0.000000 
0.000000 -4.585194 0.000000 
0.000000 -4.585194 0.000000 
0.000000 -4.585194 0.000000 
0.000000 -4.585194 0.000000 
0.000000 -4.585194 0.000000 
0.000000 -4.585194 0.000000 
-0.000000 -4.585194 0.000000 
0.000000 -4.585194 0.000000 
0.000000 -4.585194 0.000000 
0.000000 -4.585194 0.000000 
0.000000 -4.585194 0.000000 
-0.000000 -4.585194 0.000000 
-0.000000 -4.585194 0.000000 
-0.000000 -4.585194 0.000000 
0.000000 -4.585194 0.000000 
0.000000 -4.585194 0.000000 
0.000000 -4.585194 0.000000 
-0.000000 -4.585194 0.000000 
-0.000000 -4.585194 0.000000 
0.000000 -4.585194 0.000000 
0.000000 -4.585194 0.000000 
0.000000 -4.585194 0.000000 
0.000000 -4.585194 0.000000 
-0.000000 -4.585194 0.000000 
-0.000000 -4.585194 0.000000 
-0.000000 -4.585194 0.000000 
-0.000000 -4.585194 0.000000 
0.000000 -4.585194 0.000000 
0.000000 -4.585194 0.000000 
0.000000 -4.585194 0.000000 
-0.000000 -4.585194 0.000000 
0.000000 -4.585194 0.000000 
0.000000 -4.585194 0.000000 
0.000000 -4.585194 0.000000 
0.000000 -4.585194 0.000000 
0.000000 -4.585194 0.000000 
0.000000 -4.585194 0.000000 
-0.000000 -4.585194 0.000000 
-0.000000 -4.585194 0.000000 
-0.000000 -4.585194 0.000000 
-0.000000 -4.585194 0.000000 
-0.000000 -4.585194 0.000000 
-0.000000 -4.585194 0.000000 
0.000000 -4.585194 0.000000 
0.000000 -4.585194 0.000000 
0.000000 -4.585194 0.000000 
0.000000 -4.585194 0.000000 
0.000000 -4.585194 0.000000 
TENSORS STRESS float 
0.000000 0.000000 0.000000 
0.000000 0.000000 0.000000 
0.000000 0.000000 0.000000 

0.000000 -0.000000 0.000000 
0.000000 0.000000 0.000000 
0.000000 0.000000 0.000000 

0.000000 0.000000 0.000000 
0.000000 0.000000 0.000000 
0.000000 0.000000 0.000000 

0.000000 0.000000 0.000000 
0.000000 0.000000 0.000000 
0.000000 0.000000 0.000000 

-0.000000 0.000000 0.000000 
0.000000 -0.000000 0.000000 
0.000000 0.000000 0.000000 

0.000000 0.000000 0.000000 
0.000000 0.000000 0.000000 
0.000000 0.000000 0.000000 

-0.000000 -0.000000 0.000000 
0.000000 -0.000000 0.000000 
0.000000 0.000000 0.000000 

-0.000000 -0.000000 0.000000 
0.000000 -0.000000 0.000000 
0.000000 0.000000 0.000000 

-0.000000 -0.000000 0.000000 
0.000000 -0.000000 0.000000 
0.000000 0.000000 0.000000 

0.000000 0.000000 0.000000 
0.000000 0.000000 0.000000 
0.000000 0.000000 0.000000 

-0.000000 0.000000 0.000000 