# vtk DataFile Version 3.0 
vtk output 
ASCII 
DATASET UNSTRUCTURED_GRID 
POINTS 175 float 
-0.026061 -0.593992 0.000000 
-0.106992 -0.525937 0.000000 
-0.054870 -0.534170 0.000000 
-0.028809 -0.488286 0.000000 
-0.186430 -0.461861 0.000000 
-0.137056 -0.464388 0.000000 
-0.114311 -0.410740 0.000000 
-0.058186 -0.426406 0.000000 
-0.029377 -0.386229 0.000000 
-0.265318 -0.398706 0.000000 
-0.217198 -0.399505 0.000000 
-0.196633 -0.342209 0.000000 
-0.143120 -0.350917 0.000000 
-0.116563 -0.303649 0.000000 
-0.058945 -0.323295 0.000000 
-0.029568 -0.285175 0.000000 
-0.344206 -0.335550 0.000000 
-0.296791 -0.335543 0.000000 
-0.278030 -0.275600 0.000000 
-0.225992 -0.281466 0.000000 
-0.201664 -0.229349 0.000000 
-0.145749 -0.242823 0.000000 
-0.117890 -0.198480 0.000000 
-0.059328 -0.221186 0.000000 
-0.029759 -0.184120 0.000000 
-0.058559 -0.634743 0.000000 
-0.162226 -0.655586 0.000000 
-0.123292 -0.619968 0.000000 
-0.142917 -0.570985 0.000000 
-0.261851 -0.677742 0.000000 
-0.229092 -0.640715 0.000000 
-0.256854 -0.589483 0.000000 
-0.209613 -0.555371 0.000000 
-0.223062 -0.507797 0.000000 
-0.360414 -0.700042 0.000000 
-0.329787 -0.662919 0.000000 
-0.361761 -0.611117 0.000000 
-0.321587 -0.574708 0.000000 
-0.341985 -0.524474 0.000000 
-0.290702 -0.491675 0.000000 
-0.302189 -0.444940 0.000000 
-0.458977 -0.722342 0.000000 
-0.429420 -0.685268 0.000000 
-0.464588 -0.633226 0.000000 
-0.427556 -0.596198 0.000000 
-0.453135 -0.544684 0.000000 
-0.407738 -0.509368 0.000000 
-0.425037 -0.459940 0.000000 
-0.370772 -0.428311 0.000000 
-0.381315 -0.382084 0.000000 
-0.046960 -0.685558 0.000000 
-0.095301 -0.779604 0.000000 
-0.098873 -0.726957 0.000000 
-0.149405 -0.711759 0.000000 
-0.140093 -0.871308 0.000000 
-0.148617 -0.822610 0.000000 
-0.205981 -0.812373 0.000000 
-0.203197 -0.754169 0.000000 
-0.248777 -0.735023 0.000000 
-0.184111 -0.962272 0.000000 
-0.194039 -0.915181 0.000000 
-0.254475 -0.907881 0.000000 
-0.257893 -0.853771 0.000000 
-0.309886 -0.838399 0.000000 
-0.303554 -0.777854 0.000000 
-0.347255 -0.757696 0.000000 
-0.228129 -1.053235 0.000000 
-0.238687 -1.007011 0.000000 
-0.301302 -1.002059 0.000000 
-0.307162 -0.950020 0.000000 
-0.363386 -0.937899 0.000000 
-0.362692 -0.880388 0.000000 
-0.412122 -0.863095 0.000000 
-0.403017 -0.800948 0.000000 
-0.445733 -0.780369 0.000000 
-0.000000 -0.708173 0.000000 
0.043388 -0.804604 0.000000 
-0.000000 -0.774572 0.000000 
-0.043388 -0.804604 0.000000 
0.087158 -0.896800 0.000000 
0.043769 -0.873102 0.000000 
-0.000000 -0.911568 0.000000 
-0.043769 -0.873102 0.000000 
-0.087158 -0.896800 0.000000 
0.130831 -0.987930 0.000000 
0.087824 -0.966331 0.000000 
0.044436 -1.009031 0.000000 
-0.000000 -0.977966 0.000000 
-0.044436 -1.009031 0.000000 
-0.087824 -0.966331 0.000000 
-0.130831 -0.987930 0.000000 
0.174505 -1.079060 0.000000 
0.131782 -1.058494 0.000000 
0.088871 -1.104360 0.000000 
0.044532 -1.076496 0.000000 
-0.000000 -1.112897 0.000000 
-0.044532 -1.076496 0.000000 
-0.088871 -1.104360 0.000000 
-0.131782 -1.058494 0.000000 
-0.174505 -1.079060 0.000000 
0.046960 -0.685558 0.000000 
0.149405 -0.711759 0.000000 
0.098873 -0.726957 0.000000 
0.095301 -0.779604 0.000000 
0.248777 -0.735023 0.000000 
0.203197 -0.754169 0.000000 
0.205981 -0.812373 0.000000 
0.148617 -0.822610 0.000000 
0.140093 -0.871308 0.000000 
0.347255 -0.757696 0.000000 
0.303554 -0.777854 0.000000 
0.309886 -0.838399 0.000000 
0.257893 -0.853771 0.000000 
0.254475 -0.907881 0.000000 
0.194039 -0.915181 0.000000 
0.184111 -0.962272 0.000000 
0.445733 -0.780369 0.000000 
0.403017 -0.800948 0.000000 
0.412122 -0.863095 0.000000 
0.362692 -0.880388 0.000000 
0.363386 -0.937899 0.000000 
0.307162 -0.950020 0.000000 
0.301302 -1.002059 0.000000 
0.238687 -1.007011 0.000000 
0.228129 -1.053235 0.000000 
0.058559 -0.634743 0.000000 
0.142917 -0.570985 0.000000 
0.123292 -0.619968 0.000000 
0.162226 -0.655586 0.000000 
0.223062 -0.507797 0.000000 
0.209613 -0.555371 0.000000 
0.256854 -0.589483 0.000000 
0.229092 -0.640715 0.000000 
0.261851 -0.677742 0.000000 
0.302189 -0.444940 0.000000 
0.290702 -0.491675 0.000000 
0.341985 -0.524474 0.000000 
0.321587 -0.574708 0.000000 
0.361761 -0.611117 0.000000 
0.329787 -0.662919 0.000000 
0.360414 -0.700042 0.000000 
0.381315 -0.382084 0.000000 
0.370772 -0.428311 0.000000 
0.425037 -0.459940 0.000000 
0.407738 -0.509368 0.000000 
0.453135 -0.544684 0.000000 
0.427556 -0.596198 0.000000 
0.464588 -0.633226 0.000000 
0.429420 -0.685268 0.000000 
0.458977 -0.722342 0.000000 
0.026061 -0.593992 0.000000 
0.028809 -0.488286 0.000000 
0.054870 -0.534170 0.000000 
0.106992 -0.525937 0.000000 
0.029377 -0.386229 0.000000 
0.058186 -0.426406 0.000000 
0.114311 -0.410740 0.000000 
0.137056 -0.464388 0.000000 
0.186430 -0.461861 0.000000 
0.029568 -0.285175 0.000000 
0.058945 -0.323295 0.000000 
0.116563 -0.303649 0.000000 
0.143120 -0.350917 0.000000 
0.196633 -0.342209 0.000000 
0.217198 -0.399505 0.000000 
0.265318 -0.398706 0.000000 
0.029759 -0.184120 0.000000 
0.059328 -0.221186 0.000000 
0.117890 -0.198480 0.000000 
0.145749 -0.242823 0.000000 
0.201664 -0.229349 0.000000 
0.225992 -0.281466 0.000000 
0.278030 -0.275600 0.000000 
0.296791 -0.335543 0.000000 
0.344206 -0.335550 0.000000 
CELLS 175 350 
1 0 
1 1 
1 2 
1 3 
1 4 
1 5 
1 6 
1 7 
1 8 
1 9 
1 10 
1 11 
1 12 
1 13 
1 14 
1 15 
1 16 
1 17 
1 18 
1 19 
1 20 
1 21 
1 22 
1 23 
1 24 
1 25 
1 26 
1 27 
1 28 
1 29 
1 30 
1 31 
1 32 
1 33 
1 34 
1 35 
1 36 
1 37 
1 38 
1 39 
1 40 
1 41 
1 42 
1 43 
1 44 
1 45 
1 46 
1 47 
1 48 
1 49 
1 50 
1 51 
1 52 
1 53 
1 54 
1 55 
1 56 
1 57 
1 58 
1 59 
1 60 
1 61 
1 62 
1 63 
1 64 
1 65 
1 66 
1 67 
1 68 
1 69 
1 70 
1 71 
1 72 
1 73 
1 74 
1 75 
1 76 
1 77 
1 78 
1 79 
1 80 
1 81 
1 82 
1 83 
1 84 
1 85 
1 86 
1 87 
1 88 
1 89 
1 90 
1 91 
1 92 
1 93 
1 94 
1 95 
1 96 
1 97 
1 98 
1 99 
1 100 
1 101 
1 102 
1 103 
1 104 
1 105 
1 106 
1 107 
1 108 
1 109 
1 110 
1 111 
1 112 
1 113 
1 114 
1 115 
1 116 
1 117 
1 118 
1 119 
1 120 
1 121 
1 122 
1 123 
1 124 
1 125 
1 126 
1 127 
1 128 
1 129 
1 130 
1 131 
1 132 
1 133 
1 134 
1 135 
1 136 
1 137 
1 138 
1 139 
1 140 
1 141 
1 142 
1 143 
1 144 
1 145 
1 146 
1 147 
1 148 
1 149 
1 150 
1 151 
1 152 
1 153 
1 154 
1 155 
1 156 
1 157 
1 158 
1 159 
1 160 
1 161 
1 162 
1 163 
1 164 
1 165 
1 166 
1 167 
1 168 
1 169 
1 170 
1 171 
1 172 
1 173 
1 174 
CELL_TYPES 175 
1 
1 
1 
1 
1 
1 
1 
1 
1 
1 
1 
1 
1 
1 
1 
1 
1 
1 
1 
1 
1 
1 
1 
1 
1 
1 
1 
1 
1 
1 
1 
1 
1 
1 
1 
1 
1 
1 
1 
1 
1 
1 
1 
1 
1 
1 
1 
1 
1 
1 
1 
1 
1 
1 
1 
1 
1 
1 
1 
1 
1 
1 
1 
1 
1 
1 
1 
1 
1 
1 
1 
1 
1 
1 
1 
1 
1 
1 
1 
1 
1 
1 
1 
1 
1 
1 
1 
1 
1 
1 
1 
1 
1 
1 
1 
1 
1 
1 
1 
1 
1 
1 
1 
1 
1 
1 
1 
1 
1 
1 
1 
1 
1 
1 
1 
1 
1 
1 
1 
1 
1 
1 
1 
1 
1 
1 
1 
1 
1 
1 
1 
1 
1 
1 
1 
1 
1 
1 
1 
1 
1 
1 
1 
1 
1 
1 
1 
1 
1 
1 
1 
1 
1 
1 
1 
1 
1 
1 
1 
1 
1 
1 
1 
1 
1 
1 
1 
1 
1 
1 
1 
1 
1 
1 
1 
POINT_DATA 175 
VECTORS X_GC float 
-0.026061 -0.593992 0.000000 
-0.106992 -0.525937 0.000000 
-0.054870 -0.534170 0.000000 
-0.028809 -0.488286 0.000000 
-0.186430 -0.461861 0.000000 
-0.137056 -0.464388 0.000000 
-0.114311 -0.410740 0.000000 
-0.058186 -0.426406 0.000000 
-0.029377 -0.386229 0.000000 
-0.265318 -0.398706 0.000000 
-0.217198 -0.399505 0.000000 
-0.196633 -0.342209 0.000000 
-0.143120 -0.350917 0.000000 
-0.116563 -0.303649 0.000000 
-0.058945 -0.323295 0.000000 
-0.029568 -0.285175 0.000000 
-0.344206 -0.335550 0.000000 
-0.296791 -0.335543 0.000000 
-0.278030 -0.275600 0.000000 
-0.225992 -0.281466 0.000000 
-0.201664 -0.229349 0.000000 
-0.145749 -0.242823 0.000000 
-0.117890 -0.198480 0.000000 
-0.059328 -0.221186 0.000000 
-0.029759 -0.184120 0.000000 
-0.058559 -0.634743 0.000000 
-0.162226 -0.655586 0.000000 
-0.123292 -0.619968 0.000000 
-0.142917 -0.570985 0.000000 
-0.261851 -0.677742 0.000000 
-0.229092 -0.640715 0.000000 
-0.256854 -0.589483 0.000000 
-0.209613 -0.555371 0.000000 
-0.223062 -0.507797 0.000000 
-0.360414 -0.700042 0.000000 
-0.329787 -0.662919 0.000000 
-0.361761 -0.611117 0.000000 
-0.321587 -0.574708 0.000000 
-0.341985 -0.524474 0.000000 
-0.290702 -0.491675 0.000000 
-0.302189 -0.444940 0.000000 
-0.458977 -0.722342 0.000000 
-0.429420 -0.685268 0.000000 
-0.464588 -0.633226 0.000000 
-0.427556 -0.596198 0.000000 
-0.453135 -0.544684 0.000000 
-0.407738 -0.509368 0.000000 
-0.425037 -0.459940 0.000000 
-0.370772 -0.428311 0.000000 
-0.381315 -0.382084 0.000000 
-0.046960 -0.685558 0.000000 
-0.095301 -0.779604 0.000000 
-0.098873 -0.726957 0.000000 
-0.149405 -0.711759 0.000000 
-0.140093 -0.871308 0.000000 
-0.148617 -0.822610 0.000000 
-0.205981 -0.812373 0.000000 
-0.203197 -0.754169 0.000000 
-0.248777 -0.735023 0.000000 
-0.184111 -0.962272 0.000000 
-0.194039 -0.915181 0.000000 
-0.254475 -0.907881 0.000000 
-0.257893 -0.853771 0.000000 
-0.309886 -0.838399 0.000000 
-0.303554 -0.777854 0.000000 
-0.347255 -0.757696 0.000000 
-0.228129 -1.053235 0.000000 
-0.238687 -1.007011 0.000000 
-0.301302 -1.002059 0.000000 
-0.307162 -0.950020 0.000000 
-0.363386 -0.937899 0.000000 
-0.362692 -0.880388 0.000000 
-0.412122 -0.863095 0.000000 
-0.403017 -0.800948 0.000000 
-0.445733 -0.780369 0.000000 
-0.000000 -0.708173 0.000000 
0.043388 -0.804604 0.000000 
-0.000000 -0.774572 0.000000 
-0.043388 -0.804604 0.000000 
0.087158 -0.896800 0.000000 
0.043769 -0.873102 0.000000 
-0.000000 -0.911568 0.000000 
-0.043769 -0.873102 0.000000 
-0.087158 -0.896800 0.000000 
0.130831 -0.987930 0.000000 
0.087824 -0.966331 0.000000 
0.044436 -1.009031 0.000000 
-0.000000 -0.977966 0.000000 
-0.044436 -1.009031 0.000000 
-0.087824 -0.966331 0.000000 
-0.130831 -0.987930 0.000000 
0.174505 -1.079060 0.000000 
0.131782 -1.058494 0.000000 
0.088871 -1.104360 0.000000 
0.044532 -1.076496 0.000000 
-0.000000 -1.112897 0.000000 
-0.044532 -1.076496 0.000000 
-0.088871 -1.104360 0.000000 
-0.131782 -1.058494 0.000000 
-0.174505 -1.079060 0.000000 
0.046960 -0.685558 0.000000 
0.149405 -0.711759 0.000000 
0.098873 -0.726957 0.000000 
0.095301 -0.779604 0.000000 
0.248777 -0.735023 0.000000 
0.203197 -0.754169 0.000000 
0.205981 -0.812373 0.000000 
0.148617 -0.822610 0.000000 
0.140093 -0.871308 0.000000 
0.347255 -0.757696 0.000000 
0.303554 -0.777854 0.000000 
0.309886 -0.838399 0.000000 
0.257893 -0.853771 0.000000 
0.254475 -0.907881 0.000000 
0.194039 -0.915181 0.000000 
0.184111 -0.962272 0.000000 
0.445733 -0.780369 0.000000 
0.403017 -0.800948 0.000000 
0.412122 -0.863095 0.000000 
0.362692 -0.880388 0.000000 
0.363386 -0.937899 0.000000 
0.307162 -0.950020 0.000000 
0.301302 -1.002059 0.000000 
0.238687 -1.007011 0.000000 
0.228129 -1.053235 0.000000 
0.058559 -0.634743 0.000000 
0.142917 -0.570985 0.000000 
0.123292 -0.619968 0.000000 
0.162226 -0.655586 0.000000 
0.223062 -0.507797 0.000000 
0.209613 -0.555371 0.000000 
0.256854 -0.589483 0.000000 
0.229092 -0.640715 0.000000 
0.261851 -0.677742 0.000000 
0.302189 -0.444940 0.000000 
0.290702 -0.491675 0.000000 
0.341985 -0.524474 0.000000 
0.321587 -0.574708 0.000000 
0.361761 -0.611117 0.000000 
0.329787 -0.662919 0.000000 
0.360414 -0.700042 0.000000 
0.381315 -0.382084 0.000000 
0.370772 -0.428311 0.000000 
0.425037 -0.459940 0.000000 
0.407738 -0.509368 0.000000 
0.453135 -0.544684 0.000000 
0.427556 -0.596198 0.000000 
0.464588 -0.633226 0.000000 
0.429420 -0.685268 0.000000 
0.458977 -0.722342 0.000000 
0.026061 -0.593992 0.000000 
0.028809 -0.488286 0.000000 
0.054870 -0.534170 0.000000 
0.106992 -0.525937 0.000000 
0.029377 -0.386229 0.000000 
0.058186 -0.426406 0.000000 
0.114311 -0.410740 0.000000 
0.137056 -0.464388 0.000000 
0.186430 -0.461861 0.000000 
0.029568 -0.285175 0.000000 
0.058945 -0.323295 0.000000 
0.116563 -0.303649 0.000000 
0.143120 -0.350917 0.000000 
0.196633 -0.342209 0.000000 
0.217198 -0.399505 0.000000 
0.265318 -0.398706 0.000000 
0.029759 -0.184120 0.000000 
0.059328 -0.221186 0.000000 
0.117890 -0.198480 0.000000 
0.145749 -0.242823 0.000000 
0.201664 -0.229349 0.000000 
0.225992 -0.281466 0.000000 
0.278030 -0.275600 0.000000 
0.296791 -0.335543 0.000000 
0.344206 -0.335550 0.000000 
VECTORS X_EC float 
0.338794 0.518896 0.000000 
-0.609100 -0.399852 0.000000 
0.713312 -0.288711 0.000000 
0.374519 -0.908141 0.000000 
0.423588 0.735128 0.000000 
-0.218274 0.769232 0.000000 
-0.513962 0.044993 0.000000 
0.756418 0.256479 0.000000 
0.381900 -0.285913 0.000000 
-0.550868 -0.117475 0.000000 
0.823577 -0.106679 0.000000 
0.556234 -0.880183 0.000000 
-0.139443 -0.762614 0.000000 
-0.484677 0.599261 0.000000 
0.766286 0.864476 0.000000 
0.384386 0.349856 0.000000 
0.474677 -0.970078 0.000000 
-0.141715 -0.970174 0.000000 
-0.385608 0.220598 0.000000 
0.937896 0.299793 0.000000 
0.621631 -0.403787 0.000000 
-0.105264 -0.221888 0.000000 
-0.467428 -0.820514 0.000000 
0.771260 -0.513986 0.000000 
0.386873 0.985625 0.000000 
0.761262 -0.930969 0.000000 
0.108942 -0.649593 0.000000 
-0.397202 0.869568 0.000000 
-0.142083 0.208293 0.000000 
-0.595936 -0.350482 0.000000 
0.978194 -0.850348 0.000000 
-0.660903 0.458027 0.000000 
0.724964 -0.002493 0.000000 
0.899809 -0.644742 0.000000 
0.685384 -0.049430 0.000000 
0.287229 -0.550588 0.000000 
0.702895 0.750083 0.000000 
0.180633 0.258564 0.000000 
0.445811 -0.419595 0.000000 
-0.220880 -0.862381 0.000000 
-0.071546 0.506693 0.000000 
-0.033296 0.251622 0.000000 
-0.417537 -0.248887 0.000000 
0.039645 -0.951450 0.000000 
-0.441768 0.548679 0.000000 
-0.109248 -0.146772 0.000000 
-0.699407 -0.623527 0.000000 
-0.474522 0.709194 0.000000 
0.820030 0.282200 0.000000 
0.957100 -0.341872 0.000000 
0.610485 -0.244963 0.000000 
-0.761092 -0.975344 0.000000 
-0.714655 0.313919 0.000000 
-0.057734 0.108752 0.000000 
-0.178789 0.262661 0.000000 
-0.067979 -0.394766 0.000000 
0.677748 -0.532969 0.000000 
0.641556 0.681286 0.000000 
-0.765897 0.422807 0.000000 
0.393446 -0.509330 0.000000 
0.522510 0.854940 0.000000 
-0.691820 0.756395 0.000000 
-0.647393 0.025913 0.000000 
0.028512 -0.181614 0.000000 
-0.053800 -0.998974 0.000000 
0.514316 0.728895 0.000000 
0.965681 0.718679 0.000000 
-0.897068 0.094650 0.000000 
-0.083078 0.027797 0.000000 
-0.006893 -0.674728 0.000000 
0.724017 -0.838361 0.000000 
0.714996 0.385236 0.000000 
-0.642413 0.151779 0.000000 
-0.760780 -0.687202 0.000000 
-0.205471 -0.965017 0.000000 
0.000000 0.060339 0.000000 
-0.564049 -0.637849 0.000000 
0.000000 0.956715 0.000000 
0.564049 -0.637849 0.000000 
0.866949 0.606807 0.000000 
-0.569003 0.286876 0.000000 
0.000000 0.806164 0.000000 
0.569003 0.286876 0.000000 
-0.866949 0.606807 0.000000 
0.299194 -0.162943 0.000000 
0.858290 -0.454527 0.000000 
-0.577662 0.121919 0.000000 
0.000000 -0.297459 0.000000 
0.577662 0.121919 0.000000 
-0.858290 -0.454527 0.000000 
-0.299194 -0.162943 0.000000 
-0.268560 -0.932693 0.000000 
0.286830 0.789665 0.000000 
0.844677 -0.591136 0.000000 
-0.578910 -0.967299 0.000000 
0.000000 -0.475895 0.000000 
0.578910 -0.967299 0.000000 
-0.844677 -0.591136 0.000000 
-0.286830 0.789665 0.000000 
0.268560 -0.932693 0.000000 
-0.610485 -0.244963 0.000000 
0.057734 0.108752 0.000000 
0.714655 0.313919 0.000000 
0.761092 -0.975344 0.000000 
0.765897 0.422807 0.000000 
-0.641556 0.681286 0.000000 
-0.677748 -0.532969 0.000000 
0.067979 -0.394766 0.000000 
0.178789 0.262661 0.000000 
-0.514316 0.728895 0.000000 
0.053800 -0.998974 0.000000 
-0.028512 -0.181614 0.000000 
0.647393 0.025913 0.000000 
0.691820 0.756395 0.000000 
-0.522510 0.854940 0.000000 
-0.393446 -0.509330 0.000000 
0.205471 -0.965017 0.000000 
0.760780 -0.687202 0.000000 
0.642413 0.151779 0.000000 
-0.714996 0.385236 0.000000 
-0.724017 -0.838361 0.000000 
0.006894 -0.674728 0.000000 
0.083078 0.027797 0.000000 
0.897068 0.094650 0.000000 
-0.965681 0.718679 0.000000 
-0.761262 -0.930969 0.000000 
0.142083 0.208293 0.000000 
0.397202 0.869568 0.000000 
-0.108942 -0.649593 0.000000 
-0.899809 -0.644742 0.000000 
-0.724964 -0.002493 0.000000 
0.660903 0.458027 0.000000 
-0.978194 -0.850348 0.000000 
0.595936 -0.350482 0.000000 
0.071546 0.506693 0.000000 
0.220880 -0.862381 0.000000 
-0.445811 -0.419595 0.000000 
-0.180633 0.258564 0.000000 
-0.702895 0.750083 0.000000 
-0.287229 -0.550588 0.000000 
-0.685384 -0.049430 0.000000 
-0.957100 -0.341872 0.000000 
-0.820030 0.282200 0.000000 
0.474522 0.709194 0.000000 
0.699407 -0.623527 0.000000 
0.109248 -0.146772 0.000000 
0.441768 0.548679 0.000000 
-0.039645 -0.951450 0.000000 
0.417537 -0.248887 0.000000 
0.033296 0.251622 0.000000 
-0.338794 0.518896 0.000000 
-0.374519 -0.908141 0.000000 
-0.713312 -0.288711 0.000000 
0.609100 -0.399852 0.000000 
-0.381900 -0.285913 0.000000 
-0.756418 0.256479 0.000000 
0.513962 0.044993 0.000000 
0.218274 0.769232 0.000000 
-0.423588 0.735128 0.000000 
-0.384386 0.349856 0.000000 
-0.766286 0.864476 0.000000 
0.484677 0.599261 0.000000 
0.139443 -0.762614 0.000000 
-0.556234 -0.880183 0.000000 
-0.823577 -0.106679 0.000000 
0.550868 -0.117475 0.000000 
-0.386873 0.985625 0.000000 
-0.771260 -0.513986 0.000000 
0.467428 -0.820514 0.000000 
0.105264 -0.221888 0.000000 
-0.621631 -0.403787 0.000000 
-0.937896 0.299793 0.000000 
0.385608 0.220598 0.000000 
0.141715 -0.970174 0.000000 
-0.474677 -0.970078 0.000000 
CELL_DATA 175 
SCALARS MASS float 
LOOKUP_TABLE default 
0.781831 
0.864274 
0.946717 
0.864274 
0.881307 
0.921110 
0.858535 
0.921110 
0.881307 
0.887046 
0.910001 
0.869829 
0.915556 
0.869829 
0.910001 
0.887046 
0.892784 
0.915740 
0.892784 
0.927218 
0.892784 
0.927218 
0.892784 
0.915740 
0.892784 
0.781831 
0.864274 
0.946717 
0.864274 
0.881307 
0.921110 
0.858535 
0.921110 
0.881307 
0.887046 
0.910001 
0.869829 
0.915556 
0.869829 
0.910001 
0.887046 
0.892784 
0.915740 
0.892784 
0.927218 
0.892784 
0.927218 
0.892784 
0.915740 
0.892784 
0.781831 
0.864274 
0.946717 
0.864274 
0.881307 
0.921110 
0.858535 
0.921110 
0.881307 
0.887046 
0.910001 
0.869829 
0.915556 
0.869829 
0.910001 
0.887046 
0.892784 
0.915740 
0.892784 
0.927218 
0.892784 
0.927218 
0.892784 
0.915740 
0.892784 
0.781831 
0.864274 
0.946717 
0.864274 
0.881307 
0.921110 
0.858535 
0.921110 
0.881307 
0.887046 
0.910001 
0.869829 
0.915556 
0.869829 
0.910001 
0.887046 
0.892784 
0.915740 
0.892784 
0.927218 
0.892784 
0.927218 
0.892784 
0.915740 
0.892784 
0.781831 
0.864274 
0.946717 
0.864274 
0.881307 
0.921110 
0.858535 
0.921110 
0.881307 
0.887046 
0.910001 
0.869829 
0.915556 
0.869829 
0.910001 
0.887046 
0.892784 
0.915740 
0.892784 
0.927218 
0.892784 
0.927218 
0.892784 
0.915740 
0.892784 
0.781831 
0.864274 
0.946717 
0.864274 
0.881307 
0.921110 
0.858535 
0.921110 
0.881307 
0.887046 
0.910001 
0.869829 
0.915556 
0.869829 
0.910001 
0.887046 
0.892784 
0.915740 
0.892784 
0.927218 
0.892784 
0.927218 
0.892784 
0.915740 
0.892784 
0.781831 
0.864274 
0.946717 
0.864274 
0.881307 
0.921110 
0.858535 
0.921110 
0.881307 
0.887046 
0.910001 
0.869829 
0.915556 
0.869829 
0.910001 
0.887046 
0.892784 
0.915740 
0.892784 
0.927218 
0.892784 
0.927218 
0.892784 
0.915740 
0.892784 
SCALARS MASS float 
LOOKUP_TABLE default 
0.781831 
0.864274 
0.946717 
0.864274 
0.881307 
0.921110 
0.858535 
0.921110 
0.881307 
0.887046 
0.910001 
0.869829 
0.915556 
0.869829 
0.910001 
0.887046 
0.892784 
0.915740 
0.892784 
0.927218 
0.892784 
0.927218 
0.892784 
0.915740 
0.892784 
0.781831 
0.864274 
0.946717 
0.864274 
0.881307 
0.921110 
0.858535 
0.921110 
0.881307 
0.887046 
0.910001 
0.869829 
0.915556 
0.869829 
0.910001 
0.887046 
0.892784 
0.915740 
0.892784 
0.927218 
0.892784 
0.927218 
0.892784 
0.915740 
0.892784 
0.781831 
0.864274 
0.946717 
0.864274 
0.881307 
0.921110 
0.858535 
0.921110 
0.881307 
0.887046 
0.910001 
0.869829 
0.915556 
0.869829 
0.910001 
0.887046 
0.892784 
0.915740 
0.892784 
0.927218 
0.892784 
0.927218 
0.892784 
0.915740 
0.892784 
0.781831 
0.864274 
0.946717 
0.864274 
0.881307 
0.921110 
0.858535 
0.921110 
0.881307 
0.887046 
0.910001 
0.869829 
0.915556 
0.869829 
0.910001 
0.887046 
0.892784 
0.915740 
0.892784 
0.927218 
0.892784 
0.927218 
0.892784 
0.915740 
0.892784 
0.781831 
0.864274 
0.946717 
0.864274 
0.881307 
0.921110 
0.858535 
0.921110 
0.881307 
0.887046 
0.910001 
0.869829 
0.915556 
0.869829 
0.910001 
0.887046 
0.892784 
0.915740 
0.892784 
0.927218 
0.892784 
0.927218 
0.892784 
0.915740 
0.892784 
0.781831 
0.864274 
0.946717 
0.864274 
0.881307 
0.921110 
0.858535 
0.921110 
0.881307 
0.887046 
0.910001 
0.869829 
0.915556 
0.869829 
0.910001 
0.887046 
0.892784 
0.915740 
0.892784 
0.927218 
0.892784 
0.927218 
0.892784 
0.915740 
0.892784 
0.781831 
0.864274 
0.946717 
0.864274 
0.881307 
0.921110 
0.858535 
0.921110 
0.881307 
0.887046 
0.910001 
0.869829 
0.915556 
0.869829 
0.910001 
0.887046 
0.892784 
0.915740 
0.892784 
0.927218 
0.892784 
0.927218 
0.892784 
0.915740 
0.892784 
SCALARS DENSITY float 
LOOKUP_TABLE default 
200.000000 
200.000000 
200.000000 
200.000000 
200.000000 
200.000000 
200.000000 
200.000000 
200.000000 
200.000000 
200.000000 
200.000000 
200.000000 
200.000000 
200.000000 
200.000000 
200.000000 
200.000000 
200.000000 
200.000000 
200.000000 
200.000000 
200.000000 
200.000000 
200.000000 
200.000000 
200.000000 
200.000000 
200.000000 
200.000000 
200.000000 
200.000000 
200.000000 
200.000000 
200.000000 
200.000000 
200.000000 
200.000000 
200.000000 
200.000000 
200.000000 
200.000000 
200.000000 
200.000000 
200.000000 
200.000000 
200.000000 
200.000000 
200.000000 
200.000000 
200.000000 
200.000000 
200.000000 
200.000000 
200.000000 
200.000000 
200.000000 
200.000000 
200.000000 
200.000000 
200.000000 
200.000000 
200.000000 
200.000000 
200.000000 
200.000000 
200.000000 
200.000000 
200.000000 
200.000000 
200.000000 
200.000000 
200.000000 
200.000000 
200.000000 
200.000000 
200.000000 
200.000000 
200.000000 
200.000000 
200.000000 
200.000000 
200.000000 
200.000000 
200.000000 
200.000000 
200.000000 
200.000000 
200.000000 
200.000000 
200.000000 
200.000000 
200.000000 
200.000000 
200.000000 
200.000000 
200.000000 
200.000000 
200.000000 
200.000000 
200.000000 
200.000000 
200.000000 
200.000000 
200.000000 
200.000000 
200.000000 
200.000000 
200.000000 
200.000000 
200.000000 
200.000000 
200.000000 
200.000000 
200.000000 
200.000000 
200.000000 
200.000000 
200.000000 
200.000000 
200.000000 
200.000000 
200.000000 
200.000000 
200.000000 
200.000000 
200.000000 
200.000000 
200.000000 
200.000000 
200.000000 
200.000000 
200.000000 
200.000000 
200.000000 
200.000000 
200.000000 
200.000000 
200.000000 
200.000000 
200.000000 
200.000000 
200.000000 
200.000000 
200.000000 
200.000000 
200.000000 
200.000000 
200.000000 
200.000000 
200.000000 
200.000000 
200.000000 
200.000000 
200.000000 
200.000000 
200.000000 
200.000000 
200.000000 
200.000000 
200.000000 
200.000000 
200.000000 
200.000000 
200.000000 
200.000000 
200.000000 
200.000000 
200.000000 
200.000000 
200.000000 
200.000000 
200.000000 
200.000000 
200.000000 
SCALARS ELEM_i float 
LOOKUP_TABLE default 
178 
205 
178 
178 
206 
206 
206 
179 
179 
233 
206 
206 
206 
207 
180 
180 
233 
233 
234 
207 
207 
207 
207 
180 
181 
177 
204 
205 
205 
231 
204 
232 
205 
205 
231 
231 
232 
232 
232 
232 
233 
258 
258 
258 
259 
259 
259 
260 
233 
233 
177 
203 
204 
204 
203 
203 
203 
204 
231 
202 
203 
230 
230 
230 
230 
231 
202 
229 
229 
229 
229 
230 
257 
257 
257 
177 
176 
177 
176 
149 
176 
176 
176 
203 
148 
148 
175 
175 
175 
202 
202 
147 
148 
147 
174 
174 
174 
201 
202 
201 
177 
150 
150 
149 
123 
150 
149 
149 
149 
123 
122 
122 
122 
122 
149 
148 
95 
95 
95 
122 
121 
121 
121 
121 
148 
177 
151 
151 
150 
151 
151 
124 
150 
123 
125 
124 
124 
124 
124 
123 
123 
125 
125 
98 
97 
97 
97 
96 
96 
96 
178 
178 
178 
151 
179 
179 
152 
152 
152 
180 
180 
153 
152 
152 
152 
125 
181 
180 
153 
153 
153 
153 
126 
125 
125 
VECTORS VELOCITY float 
-0.000000 -3.564954 0.000000 
-0.000000 -3.564954 0.000000 
-0.000000 -3.564954 0.000000 
-0.000000 -3.564954 0.000000 
-0.000000 -3.564954 0.000000 
-0.000000 -3.564954 0.000000 
-0.000000 -3.564954 0.000000 
-0.000000 -3.564954 0.000000 
-0.000000 -3.564954 0.000000 
-0.000000 -3.564954 0.000000 
-0.000000 -3.564954 0.000000 
-0.000000 -3.564954 0.000000 
-0.000000 -3.564954 0.000000 
-0.000000 -3.564954 0.000000 
-0.000000 -3.564954 0.000000 
0.000000 -3.564954 0.000000 
0.000000 -3.564954 0.000000 
0.000000 -3.564954 0.000000 
-0.000000 -3.564954 0.000000 
0.000000 -3.564954 0.000000 
-0.000000 -3.564954 0.000000 
0.000000 -3.564954 0.000000 
0.000000 -3.564954 0.000000 
0.000000 -3.564954 0.000000 
0.000000 -3.564954 0.000000 
0.000000 -3.564954 0.000000 
-0.000000 -3.564954 0.000000 
-0.000000 -3.564954 0.000000 
-0.000000 -3.564954 0.000000 
-0.000000 -3.564954 0.000000 
-0.000000 -3.564954 0.000000 
-0.000000 -3.564954 0.000000 
-0.000000 -3.564954 0.000000 
0.000000 -3.564954 0.000000 
0.000000 -3.564954 0.000000 
0.000000 -3.564954 0.000000 
-0.000000 -3.564954 0.000000 
-0.000000 -3.564954 0.000000 
-0.000000 -3.564954 0.000000 
-0.000000 -3.564954 0.000000 
-0.000000 -3.564954 0.000000 
0.000000 -3.564954 0.000000 
0.000000 -3.564954 0.000000 
-0.000000 -3.564954 0.000000 
0.000000 -3.564954 0.000000 
-0.000000 -3.564954 0.000000 
-0.000000 -3.564954 0.000000 
0.000000 -3.564954 0.000000 
-0.000000 -3.564954 0.000000 
-0.000000 -3.564954 0.000000 
0.000000 -3.564954 0.000000 
0.000000 -3.564954 0.000000 
0.000000 -3.564954 0.000000 
0.000000 -3.564954 0.000000 
-0.000000 -3.564954 0.000000 
0.000000 -3.564954 0.000000 
-0.000000 -3.564954 0.000000 
-0.000000 -3.564954 0.000000 
-0.000000 -3.564954 0.000000 
0.000000 -3.564954 0.000000 
-0.000000 -3.564954 0.000000 
-0.000000 -3.564954 0.000000 
-0.000000 -3.564954 0.000000 
-0.000000 -3.564954 0.000000 
-0.000000 -3.564954 0.000000 
-0.000000 -3.564954 0.000000 
-0.000000 -3.564954 0.000000 
-0.000000 -3.564954 0.000000 
-0.000000 -3.564954 0.000000 
-0.000000 -3.564954 0.000000 
-0.000000 -3.564954 0.000000 
0.000000 -3.564954 0.000000 
0.000000 -3.564954 0.000000 
0.000000 -3.564954 0.000000 
0.000000 -3.564954 0.000000 
0.000000 -3.564954 0.000000 
0.000000 -3.564954 0.000000 
0.000000 -3.564954 0.000000 
0.000000 -3.564954 0.000000 
0.000000 -3.564954 0.000000 
-0.000000 -3.564954 0.000000 
-0.000000 -3.564954 0.000000 
-0.000000 -3.564954 0.000000 
-0.000000 -3.564954 0.000000 
-0.000000 -3.564954 0.000000 
-0.000000 -3.564954 0.000000 
-0.000000 -3.564954 0.000000 
-0.000000 -3.564954 0.000000 
-0.000000 -3.564954 0.000000 
-0.000000 -3.564954 0.000000 
-0.000000 -3.564954 0.000000 
-0.000000 -3.564954 0.000000 
-0.000000 -3.564954 0.000000 
0.000000 -3.564954 0.000000 
-0.000000 -3.564954 0.000000 
0.000000 -3.564954 0.000000 
-0.000000 -3.564954 0.000000 
0.000000 -3.564954 0.000000 
-0.000000 -3.564954 0.000000 
0.000000 -3.564954 0.000000 
0.000000 -3.564954 0.000000 
-0.000000 -3.564954 0.000000 
0.000000 -3.564954 0.000000 
-0.000000 -3.564954 0.000000 
-0.000000 -3.564954 0.000000 
-0.000000 -3.564954 0.000000 
-0.000000 -3.564954 0.000000 
-0.000000 -3.564954 0.000000 
0.000000 -3.564954 0.000000 
0.000000 -3.564954 0.000000 
-0.000000 -3.564954 0.000000 
0.000000 -3.564954 0.000000 
0.000000 -3.564954 0.000000 
0.000000 -3.564954 0.000000 
0.000000 -3.564954 0.000000 
0.000000 -3.564954 0.000000 
0.000000 -3.564954 0.000000 
0.000000 -3.564954 0.000000 
-0.000000 -3.564954 0.000000 
0.000000 -3.564954 0.000000 
-0.000000 -3.564954 0.000000 
0.000000 -3.564954 0.000000 
-0.000000 -3.564954 0.000000 
-0.000000 -3.564954 0.000000 
-0.000000 -3.564954 0.000000 
0.000000 -3.564954 0.000000 
0.000000 -3.564954 0.000000 
0.000000 -3.564954 0.000000 
0.000000 -3.564954 0.000000 
-0.000000 -3.564954 0.000000 
0.000000 -3.564954 0.000000 
0.000000 -3.564954 0.000000 
-0.000000 -3.564954 0.000000 
0.000000 -3.564954 0.000000 
0.000000 -3.564954 0.000000 
0.000000 -3.564954 0.000000 
-0.000000 -3.564954 0.000000 
0.000000 -3.564954 0.000000 
0.000000 -3.564954 0.000000 
0.000000 -3.564954 0.000000 
0.000000 -3.564954 0.000000 
0.000000 -3.564954 0.000000 
0.000000 -3.564954 0.000000 
-0.000000 -3.564954 0.000000 
0.000000 -3.564954 0.000000 
0.000000 -3.564954 0.000000 
0.000000 -3.564954 0.000000 
-0.000000 -3.564954 0.000000 
-0.000000 -3.564954 0.000000 
-0.000000 -3.564954 0.000000 
0.000000 -3.564954 0.000000 
0.000000 -3.564954 0.000000 
0.000000 -3.564954 0.000000 
0.000000 -3.564954 0.000000 
-0.000000 -3.564954 0.000000 
0.000000 -3.564954 0.000000 
0.000000 -3.564954 0.000000 
-0.000000 -3.564954 0.000000 
0.000000 -3.564954 0.000000 
0.000000 -3.564954 0.000000 
0.000000 -3.564954 0.000000 
0.000000 -3.564954 0.000000 
0.000000 -3.564954 0.000000 
0.000000 -3.564954 0.000000 
0.000000 -3.564954 0.000000 
0.000000 -3.564954 0.000000 
-0.000000 -3.564954 0.000000 
0.000000 -3.564954 0.000000 
-0.000000 -3.564954 0.000000 
0.000000 -3.564954 0.000000 
-0.000000 -3.564954 0.000000 
0.000000 -3.564954 0.000000 
0.000000 -3.564954 0.000000 
0.000000 -3.564954 0.000000 
0.000000 -3.564954 0.000000 
TENSORS STRESS float 
0.000000 -0.000000 0.000000 
0.000000 0.000000 0.000000 
0.000000 0.000000 0.000000 

0.000000 0.000000 0.000000 
0.000000 0.000000 0.000000 
0.000000 0.000000 0.000000 

0.000000 0.000000 0.000000 
0.000000 -0.000000 0.000000 
0.000000 0.000000 0.000000 

0.000000 0.000000 0.000000 
0.000000 0.000000 0.000000 
0.000000 0.000000 0.000000 

0.000000 0.000000 0.000000 
0.000000 0.000000 0.000000 
0.000000 0.000000 0.000000 

0.000000 0.000000 0.000000 
0.000000 0.000000 0.000000 
0.000000 0.000000 0.000000 

0.000000 -0.000000 0.000000 
0.000000 0.000000 0.000000 
0.000000 0.000000 0.000000 

-0.000000 0.000000 0.000000 
0.000000 -0.000000 0.000000 
0.000000 0.000000 0.000000 

-0.000000 -0.000000 0.000000 
0.000000 -0.000000 0.000000 
0.000000 0.000000 0.000000 

-0.000000 -0.000000 0.000000 
0.000000 -0.000000 0.000000 
0.000000 0.000000 0.000000 

-0.000000 -0.000000 0.000000 