# vtk DataFile Version 3.0 
vtk output 
ASCII 
DATASET UNSTRUCTURED_GRID 
POINTS 175 float 
-0.026061 -0.050582 0.000000 
-0.106992 0.017474 0.000000 
-0.054870 0.009241 0.000000 
-0.028809 0.055125 0.000000 
-0.186430 0.081549 0.000000 
-0.137056 0.079023 0.000000 
-0.114311 0.132670 0.000000 
-0.058186 0.117005 0.000000 
-0.029377 0.157182 0.000000 
-0.265318 0.144705 0.000000 
-0.217198 0.143905 0.000000 
-0.196633 0.201202 0.000000 
-0.143120 0.192493 0.000000 
-0.116563 0.239761 0.000000 
-0.058945 0.220116 0.000000 
-0.029568 0.258236 0.000000 
-0.344206 0.207861 0.000000 
-0.296791 0.207868 0.000000 
-0.278030 0.267811 0.000000 
-0.225992 0.261944 0.000000 
-0.201664 0.314061 0.000000 
-0.145749 0.300587 0.000000 
-0.117890 0.344930 0.000000 
-0.059328 0.322224 0.000000 
-0.029759 0.359290 0.000000 
-0.058559 -0.091333 0.000000 
-0.162226 -0.112175 0.000000 
-0.123292 -0.076558 0.000000 
-0.142917 -0.027574 0.000000 
-0.261851 -0.134332 0.000000 
-0.229092 -0.097305 0.000000 
-0.256854 -0.046073 0.000000 
-0.209613 -0.011960 0.000000 
-0.223062 0.035614 0.000000 
-0.360414 -0.156632 0.000000 
-0.329787 -0.119509 0.000000 
-0.361761 -0.067707 0.000000 
-0.321587 -0.031298 0.000000 
-0.341985 0.018936 0.000000 
-0.290702 0.051735 0.000000 
-0.302189 0.098470 0.000000 
-0.458977 -0.178932 0.000000 
-0.429420 -0.141857 0.000000 
-0.464588 -0.089816 0.000000 
-0.427556 -0.052788 0.000000 
-0.453135 -0.001273 0.000000 
-0.407738 0.034042 0.000000 
-0.425037 0.083470 0.000000 
-0.370772 0.115099 0.000000 
-0.381315 0.161327 0.000000 
-0.046960 -0.142148 0.000000 
-0.095301 -0.236194 0.000000 
-0.098873 -0.183547 0.000000 
-0.149405 -0.168349 0.000000 
-0.140093 -0.327898 0.000000 
-0.148617 -0.279200 0.000000 
-0.205981 -0.268962 0.000000 
-0.203197 -0.210759 0.000000 
-0.248777 -0.191612 0.000000 
-0.184111 -0.418861 0.000000 
-0.194039 -0.371770 0.000000 
-0.254475 -0.364471 0.000000 
-0.257893 -0.310361 0.000000 
-0.309886 -0.294989 0.000000 
-0.303554 -0.234443 0.000000 
-0.347255 -0.214285 0.000000 
-0.228129 -0.509825 0.000000 
-0.238687 -0.463601 0.000000 
-0.301302 -0.458649 0.000000 
-0.307162 -0.406610 0.000000 
-0.363386 -0.394489 0.000000 
-0.362692 -0.336977 0.000000 
-0.412122 -0.319684 0.000000 
-0.403017 -0.257538 0.000000 
-0.445733 -0.236959 0.000000 
-0.000000 -0.164763 0.000000 
0.043388 -0.261193 0.000000 
-0.000000 -0.231161 0.000000 
-0.043388 -0.261193 0.000000 
0.087158 -0.353390 0.000000 
0.043769 -0.329691 0.000000 
-0.000000 -0.368157 0.000000 
-0.043769 -0.329691 0.000000 
-0.087158 -0.353390 0.000000 
0.130831 -0.444520 0.000000 
0.087824 -0.422921 0.000000 
0.044436 -0.465621 0.000000 
-0.000000 -0.434556 0.000000 
-0.044436 -0.465621 0.000000 
-0.087824 -0.422921 0.000000 
-0.130831 -0.444520 0.000000 
0.174505 -0.535649 0.000000 
0.131782 -0.515083 0.000000 
0.088871 -0.560950 0.000000 
0.044532 -0.533086 0.000000 
-0.000000 -0.569486 0.000000 
-0.044532 -0.533086 0.000000 
-0.088871 -0.560950 0.000000 
-0.131782 -0.515083 0.000000 
-0.174505 -0.535649 0.000000 
0.046960 -0.142148 0.000000 
0.149405 -0.168349 0.000000 
0.098873 -0.183547 0.000000 
0.095301 -0.236194 0.000000 
0.248777 -0.191612 0.000000 
0.203197 -0.210759 0.000000 
0.205981 -0.268962 0.000000 
0.148617 -0.279200 0.000000 
0.140093 -0.327898 0.000000 
0.347255 -0.214285 0.000000 
0.303554 -0.234443 0.000000 
0.309886 -0.294989 0.000000 
0.257893 -0.310361 0.000000 
0.254475 -0.364471 0.000000 
0.194039 -0.371770 0.000000 
0.184111 -0.418861 0.000000 
0.445733 -0.236959 0.000000 
0.403017 -0.257538 0.000000 
0.412122 -0.319684 0.000000 
0.362692 -0.336977 0.000000 
0.363386 -0.394489 0.000000 
0.307162 -0.406610 0.000000 
0.301302 -0.458649 0.000000 
0.238687 -0.463601 0.000000 
0.228129 -0.509825 0.000000 
0.058559 -0.091333 0.000000 
0.142917 -0.027574 0.000000 
0.123292 -0.076558 0.000000 
0.162226 -0.112175 0.000000 
0.223062 0.035614 0.000000 
0.209613 -0.011960 0.000000 
0.256854 -0.046073 0.000000 
0.229092 -0.097305 0.000000 
0.261851 -0.134332 0.000000 
0.302189 0.098470 0.000000 
0.290702 0.051735 0.000000 
0.341985 0.018936 0.000000 
0.321587 -0.031298 0.000000 
0.361761 -0.067707 0.000000 
0.329787 -0.119509 0.000000 
0.360414 -0.156632 0.000000 
0.381315 0.161327 0.000000 
0.370772 0.115099 0.000000 
0.425037 0.083470 0.000000 
0.407738 0.034042 0.000000 
0.453135 -0.001273 0.000000 
0.427556 -0.052788 0.000000 
0.464588 -0.089816 0.000000 
0.429420 -0.141857 0.000000 
0.458977 -0.178932 0.000000 
0.026061 -0.050582 0.000000 
0.028809 0.055125 0.000000 
0.054870 0.009241 0.000000 
0.106992 0.017474 0.000000 
0.029377 0.157182 0.000000 
0.058186 0.117005 0.000000 
0.114311 0.132670 0.000000 
0.137056 0.079023 0.000000 
0.186430 0.081549 0.000000 
0.029568 0.258236 0.000000 
0.058945 0.220116 0.000000 
0.116563 0.239761 0.000000 
0.143120 0.192493 0.000000 
0.196633 0.201202 0.000000 
0.217198 0.143905 0.000000 
0.265318 0.144705 0.000000 
0.029759 0.359290 0.000000 
0.059328 0.322224 0.000000 
0.117890 0.344930 0.000000 
0.145749 0.300587 0.000000 
0.201664 0.314061 0.000000 
0.225992 0.261944 0.000000 
0.278030 0.267811 0.000000 
0.296791 0.207868 0.000000 
0.344206 0.207861 0.000000 
CELLS 175 350 
1 0 
1 1 
1 2 
1 3 
1 4 
1 5 
1 6 
1 7 
1 8 
1 9 
1 10 
1 11 
1 12 
1 13 
1 14 
1 15 
1 16 
1 17 
1 18 
1 19 
1 20 
1 21 
1 22 
1 23 
1 24 
1 25 
1 26 
1 27 
1 28 
1 29 
1 30 
1 31 
1 32 
1 33 
1 34 
1 35 
1 36 
1 37 
1 38 
1 39 
1 40 
1 41 
1 42 
1 43 
1 44 
1 45 
1 46 
1 47 
1 48 
1 49 
1 50 
1 51 
1 52 
1 53 
1 54 
1 55 
1 56 
1 57 
1 58 
1 59 
1 60 
1 61 
1 62 
1 63 
1 64 
1 65 
1 66 
1 67 
1 68 
1 69 
1 70 
1 71 
1 72 
1 73 
1 74 
1 75 
1 76 
1 77 
1 78 
1 79 
1 80 
1 81 
1 82 
1 83 
1 84 
1 85 
1 86 
1 87 
1 88 
1 89 
1 90 
1 91 
1 92 
1 93 
1 94 
1 95 
1 96 
1 97 
1 98 
1 99 
1 100 
1 101 
1 102 
1 103 
1 104 
1 105 
1 106 
1 107 
1 108 
1 109 
1 110 
1 111 
1 112 
1 113 
1 114 
1 115 
1 116 
1 117 
1 118 
1 119 
1 120 
1 121 
1 122 
1 123 
1 124 
1 125 
1 126 
1 127 
1 128 
1 129 
1 130 
1 131 
1 132 
1 133 
1 134 
1 135 
1 136 
1 137 
1 138 
1 139 
1 140 
1 141 
1 142 
1 143 
1 144 
1 145 
1 146 
1 147 
1 148 
1 149 
1 150 
1 151 
1 152 
1 153 
1 154 
1 155 
1 156 
1 157 
1 158 
1 159 
1 160 
1 161 
1 162 
1 163 
1 164 
1 165 
1 166 
1 167 
1 168 
1 169 
1 170 
1 171 
1 172 
1 173 
1 174 
CELL_TYPES 175 
1 
1 
1 
1 
1 
1 
1 
1 
1 
1 
1 
1 
1 
1 
1 
1 
1 
1 
1 
1 
1 
1 
1 
1 
1 
1 
1 
1 
1 
1 
1 
1 
1 
1 
1 
1 
1 
1 
1 
1 
1 
1 
1 
1 
1 
1 
1 
1 
1 
1 
1 
1 
1 
1 
1 
1 
1 
1 
1 
1 
1 
1 
1 
1 
1 
1 
1 
1 
1 
1 
1 
1 
1 
1 
1 
1 
1 
1 
1 
1 
1 
1 
1 
1 
1 
1 
1 
1 
1 
1 
1 
1 
1 
1 
1 
1 
1 
1 
1 
1 
1 
1 
1 
1 
1 
1 
1 
1 
1 
1 
1 
1 
1 
1 
1 
1 
1 
1 
1 
1 
1 
1 
1 
1 
1 
1 
1 
1 
1 
1 
1 
1 
1 
1 
1 
1 
1 
1 
1 
1 
1 
1 
1 
1 
1 
1 
1 
1 
1 
1 
1 
1 
1 
1 
1 
1 
1 
1 
1 
1 
1 
1 
1 
1 
1 
1 
1 
1 
1 
1 
1 
1 
1 
1 
1 
POINT_DATA 175 
VECTORS X_GC float 
-0.026061 -0.050582 0.000000 
-0.106992 0.017474 0.000000 
-0.054870 0.009241 0.000000 
-0.028809 0.055125 0.000000 
-0.186430 0.081549 0.000000 
-0.137056 0.079023 0.000000 
-0.114311 0.132670 0.000000 
-0.058186 0.117005 0.000000 
-0.029377 0.157182 0.000000 
-0.265318 0.144705 0.000000 
-0.217198 0.143905 0.000000 
-0.196633 0.201202 0.000000 
-0.143120 0.192493 0.000000 
-0.116563 0.239761 0.000000 
-0.058945 0.220116 0.000000 
-0.029568 0.258236 0.000000 
-0.344206 0.207861 0.000000 
-0.296791 0.207868 0.000000 
-0.278030 0.267811 0.000000 
-0.225992 0.261944 0.000000 
-0.201664 0.314061 0.000000 
-0.145749 0.300587 0.000000 
-0.117890 0.344930 0.000000 
-0.059328 0.322224 0.000000 
-0.029759 0.359290 0.000000 
-0.058559 -0.091333 0.000000 
-0.162226 -0.112175 0.000000 
-0.123292 -0.076558 0.000000 
-0.142917 -0.027574 0.000000 
-0.261851 -0.134332 0.000000 
-0.229092 -0.097305 0.000000 
-0.256854 -0.046073 0.000000 
-0.209613 -0.011960 0.000000 
-0.223062 0.035614 0.000000 
-0.360414 -0.156632 0.000000 
-0.329787 -0.119509 0.000000 
-0.361761 -0.067707 0.000000 
-0.321587 -0.031298 0.000000 
-0.341985 0.018936 0.000000 
-0.290702 0.051735 0.000000 
-0.302189 0.098470 0.000000 
-0.458977 -0.178932 0.000000 
-0.429420 -0.141857 0.000000 
-0.464588 -0.089816 0.000000 
-0.427556 -0.052788 0.000000 
-0.453135 -0.001273 0.000000 
-0.407738 0.034042 0.000000 
-0.425037 0.083470 0.000000 
-0.370772 0.115099 0.000000 
-0.381315 0.161327 0.000000 
-0.046960 -0.142148 0.000000 
-0.095301 -0.236194 0.000000 
-0.098873 -0.183547 0.000000 
-0.149405 -0.168349 0.000000 
-0.140093 -0.327898 0.000000 
-0.148617 -0.279200 0.000000 
-0.205981 -0.268962 0.000000 
-0.203197 -0.210759 0.000000 
-0.248777 -0.191612 0.000000 
-0.184111 -0.418861 0.000000 
-0.194039 -0.371770 0.000000 
-0.254475 -0.364471 0.000000 
-0.257893 -0.310361 0.000000 
-0.309886 -0.294989 0.000000 
-0.303554 -0.234443 0.000000 
-0.347255 -0.214285 0.000000 
-0.228129 -0.509825 0.000000 
-0.238687 -0.463601 0.000000 
-0.301302 -0.458649 0.000000 
-0.307162 -0.406610 0.000000 
-0.363386 -0.394489 0.000000 
-0.362692 -0.336977 0.000000 
-0.412122 -0.319684 0.000000 
-0.403017 -0.257538 0.000000 
-0.445733 -0.236959 0.000000 
-0.000000 -0.164763 0.000000 
0.043388 -0.261193 0.000000 
-0.000000 -0.231161 0.000000 
-0.043388 -0.261193 0.000000 
0.087158 -0.353390 0.000000 
0.043769 -0.329691 0.000000 
-0.000000 -0.368157 0.000000 
-0.043769 -0.329691 0.000000 
-0.087158 -0.353390 0.000000 
0.130831 -0.444520 0.000000 
0.087824 -0.422921 0.000000 
0.044436 -0.465621 0.000000 
-0.000000 -0.434556 0.000000 
-0.044436 -0.465621 0.000000 
-0.087824 -0.422921 0.000000 
-0.130831 -0.444520 0.000000 
0.174505 -0.535649 0.000000 
0.131782 -0.515083 0.000000 
0.088871 -0.560950 0.000000 
0.044532 -0.533086 0.000000 
-0.000000 -0.569486 0.000000 
-0.044532 -0.533086 0.000000 
-0.088871 -0.560950 0.000000 
-0.131782 -0.515083 0.000000 
-0.174505 -0.535649 0.000000 
0.046960 -0.142148 0.000000 
0.149405 -0.168349 0.000000 
0.098873 -0.183547 0.000000 
0.095301 -0.236194 0.000000 
0.248777 -0.191612 0.000000 
0.203197 -0.210759 0.000000 
0.205981 -0.268962 0.000000 
0.148617 -0.279200 0.000000 
0.140093 -0.327898 0.000000 
0.347255 -0.214285 0.000000 
0.303554 -0.234443 0.000000 
0.309886 -0.294989 0.000000 
0.257893 -0.310361 0.000000 
0.254475 -0.364471 0.000000 
0.194039 -0.371770 0.000000 
0.184111 -0.418861 0.000000 
0.445733 -0.236959 0.000000 
0.403017 -0.257538 0.000000 
0.412122 -0.319684 0.000000 
0.362692 -0.336977 0.000000 
0.363386 -0.394489 0.000000 
0.307162 -0.406610 0.000000 
0.301302 -0.458649 0.000000 
0.238687 -0.463601 0.000000 
0.228129 -0.509825 0.000000 
0.058559 -0.091333 0.000000 
0.142917 -0.027574 0.000000 
0.123292 -0.076558 0.000000 
0.162226 -0.112175 0.000000 
0.223062 0.035614 0.000000 
0.209613 -0.011960 0.000000 
0.256854 -0.046073 0.000000 
0.229092 -0.097305 0.000000 
0.261851 -0.134332 0.000000 
0.302189 0.098470 0.000000 
0.290702 0.051735 0.000000 
0.341985 0.018936 0.000000 
0.321587 -0.031298 0.000000 
0.361761 -0.067707 0.000000 
0.329787 -0.119509 0.000000 
0.360414 -0.156632 0.000000 
0.381315 0.161327 0.000000 
0.370772 0.115099 0.000000 
0.425037 0.083470 0.000000 
0.407738 0.034042 0.000000 
0.453135 -0.001273 0.000000 
0.427556 -0.052788 0.000000 
0.464588 -0.089816 0.000000 
0.429420 -0.141857 0.000000 
0.458977 -0.178932 0.000000 
0.026061 -0.050582 0.000000 
0.028809 0.055125 0.000000 
0.054870 0.009241 0.000000 
0.106992 0.017474 0.000000 
0.029377 0.157182 0.000000 
0.058186 0.117005 0.000000 
0.114311 0.132670 0.000000 
0.137056 0.079023 0.000000 
0.186430 0.081549 0.000000 
0.029568 0.258236 0.000000 
0.058945 0.220116 0.000000 
0.116563 0.239761 0.000000 
0.143120 0.192493 0.000000 
0.196633 0.201202 0.000000 
0.217198 0.143905 0.000000 
0.265318 0.144705 0.000000 
0.029759 0.359290 0.000000 
0.059328 0.322224 0.000000 
0.117890 0.344930 0.000000 
0.145749 0.300587 0.000000 
0.201664 0.314061 0.000000 
0.225992 0.261944 0.000000 
0.278030 0.267811 0.000000 
0.296791 0.207868 0.000000 
0.344206 0.207861 0.000000 
VECTORS X_EC float 
0.338794 -0.817145 0.000000 
-0.609100 0.264107 0.000000 
0.713312 0.375248 0.000000 
0.374519 -0.244182 0.000000 
0.423588 -0.600912 0.000000 
-0.218274 -0.566809 0.000000 
-0.513962 0.708952 0.000000 
0.756418 0.920438 0.000000 
0.381900 0.378046 0.000000 
-0.550868 0.546484 0.000000 
0.823577 0.557280 0.000000 
0.556234 -0.216224 0.000000 
-0.139443 -0.098655 0.000000 
-0.484677 -0.736780 0.000000 
0.766286 -0.471565 0.000000 
0.384386 -0.986185 0.000000 
0.474677 -0.306119 0.000000 
-0.141715 -0.306215 0.000000 
-0.385608 0.884557 0.000000 
0.937896 0.963752 0.000000 
0.621631 0.260172 0.000000 
-0.105264 0.442071 0.000000 
-0.467428 -0.156555 0.000000 
0.771260 0.149974 0.000000 
0.386873 -0.350416 0.000000 
0.761262 -0.267010 0.000000 
0.108942 0.014366 0.000000 
-0.397202 -0.466473 0.000000 
-0.142083 0.872252 0.000000 
-0.595936 0.313477 0.000000 
0.978194 -0.186389 0.000000 
-0.660903 -0.878014 0.000000 
0.724964 0.661466 0.000000 
0.899809 0.019218 0.000000 
0.685384 0.614529 0.000000 
0.287229 0.113371 0.000000 
0.702895 -0.585958 0.000000 
0.180633 0.922524 0.000000 
0.445811 0.244364 0.000000 
-0.220880 -0.198422 0.000000 
-0.071546 -0.829347 0.000000 
-0.033296 0.915581 0.000000 
-0.417537 0.415072 0.000000 
0.039645 -0.287491 0.000000 
-0.441768 -0.787362 0.000000 
-0.109248 0.517187 0.000000 
-0.699407 0.040432 0.000000 
-0.474522 -0.626847 0.000000 
0.820030 0.946159 0.000000 
0.957100 0.322088 0.000000 
0.610485 0.418996 0.000000 
-0.761092 -0.311384 0.000000 
-0.714655 0.977878 0.000000 
-0.057734 0.772711 0.000000 
-0.178789 0.926620 0.000000 
-0.067979 0.269194 0.000000 
0.677748 0.130990 0.000000 
0.641556 -0.654755 0.000000 
-0.765897 -0.913234 0.000000 
0.393446 0.154629 0.000000 
0.522510 -0.481101 0.000000 
-0.691820 -0.579645 0.000000 
-0.647393 0.689872 0.000000 
0.028512 0.482345 0.000000 
-0.053800 -0.335015 0.000000 
0.514316 -0.607146 0.000000 
0.965681 -0.617362 0.000000 
-0.897068 0.758609 0.000000 
-0.083078 0.691756 0.000000 
-0.006893 -0.010768 0.000000 
0.724017 -0.174401 0.000000 
0.714996 -0.950805 0.000000 
-0.642413 0.815738 0.000000 
-0.760780 -0.023243 0.000000 
-0.205471 -0.301058 0.000000 
0.000000 0.724298 0.000000 
-0.564049 0.026111 0.000000 
0.000000 -0.379325 0.000000 
0.564049 0.026111 0.000000 
0.866949 -0.729234 0.000000 
-0.569003 0.950835 0.000000 
0.000000 -0.529877 0.000000 
0.569003 0.950835 0.000000 
-0.866949 -0.729234 0.000000 
0.299194 0.501016 0.000000 
0.858290 0.209432 0.000000 
-0.577662 0.785878 0.000000 
0.000000 0.366500 0.000000 
0.577662 0.785878 0.000000 
-0.858290 0.209432 0.000000 
-0.299194 0.501016 0.000000 
-0.268560 -0.268734 0.000000 
0.286830 -0.546376 0.000000 
0.844677 0.072823 0.000000 
-0.578910 -0.303340 0.000000 
0.000000 0.188064 0.000000 
0.578910 -0.303340 0.000000 
-0.844677 0.072823 0.000000 
-0.286830 -0.546376 0.000000 
0.268560 -0.268734 0.000000 
-0.610485 0.418996 0.000000 
0.057734 0.772711 0.000000 
0.714655 0.977878 0.000000 
0.761092 -0.311384 0.000000 
0.765897 -0.913234 0.000000 
-0.641556 -0.654755 0.000000 
-0.677748 0.130990 0.000000 
0.067979 0.269194 0.000000 
0.178789 0.926620 0.000000 
-0.514316 -0.607146 0.000000 
0.053800 -0.335015 0.000000 
-0.028512 0.482345 0.000000 
0.647393 0.689872 0.000000 
0.691820 -0.579645 0.000000 
-0.522510 -0.481101 0.000000 
-0.393446 0.154629 0.000000 
0.205471 -0.301058 0.000000 
0.760780 -0.023243 0.000000 
0.642413 0.815738 0.000000 
-0.714996 -0.950805 0.000000 
-0.724017 -0.174401 0.000000 
0.006894 -0.010768 0.000000 
0.083078 0.691756 0.000000 
0.897068 0.758609 0.000000 
-0.965681 -0.617362 0.000000 
-0.761262 -0.267010 0.000000 
0.142083 0.872252 0.000000 
0.397202 -0.466473 0.000000 
-0.108942 0.014366 0.000000 
-0.899809 0.019218 0.000000 
-0.724964 0.661466 0.000000 
0.660903 -0.878014 0.000000 
-0.978194 -0.186389 0.000000 
0.595936 0.313477 0.000000 
0.071546 -0.829347 0.000000 
0.220880 -0.198422 0.000000 
-0.445811 0.244364 0.000000 
-0.180633 0.922524 0.000000 
-0.702895 -0.585958 0.000000 
-0.287229 0.113371 0.000000 
-0.685384 0.614529 0.000000 
-0.957100 0.322088 0.000000 
-0.820030 0.946159 0.000000 
0.474522 -0.626847 0.000000 
0.699407 0.040432 0.000000 
0.109248 0.517187 0.000000 
0.441768 -0.787362 0.000000 
-0.039645 -0.287491 0.000000 
0.417537 0.415072 0.000000 
0.033296 0.915581 0.000000 
-0.338794 -0.817145 0.000000 
-0.374519 -0.244182 0.000000 
-0.713312 0.375248 0.000000 
0.609100 0.264107 0.000000 
-0.381900 0.378046 0.000000 
-0.756418 0.920438 0.000000 
0.513962 0.708952 0.000000 
0.218274 -0.566809 0.000000 
-0.423588 -0.600912 0.000000 
-0.384386 -0.986185 0.000000 
-0.766286 -0.471565 0.000000 
0.484677 -0.736780 0.000000 
0.139443 -0.098655 0.000000 
-0.556234 -0.216224 0.000000 
-0.823577 0.557280 0.000000 
0.550868 0.546484 0.000000 
-0.386873 -0.350416 0.000000 
-0.771260 0.149974 0.000000 
0.467428 -0.156555 0.000000 
0.105264 0.442071 0.000000 
-0.621631 0.260172 0.000000 
-0.937896 0.963752 0.000000 
0.385608 0.884557 0.000000 
0.141715 -0.306215 0.000000 
-0.474677 -0.306119 0.000000 
CELL_DATA 175 
SCALARS MASS float 
LOOKUP_TABLE default 
0.781831 
0.864274 
0.946717 
0.864274 
0.881307 
0.921110 
0.858535 
0.921110 
0.881307 
0.887046 
0.910001 
0.869829 
0.915556 
0.869829 
0.910001 
0.887046 
0.892784 
0.915740 
0.892784 
0.927218 
0.892784 
0.927218 
0.892784 
0.915740 
0.892784 
0.781831 
0.864274 
0.946717 
0.864274 
0.881307 
0.921110 
0.858535 
0.921110 
0.881307 
0.887046 
0.910001 
0.869829 
0.915556 
0.869829 
0.910001 
0.887046 
0.892784 
0.915740 
0.892784 
0.927218 
0.892784 
0.927218 
0.892784 
0.915740 
0.892784 
0.781831 
0.864274 
0.946717 
0.864274 
0.881307 
0.921110 
0.858535 
0.921110 
0.881307 
0.887046 
0.910001 
0.869829 
0.915556 
0.869829 
0.910001 
0.887046 
0.892784 
0.915740 
0.892784 
0.927218 
0.892784 
0.927218 
0.892784 
0.915740 
0.892784 
0.781831 
0.864274 
0.946717 
0.864274 
0.881307 
0.921110 
0.858535 
0.921110 
0.881307 
0.887046 
0.910001 
0.869829 
0.915556 
0.869829 
0.910001 
0.887046 
0.892784 
0.915740 
0.892784 
0.927218 
0.892784 
0.927218 
0.892784 
0.915740 
0.892784 
0.781831 
0.864274 
0.946717 
0.864274 
0.881307 
0.921110 
0.858535 
0.921110 
0.881307 
0.887046 
0.910001 
0.869829 
0.915556 
0.869829 
0.910001 
0.887046 
0.892784 
0.915740 
0.892784 
0.927218 
0.892784 
0.927218 
0.892784 
0.915740 
0.892784 
0.781831 
0.864274 
0.946717 
0.864274 
0.881307 
0.921110 
0.858535 
0.921110 
0.881307 
0.887046 
0.910001 
0.869829 
0.915556 
0.869829 
0.910001 
0.887046 
0.892784 
0.915740 
0.892784 
0.927218 
0.892784 
0.927218 
0.892784 
0.915740 
0.892784 
0.781831 
0.864274 
0.946717 
0.864274 
0.881307 
0.921110 
0.858535 
0.921110 
0.881307 
0.887046 
0.910001 
0.869829 
0.915556 
0.869829 
0.910001 
0.887046 
0.892784 
0.915740 
0.892784 
0.927218 
0.892784 
0.927218 
0.892784 
0.915740 
0.892784 
SCALARS MASS float 
LOOKUP_TABLE default 
0.781831 
0.864274 
0.946717 
0.864274 
0.881307 
0.921110 
0.858535 
0.921110 
0.881307 
0.887046 
0.910001 
0.869829 
0.915556 
0.869829 
0.910001 
0.887046 
0.892784 
0.915740 
0.892784 
0.927218 
0.892784 
0.927218 
0.892784 
0.915740 
0.892784 
0.781831 
0.864274 
0.946717 
0.864274 
0.881307 
0.921110 
0.858535 
0.921110 
0.881307 
0.887046 
0.910001 
0.869829 
0.915556 
0.869829 
0.910001 
0.887046 
0.892784 
0.915740 
0.892784 
0.927218 
0.892784 
0.927218 
0.892784 
0.915740 
0.892784 
0.781831 
0.864274 
0.946717 
0.864274 
0.881307 
0.921110 
0.858535 
0.921110 
0.881307 
0.887046 
0.910001 
0.869829 
0.915556 
0.869829 
0.910001 
0.887046 
0.892784 
0.915740 
0.892784 
0.927218 
0.892784 
0.927218 
0.892784 
0.915740 
0.892784 
0.781831 
0.864274 
0.946717 
0.864274 
0.881307 
0.921110 
0.858535 
0.921110 
0.881307 
0.887046 
0.910001 
0.869829 
0.915556 
0.869829 
0.910001 
0.887046 
0.892784 
0.915740 
0.892784 
0.927218 
0.892784 
0.927218 
0.892784 
0.915740 
0.892784 
0.781831 
0.864274 
0.946717 
0.864274 
0.881307 
0.921110 
0.858535 
0.921110 
0.881307 
0.887046 
0.910001 
0.869829 
0.915556 
0.869829 
0.910001 
0.887046 
0.892784 
0.915740 
0.892784 
0.927218 
0.892784 
0.927218 
0.892784 
0.915740 
0.892784 
0.781831 
0.864274 
0.946717 
0.864274 
0.881307 
0.921110 
0.858535 
0.921110 
0.881307 
0.887046 
0.910001 
0.869829 
0.915556 
0.869829 
0.910001 
0.887046 
0.892784 
0.915740 
0.892784 
0.927218 
0.892784 
0.927218 
0.892784 
0.915740 
0.892784 
0.781831 
0.864274 
0.946717 
0.864274 
0.881307 
0.921110 
0.858535 
0.921110 
0.881307 
0.887046 
0.910001 
0.869829 
0.915556 
0.869829 
0.910001 
0.887046 
0.892784 
0.915740 
0.892784 
0.927218 
0.892784 
0.927218 
0.892784 
0.915740 
0.892784 
SCALARS DENSITY float 
LOOKUP_TABLE default 
200.000000 
200.000000 
200.000000 
200.000000 
200.000000 
200.000000 
200.000000 
200.000000 
200.000000 
200.000000 
200.000000 
200.000000 
200.000000 
200.000000 
200.000000 
200.000000 
200.000000 
200.000000 
200.000000 
200.000000 
200.000000 
200.000000 
200.000000 
200.000000 
200.000000 
200.000000 
200.000000 
200.000000 
200.000000 
200.000000 
200.000000 
200.000000 
200.000000 
200.000000 
200.000000 
200.000000 
200.000000 
200.000000 
200.000000 
200.000000 
200.000000 
200.000000 
200.000000 
200.000000 
200.000000 
200.000000 
200.000000 
200.000000 
200.000000 
200.000000 
200.000000 
200.000000 
200.000000 
200.000000 
200.000000 
200.000000 
200.000000 
200.000000 
200.000000 
200.000000 
200.000000 
200.000000 
200.000000 
200.000000 
200.000000 
200.000000 
200.000000 
200.000000 
200.000000 
200.000000 
200.000000 
200.000000 
200.000000 
200.000000 
200.000000 
200.000000 
200.000000 
200.000000 
200.000000 
200.000000 
200.000000 
200.000000 
200.000000 
200.000000 
200.000000 
200.000000 
200.000000 
200.000000 
200.000000 
200.000000 
200.000000 
200.000000 
200.000000 
200.000000 
200.000000 
200.000000 
200.000000 
200.000000 
200.000000 
200.000000 
200.000000 
200.000000 
200.000000 
200.000000 
200.000000 
200.000000 
200.000000 
200.000000 
200.000000 
200.000000 
200.000000 
200.000000 
200.000000 
200.000000 
200.000000 
200.000000 
200.000000 
200.000000 
200.000000 
200.000000 
200.000000 
200.000000 
200.000000 
200.000000 
200.000000 
200.000000 
200.000000 
200.000000 
200.000000 
200.000000 
200.000000 
200.000000 
200.000000 
200.000000 
200.000000 
200.000000 
200.000000 
200.000000 
200.000000 
200.000000 
200.000000 
200.000000 
200.000000 
200.000000 
200.000000 
200.000000 
200.000000 
200.000000 
200.000000 
200.000000 
200.000000 
200.000000 
200.000000 
200.000000 
200.000000 
200.000000 
200.000000 
200.000000 
200.000000 
200.000000 
200.000000 
200.000000 
200.000000 
200.000000 
200.000000 
200.000000 
200.000000 
200.000000 
200.000000 
200.000000 
200.000000 
200.000000 
200.000000 
200.000000 
200.000000 
SCALARS ELEM_i float 
LOOKUP_TABLE default 
181 
209 
182 
182 
209 
209 
210 
183 
183 
237 
210 
210 
210 
210 
183 
183 
237 
237 
238 
211 
211 
211 
211 
184 
184 
181 
208 
208 
209 
235 
208 
235 
209 
209 
235 
235 
235 
236 
236 
236 
236 
262 
262 
262 
262 
263 
263 
263 
237 
237 
181 
207 
208 
208 
207 
207 
207 
207 
234 
206 
206 
233 
234 
234 
234 
234 
205 
233 
233 
233 
233 
233 
261 
261 
261 
181 
180 
180 
180 
152 
180 
179 
180 
206 
152 
152 
179 
179 
179 
206 
206 
151 
151 
151 
178 
178 
178 
205 
205 
205 
181 
154 
154 
153 
126 
153 
153 
153 
153 
126 
126 
126 
126 
125 
152 
152 
99 
99 
99 
125 
125 
125 
125 
125 
151 
181 
155 
154 
154 
155 
155 
127 
154 
127 
128 
128 
128 
128 
127 
127 
127 
129 
129 
101 
101 
101 
100 
100 
100 
100 
181 
182 
182 
155 
183 
183 
156 
155 
155 
183 
183 
156 
156 
156 
156 
129 
184 
184 
157 
157 
157 
157 
130 
129 
129 
VECTORS VELOCITY float 
0.000000 -1.432260 0.000000 
0.000000 -1.432260 0.000000 
0.000000 -1.432260 0.000000 
0.000000 -1.432260 0.000000 
-0.000000 -1.432260 0.000000 
0.000000 -1.432260 0.000000 
0.000000 -1.432260 0.000000 
0.000000 -1.432260 0.000000 
0.000000 -1.432260 0.000000 
0.000000 -1.432260 0.000000 
0.000000 -1.432260 0.000000 
0.000000 -1.432260 0.000000 
0.000000 -1.432260 0.000000 
0.000000 -1.432260 0.000000 
0.000000 -1.432260 0.000000 
0.000000 -1.432260 0.000000 
0.000000 -1.432260 0.000000 
0.000000 -1.432260 0.000000 
0.000000 -1.432260 0.000000 
0.000000 -1.432260 0.000000 
0.000000 -1.432260 0.000000 
0.000000 -1.432260 0.000000 
0.000000 -1.432260 0.000000 
0.000000 -1.432260 0.000000 
0.000000 -1.432260 0.000000 
0.000000 -1.432260 0.000000 
-0.000000 -1.432260 0.000000 
0.000000 -1.432260 0.000000 
0.000000 -1.432260 0.000000 
-0.000000 -1.432260 0.000000 
-0.000000 -1.432260 0.000000 
-0.000000 -1.432260 0.000000 
-0.000000 -1.432260 0.000000 
-0.000000 -1.432260 0.000000 
-0.000000 -1.432260 0.000000 
-0.000000 -1.432260 0.000000 
0.000000 -1.432260 0.000000 
0.000000 -1.432260 0.000000 
-0.000000 -1.432260 0.000000 
-0.000000 -1.432260 0.000000 
-0.000000 -1.432260 0.000000 
0.000000 -1.432260 0.000000 
-0.000000 -1.432260 0.000000 
-0.000000 -1.432260 0.000000 
-0.000000 -1.432260 0.000000 
0.000000 -1.432260 0.000000 
0.000000 -1.432260 0.000000 
0.000000 -1.432260 0.000000 
-0.000000 -1.432260 0.000000 
0.000000 -1.432260 0.000000 
0.000000 -1.432260 0.000000 
0.000000 -1.432260 0.000000 
0.000000 -1.432260 0.000000 
-0.000000 -1.432260 0.000000 
-0.000000 -1.432260 0.000000 
-0.000000 -1.432260 0.000000 
-0.000000 -1.432260 0.000000 
-0.000000 -1.432260 0.000000 
-0.000000 -1.432260 0.000000 
-0.000000 -1.432260 0.000000 
-0.000000 -1.432260 0.000000 
0.000000 -1.432260 0.000000 
0.000000 -1.432260 0.000000 
-0.000000 -1.432260 0.000000 
-0.000000 -1.432260 0.000000 
-0.000000 -1.432260 0.000000 
-0.000000 -1.432260 0.000000 
0.000000 -1.432260 0.000000 
-0.000000 -1.432260 0.000000 
-0.000000 -1.432260 0.000000 
-0.000000 -1.432260 0.000000 
-0.000000 -1.432260 0.000000 
-0.000000 -1.432260 0.000000 
-0.000000 -1.432260 0.000000 
0.000000 -1.432260 0.000000 
0.000000 -1.432260 0.000000 
-0.000000 -1.432260 0.000000 
-0.000000 -1.432260 0.000000 
-0.000000 -1.432260 0.000000 
-0.000000 -1.432260 0.000000 
-0.000000 -1.432260 0.000000 
-0.000000 -1.432260 0.000000 
-0.000000 -1.432260 0.000000 
-0.000000 -1.432260 0.000000 
-0.000000 -1.432260 0.000000 
-0.000000 -1.432260 0.000000 
-0.000000 -1.432260 0.000000 
-0.000000 -1.432260 0.000000 
-0.000000 -1.432260 0.000000 
-0.000000 -1.432260 0.000000 
-0.000000 -1.432260 0.000000 
-0.000000 -1.432260 0.000000 
-0.000000 -1.432260 0.000000 
-0.000000 -1.432260 0.000000 
-0.000000 -1.432260 0.000000 
-0.000000 -1.432260 0.000000 
-0.000000 -1.432260 0.000000 
-0.000000 -1.432260 0.000000 
-0.000000 -1.432260 0.000000 
-0.000000 -1.432260 0.000000 
0.000000 -1.432260 0.000000 
0.000000 -1.432260 0.000000 
-0.000000 -1.432260 0.000000 
-0.000000 -1.432260 0.000000 
0.000000 -1.432260 0.000000 
0.000000 -1.432260 0.000000 
0.000000 -1.432260 0.000000 
-0.000000 -1.432260 0.000000 
-0.000000 -1.432260 0.000000 
-0.000000 -1.432260 0.000000 
-0.000000 -1.432260 0.000000 
0.000000 -1.432260 0.000000 
0.000000 -1.432260 0.000000 
0.000000 -1.432260 0.000000 
0.000000 -1.432260 0.000000 
0.000000 -1.432260 0.000000 
0.000000 -1.432260 0.000000 
-0.000000 -1.432260 0.000000 
-0.000000 -1.432260 0.000000 
0.000000 -1.432260 0.000000 
0.000000 -1.432260 0.000000 
0.000000 -1.432260 0.000000 
0.000000 -1.432260 0.000000 
0.000000 -1.432260 0.000000 
0.000000 -1.432260 0.000000 
0.000000 -1.432260 0.000000 
0.000000 -1.432260 0.000000 
0.000000 -1.432260 0.000000 
0.000000 -1.432260 0.000000 
-0.000000 -1.432260 0.000000 
-0.000000 -1.432260 0.000000 
-0.000000 -1.432260 0.000000 
-0.000000 -1.432260 0.000000 
-0.000000 -1.432260 0.000000 
0.000000 -1.432260 0.000000 
-0.000000 -1.432260 0.000000 
-0.000000 -1.432260 0.000000 
-0.000000 -1.432260 0.000000 
-0.000000 -1.432260 0.000000 
-0.000000 -1.432260 0.000000 
-0.000000 -1.432260 0.000000 
0.000000 -1.432260 0.000000 
-0.000000 -1.432260 0.000000 
0.000000 -1.432260 0.000000 
0.000000 -1.432260 0.000000 
0.000000 -1.432260 0.000000 
-0.000000 -1.432260 0.000000 
0.000000 -1.432260 0.000000 
0.000000 -1.432260 0.000000 
0.000000 -1.432260 0.000000 
0.000000 -1.432260 0.000000 
0.000000 -1.432260 0.000000 
0.000000 -1.432260 0.000000 
0.000000 -1.432260 0.000000 
0.000000 -1.432260 0.000000 
-0.000000 -1.432260 0.000000 
0.000000 -1.432260 0.000000 
0.000000 -1.432260 0.000000 
0.000000 -1.432260 0.000000 
0.000000 -1.432260 0.000000 
0.000000 -1.432260 0.000000 
0.000000 -1.432260 0.000000 
0.000000 -1.432260 0.000000 
0.000000 -1.432260 0.000000 
0.000000 -1.432260 0.000000 
0.000000 -1.432260 0.000000 
0.000000 -1.432260 0.000000 
0.000000 -1.432260 0.000000 
0.000000 -1.432260 0.000000 
0.000000 -1.432260 0.000000 
0.000000 -1.432260 0.000000 
-0.000000 -1.432260 0.000000 
-0.000000 -1.432260 0.000000 
0.000000 -1.432260 0.000000 
0.000000 -1.432260 0.000000 
TENSORS STRESS float 
0.000000 -0.000000 0.000000 
0.000000 -0.000000 0.000000 
0.000000 0.000000 0.000000 

0.000000 -0.000000 0.000000 
0.000000 0.000000 0.000000 
0.000000 0.000000 0.000000 

0.000000 -0.000000 0.000000 
0.000000 0.000000 0.000000 
0.000000 0.000000 0.000000 

-0.000000 -0.000000 0.000000 
0.000000 -0.000000 0.000000 
0.000000 0.000000 0.000000 

0.000000 -0.000000 0.000000 
0.000000 0.000000 0.000000 
0.000000 0.000000 0.000000 

-0.000000 -0.000000 0.000000 
0.000000 -0.000000 0.000000 
0.000000 0.000000 0.000000 

0.000000 -0.000000 0.000000 
0.000000 0.000000 0.000000 
0.000000 0.000000 0.000000 

-0.000000 -0.000000 0.000000 
0.000000 -0.000000 0.000000 
0.000000 0.000000 0.000000 

-0.000000 -0.000000 0.000000 
0.000000 -0.000000 0.000000 
0.000000 0.000000 0.000000 

-0.000000 -0.000000 0.000000 
0.000000 -0.000000 0.000000 
0.000000 0.000000 0.000000 

-0.000000 -0.000000 0.000000 
0.000000 -0.000000 0.000000 
0.000000 0.000000 0.000000 

-0.000000 -0.000000 0.000000 
0.000000 0.000000 0.000000 
0.000000 0.000000 0.000000 
