# vtk DataFile Version 3.0 
vtk output 
ASCII 
DATASET UNSTRUCTURED_GRID 
POINTS 175 float 
-0.026056 -2.399750 0.000000 
-0.106984 -2.331679 0.000000 
-0.054863 -2.339917 0.000000 
-0.028807 -2.294024 0.000000 
-0.186428 -2.267589 0.000000 
-0.137053 -2.270118 0.000000 
-0.114309 -2.216471 0.000000 
-0.058184 -2.232138 0.000000 
-0.029376 -2.191960 0.000000 
-0.265318 -2.204432 0.000000 
-0.217198 -2.205233 0.000000 
-0.196633 -2.147938 0.000000 
-0.143119 -2.156647 0.000000 
-0.116563 -2.109379 0.000000 
-0.058945 -2.129025 0.000000 
-0.029568 -2.090905 0.000000 
-0.344208 -2.141277 0.000000 
-0.296792 -2.141271 0.000000 
-0.278031 -2.081329 0.000000 
-0.225992 -2.087196 0.000000 
-0.201664 -2.035079 0.000000 
-0.145749 -2.048553 0.000000 
-0.117890 -2.004211 0.000000 
-0.059328 -2.026917 0.000000 
-0.029760 -1.989851 0.000000 
-0.058552 -2.440512 0.000000 
-0.162219 -2.461333 0.000000 
-0.123281 -2.425721 0.000000 
-0.142907 -2.376728 0.000000 
-0.261847 -2.483442 0.000000 
-0.229082 -2.446440 0.000000 
-0.256851 -2.395209 0.000000 
-0.209608 -2.361103 0.000000 
-0.223059 -2.313525 0.000000 
-0.360472 -2.505687 0.000000 
-0.329810 -2.468602 0.000000 
-0.361772 -2.416821 0.000000 
-0.321592 -2.380424 0.000000 
-0.341990 -2.330191 0.000000 
-0.290703 -2.297399 0.000000 
-0.302190 -2.250664 0.000000 
-0.459108 -2.527964 0.000000 
-0.429503 -2.490913 0.000000 
-0.464638 -2.438904 0.000000 
-0.427579 -2.401895 0.000000 
-0.453156 -2.350386 0.000000 
-0.407748 -2.315081 0.000000 
-0.425044 -2.265658 0.000000 
-0.370775 -2.234033 0.000000 
-0.381319 -2.187808 0.000000 
-0.046968 -2.491362 0.000000 
-0.095335 -2.585481 0.000000 
-0.098893 -2.532770 0.000000 
-0.149405 -2.517524 0.000000 
-0.140125 -2.677182 0.000000 
-0.148632 -2.628425 0.000000 
-0.205984 -2.618026 0.000000 
-0.203174 -2.559883 0.000000 
-0.248760 -2.540704 0.000000 
-0.185236 -2.767401 0.000000 
-0.194262 -2.720747 0.000000 
-0.254789 -2.713266 0.000000 
-0.258059 -2.659261 0.000000 
-0.310174 -2.643882 0.000000 
-0.303623 -2.583454 0.000000 
-0.347338 -2.563305 0.000000 
-0.232243 -2.856873 0.000000 
-0.241430 -2.811365 0.000000 
-0.303741 -2.806967 0.000000 
-0.308423 -2.755221 0.000000 
-0.364574 -2.743218 0.000000 
-0.363353 -2.685753 0.000000 
-0.412755 -2.668504 0.000000 
-0.403329 -2.606461 0.000000 
-0.445962 -2.585933 0.000000 
-0.000000 -2.513993 0.000000 
0.043402 -2.610592 0.000000 
-0.000000 -2.580464 0.000000 
-0.043402 -2.610592 0.000000 
0.087137 -2.702963 0.000000 
0.043759 -2.679259 0.000000 
-0.000000 -2.717781 0.000000 
-0.043759 -2.679259 0.000000 
-0.087137 -2.702963 0.000000 
0.132030 -2.793102 0.000000 
0.088323 -2.771987 0.000000 
0.044942 -2.814367 0.000000 
-0.000000 -2.783583 0.000000 
-0.044942 -2.814367 0.000000 
-0.088323 -2.771987 0.000000 
-0.132030 -2.793102 0.000000 
0.178141 -2.880732 0.000000 
0.134226 -2.862626 0.000000 
0.090959 -2.900959 0.000000 
0.045427 -2.879008 0.000000 
-0.000000 -2.907311 0.000000 
-0.045427 -2.879008 0.000000 
-0.090959 -2.900959 0.000000 
-0.134226 -2.862626 0.000000 
-0.178141 -2.880732 0.000000 
0.046968 -2.491362 0.000000 
0.149405 -2.517524 0.000000 
0.098893 -2.532770 0.000000 
0.095335 -2.585481 0.000000 
0.248760 -2.540704 0.000000 
0.203174 -2.559883 0.000000 
0.205984 -2.618026 0.000000 
0.148632 -2.628425 0.000000 
0.140125 -2.677182 0.000000 
0.347338 -2.563305 0.000000 
0.303623 -2.583454 0.000000 
0.310174 -2.643882 0.000000 
0.258059 -2.659261 0.000000 
0.254789 -2.713266 0.000000 
0.194262 -2.720747 0.000000 
0.185236 -2.767401 0.000000 
0.445962 -2.585933 0.000000 
0.403329 -2.606461 0.000000 
0.412755 -2.668504 0.000000 
0.363353 -2.685753 0.000000 
0.364574 -2.743218 0.000000 
0.308423 -2.755221 0.000000 
0.303741 -2.806967 0.000000 
0.241430 -2.811365 0.000000 
0.232243 -2.856873 0.000000 
0.058552 -2.440512 0.000000 
0.142907 -2.376728 0.000000 
0.123281 -2.425721 0.000000 
0.162219 -2.461333 0.000000 
0.223059 -2.313525 0.000000 
0.209608 -2.361103 0.000000 
0.256851 -2.395209 0.000000 
0.229082 -2.446440 0.000000 
0.261847 -2.483442 0.000000 
0.302190 -2.250664 0.000000 
0.290703 -2.297399 0.000000 
0.341990 -2.330191 0.000000 
0.321592 -2.380424 0.000000 
0.361772 -2.416821 0.000000 
0.329810 -2.468602 0.000000 
0.360472 -2.505687 0.000000 
0.381319 -2.187808 0.000000 
0.370775 -2.234033 0.000000 
0.425044 -2.265658 0.000000 
0.407748 -2.315081 0.000000 
0.453156 -2.350386 0.000000 
0.427579 -2.401895 0.000000 
0.464638 -2.438904 0.000000 
0.429503 -2.490913 0.000000 
0.459108 -2.527964 0.000000 
0.026056 -2.399750 0.000000 
0.028807 -2.294024 0.000000 
0.054863 -2.339917 0.000000 
0.106984 -2.331679 0.000000 
0.029376 -2.191960 0.000000 
0.058184 -2.232138 0.000000 
0.114309 -2.216471 0.000000 
0.137053 -2.270118 0.000000 
0.186428 -2.267589 0.000000 
0.029568 -2.090905 0.000000 
0.058945 -2.129025 0.000000 
0.116563 -2.109379 0.000000 
0.143119 -2.156647 0.000000 
0.196633 -2.147938 0.000000 
0.217198 -2.205233 0.000000 
0.265318 -2.204432 0.000000 
0.029760 -1.989851 0.000000 
0.059328 -2.026917 0.000000 
0.117890 -2.004211 0.000000 
0.145749 -2.048553 0.000000 
0.201664 -2.035079 0.000000 
0.225992 -2.087196 0.000000 
0.278031 -2.081329 0.000000 
0.296792 -2.141271 0.000000 
0.344208 -2.141277 0.000000 
CELLS 175 350 
1 0 
1 1 
1 2 
1 3 
1 4 
1 5 
1 6 
1 7 
1 8 
1 9 
1 10 
1 11 
1 12 
1 13 
1 14 
1 15 
1 16 
1 17 
1 18 
1 19 
1 20 
1 21 
1 22 
1 23 
1 24 
1 25 
1 26 
1 27 
1 28 
1 29 
1 30 
1 31 
1 32 
1 33 
1 34 
1 35 
1 36 
1 37 
1 38 
1 39 
1 40 
1 41 
1 42 
1 43 
1 44 
1 45 
1 46 
1 47 
1 48 
1 49 
1 50 
1 51 
1 52 
1 53 
1 54 
1 55 
1 56 
1 57 
1 58 
1 59 
1 60 
1 61 
1 62 
1 63 
1 64 
1 65 
1 66 
1 67 
1 68 
1 69 
1 70 
1 71 
1 72 
1 73 
1 74 
1 75 
1 76 
1 77 
1 78 
1 79 
1 80 
1 81 
1 82 
1 83 
1 84 
1 85 
1 86 
1 87 
1 88 
1 89 
1 90 
1 91 
1 92 
1 93 
1 94 
1 95 
1 96 
1 97 
1 98 
1 99 
1 100 
1 101 
1 102 
1 103 
1 104 
1 105 
1 106 
1 107 
1 108 
1 109 
1 110 
1 111 
1 112 
1 113 
1 114 
1 115 
1 116 
1 117 
1 118 
1 119 
1 120 
1 121 
1 122 
1 123 
1 124 
1 125 
1 126 
1 127 
1 128 
1 129 
1 130 
1 131 
1 132 
1 133 
1 134 
1 135 
1 136 
1 137 
1 138 
1 139 
1 140 
1 141 
1 142 
1 143 
1 144 
1 145 
1 146 
1 147 
1 148 
1 149 
1 150 
1 151 
1 152 
1 153 
1 154 
1 155 
1 156 
1 157 
1 158 
1 159 
1 160 
1 161 
1 162 
1 163 
1 164 
1 165 
1 166 
1 167 
1 168 
1 169 
1 170 
1 171 
1 172 
1 173 
1 174 
CELL_TYPES 175 
1 
1 
1 
1 
1 
1 
1 
1 
1 
1 
1 
1 
1 
1 
1 
1 
1 
1 
1 
1 
1 
1 
1 
1 
1 
1 
1 
1 
1 
1 
1 
1 
1 
1 
1 
1 
1 
1 
1 
1 
1 
1 
1 
1 
1 
1 
1 
1 
1 
1 
1 
1 
1 
1 
1 
1 
1 
1 
1 
1 
1 
1 
1 
1 
1 
1 
1 
1 
1 
1 
1 
1 
1 
1 
1 
1 
1 
1 
1 
1 
1 
1 
1 
1 
1 
1 
1 
1 
1 
1 
1 
1 
1 
1 
1 
1 
1 
1 
1 
1 
1 
1 
1 
1 
1 
1 
1 
1 
1 
1 
1 
1 
1 
1 
1 
1 
1 
1 
1 
1 
1 
1 
1 
1 
1 
1 
1 
1 
1 
1 
1 
1 
1 
1 
1 
1 
1 
1 
1 
1 
1 
1 
1 
1 
1 
1 
1 
1 
1 
1 
1 
1 
1 
1 
1 
1 
1 
1 
1 
1 
1 
1 
1 
1 
1 
1 
1 
1 
1 
1 
1 
1 
1 
1 
1 
POINT_DATA 175 
VECTORS X_GC float 
-0.026056 -2.399750 0.000000 
-0.106984 -2.331679 0.000000 
-0.054863 -2.339917 0.000000 
-0.028807 -2.294024 0.000000 
-0.186428 -2.267589 0.000000 
-0.137053 -2.270118 0.000000 
-0.114309 -2.216471 0.000000 
-0.058184 -2.232138 0.000000 
-0.029376 -2.191960 0.000000 
-0.265318 -2.204432 0.000000 
-0.217198 -2.205233 0.000000 
-0.196633 -2.147938 0.000000 
-0.143119 -2.156647 0.000000 
-0.116563 -2.109379 0.000000 
-0.058945 -2.129025 0.000000 
-0.029568 -2.090905 0.000000 
-0.344208 -2.141277 0.000000 
-0.296792 -2.141271 0.000000 
-0.278031 -2.081329 0.000000 
-0.225992 -2.087196 0.000000 
-0.201664 -2.035079 0.000000 
-0.145749 -2.048553 0.000000 
-0.117890 -2.004211 0.000000 
-0.059328 -2.026917 0.000000 
-0.029760 -1.989851 0.000000 
-0.058552 -2.440512 0.000000 
-0.162219 -2.461333 0.000000 
-0.123281 -2.425721 0.000000 
-0.142907 -2.376728 0.000000 
-0.261847 -2.483442 0.000000 
-0.229082 -2.446440 0.000000 
-0.256851 -2.395209 0.000000 
-0.209608 -2.361103 0.000000 
-0.223059 -2.313525 0.000000 
-0.360472 -2.505687 0.000000 
-0.329810 -2.468602 0.000000 
-0.361772 -2.416821 0.000000 
-0.321592 -2.380424 0.000000 
-0.341990 -2.330191 0.000000 
-0.290703 -2.297399 0.000000 
-0.302190 -2.250664 0.000000 
-0.459108 -2.527964 0.000000 
-0.429503 -2.490913 0.000000 
-0.464638 -2.438904 0.000000 
-0.427579 -2.401895 0.000000 
-0.453156 -2.350386 0.000000 
-0.407748 -2.315081 0.000000 
-0.425044 -2.265658 0.000000 
-0.370775 -2.234033 0.000000 
-0.381319 -2.187808 0.000000 
-0.046968 -2.491362 0.000000 
-0.095335 -2.585481 0.000000 
-0.098893 -2.532770 0.000000 
-0.149405 -2.517524 0.000000 
-0.140125 -2.677182 0.000000 
-0.148632 -2.628425 0.000000 
-0.205984 -2.618026 0.000000 
-0.203174 -2.559883 0.000000 
-0.248760 -2.540704 0.000000 
-0.185236 -2.767401 0.000000 
-0.194262 -2.720747 0.000000 
-0.254789 -2.713266 0.000000 
-0.258059 -2.659261 0.000000 
-0.310174 -2.643882 0.000000 
-0.303623 -2.583454 0.000000 
-0.347338 -2.563305 0.000000 
-0.232243 -2.856873 0.000000 
-0.241430 -2.811365 0.000000 
-0.303741 -2.806967 0.000000 
-0.308423 -2.755221 0.000000 
-0.364574 -2.743218 0.000000 
-0.363353 -2.685753 0.000000 
-0.412755 -2.668504 0.000000 
-0.403329 -2.606461 0.000000 
-0.445962 -2.585933 0.000000 
-0.000000 -2.513993 0.000000 
0.043402 -2.610592 0.000000 
-0.000000 -2.580464 0.000000 
-0.043402 -2.610592 0.000000 
0.087137 -2.702963 0.000000 
0.043759 -2.679259 0.000000 
-0.000000 -2.717781 0.000000 
-0.043759 -2.679259 0.000000 
-0.087137 -2.702963 0.000000 
0.132030 -2.793102 0.000000 
0.088323 -2.771987 0.000000 
0.044942 -2.814367 0.000000 
-0.000000 -2.783583 0.000000 
-0.044942 -2.814367 0.000000 
-0.088323 -2.771987 0.000000 
-0.132030 -2.793102 0.000000 
0.178141 -2.880732 0.000000 
0.134226 -2.862626 0.000000 
0.090959 -2.900959 0.000000 
0.045427 -2.879008 0.000000 
-0.000000 -2.907311 0.000000 
-0.045427 -2.879008 0.000000 
-0.090959 -2.900959 0.000000 
-0.134226 -2.862626 0.000000 
-0.178141 -2.880732 0.000000 
0.046968 -2.491362 0.000000 
0.149405 -2.517524 0.000000 
0.098893 -2.532770 0.000000 
0.095335 -2.585481 0.000000 
0.248760 -2.540704 0.000000 
0.203174 -2.559883 0.000000 
0.205984 -2.618026 0.000000 
0.148632 -2.628425 0.000000 
0.140125 -2.677182 0.000000 
0.347338 -2.563305 0.000000 
0.303623 -2.583454 0.000000 
0.310174 -2.643882 0.000000 
0.258059 -2.659261 0.000000 
0.254789 -2.713266 0.000000 
0.194262 -2.720747 0.000000 
0.185236 -2.767401 0.000000 
0.445962 -2.585933 0.000000 
0.403329 -2.606461 0.000000 
0.412755 -2.668504 0.000000 
0.363353 -2.685753 0.000000 
0.364574 -2.743218 0.000000 
0.308423 -2.755221 0.000000 
0.303741 -2.806967 0.000000 
0.241430 -2.811365 0.000000 
0.232243 -2.856873 0.000000 
0.058552 -2.440512 0.000000 
0.142907 -2.376728 0.000000 
0.123281 -2.425721 0.000000 
0.162219 -2.461333 0.000000 
0.223059 -2.313525 0.000000 
0.209608 -2.361103 0.000000 
0.256851 -2.395209 0.000000 
0.229082 -2.446440 0.000000 
0.261847 -2.483442 0.000000 
0.302190 -2.250664 0.000000 
0.290703 -2.297399 0.000000 
0.341990 -2.330191 0.000000 
0.321592 -2.380424 0.000000 
0.361772 -2.416821 0.000000 
0.329810 -2.468602 0.000000 
0.360472 -2.505687 0.000000 
0.381319 -2.187808 0.000000 
0.370775 -2.234033 0.000000 
0.425044 -2.265658 0.000000 
0.407748 -2.315081 0.000000 
0.453156 -2.350386 0.000000 
0.427579 -2.401895 0.000000 
0.464638 -2.438904 0.000000 
0.429503 -2.490913 0.000000 
0.459108 -2.527964 0.000000 
0.026056 -2.399750 0.000000 
0.028807 -2.294024 0.000000 
0.054863 -2.339917 0.000000 
0.106984 -2.331679 0.000000 
0.029376 -2.191960 0.000000 
0.058184 -2.232138 0.000000 
0.114309 -2.216471 0.000000 
0.137053 -2.270118 0.000000 
0.186428 -2.267589 0.000000 
0.029568 -2.090905 0.000000 
0.058945 -2.129025 0.000000 
0.116563 -2.109379 0.000000 
0.143119 -2.156647 0.000000 
0.196633 -2.147938 0.000000 
0.217198 -2.205233 0.000000 
0.265318 -2.204432 0.000000 
0.029760 -1.989851 0.000000 
0.059328 -2.026917 0.000000 
0.117890 -2.004211 0.000000 
0.145749 -2.048553 0.000000 
0.201664 -2.035079 0.000000 
0.225992 -2.087196 0.000000 
0.278031 -2.081329 0.000000 
0.296792 -2.141271 0.000000 
0.344208 -2.141277 0.000000 
VECTORS X_EC float 
0.338726 0.896630 0.000000 
-0.609207 -0.022332 0.000000 
0.713218 0.088875 0.000000 
0.374488 -0.530670 0.000000 
0.423565 -0.887549 0.000000 
-0.218311 -0.853408 0.000000 
-0.513985 0.422355 0.000000 
0.756393 0.633861 0.000000 
0.381892 0.091460 0.000000 
-0.550861 0.259829 0.000000 
0.823570 0.270641 0.000000 
0.556232 -0.502840 0.000000 
-0.139449 -0.385263 0.000000 
-0.484675 0.976615 0.000000 
0.766285 -0.758165 0.000000 
0.384387 0.727214 0.000000 
0.474701 -0.592762 0.000000 
-0.141700 -0.592848 0.000000 
-0.385598 0.597941 0.000000 
0.937900 0.677143 0.000000 
0.621635 -0.026431 0.000000 
-0.105262 0.155469 0.000000 
-0.467426 -0.443153 0.000000 
0.771261 -0.136624 0.000000 
0.386874 -0.637012 0.000000 
0.761182 -0.553083 0.000000 
0.108846 -0.271998 0.000000 
-0.397353 -0.752765 0.000000 
-0.142206 0.585830 0.000000 
-0.595985 0.026463 0.000000 
0.978061 -0.473061 0.000000 
-0.660931 0.835324 0.000000 
0.724898 0.374892 0.000000 
0.899771 -0.267408 0.000000 
0.686140 0.326781 0.000000 
0.287535 -0.173868 0.000000 
0.703033 -0.872917 0.000000 
0.180690 0.635719 0.000000 
0.445873 -0.042421 0.000000 
-0.220867 -0.485120 0.000000 
-0.071524 0.883961 0.000000 
-0.031590 0.627508 0.000000 
-0.416461 0.127331 0.000000 
0.040295 -0.574790 0.000000 
-0.441475 0.925581 0.000000 
-0.108974 0.230212 0.000000 
-0.699279 -0.246409 0.000000 
-0.474426 -0.913612 0.000000 
0.820079 0.659451 0.000000 
0.957142 0.035406 0.000000 
0.610585 0.133389 0.000000 
-0.760639 -0.596005 0.000000 
-0.714387 0.692393 0.000000 
-0.057741 0.486571 0.000000 
-0.178371 0.641958 0.000000 
-0.067780 -0.016260 0.000000 
0.677792 -0.156646 0.000000 
0.641257 -0.941576 0.000000 
-0.766117 0.799506 0.000000 
0.408073 -0.140082 0.000000 
0.525404 -0.769919 0.000000 
-0.687745 -0.870902 0.000000 
-0.645229 0.400017 0.000000 
0.032260 0.192401 0.000000 
-0.052898 -0.623365 0.000000 
0.515399 -0.895386 0.000000 
-0.980835 -0.932216 0.000000 
-0.861410 0.453424 0.000000 
-0.051362 0.394058 0.000000 
0.009494 -0.304512 0.000000 
0.739468 -0.466551 0.000000 
0.723590 0.757663 0.000000 
-0.634182 0.524801 0.000000 
-0.756729 -0.312778 0.000000 
-0.202498 -0.589906 0.000000 
0.000000 0.438903 0.000000 
-0.564226 -0.257006 0.000000 
0.000000 -0.663737 0.000000 
0.564226 -0.257006 0.000000 
0.867224 0.990006 0.000000 
-0.568865 0.669994 0.000000 
0.000000 -0.809959 0.000000 
0.568865 0.669994 0.000000 
-0.867224 0.990006 0.000000 
0.283606 0.206881 0.000000 
0.851806 -0.078176 0.000000 
-0.584243 0.493961 0.000000 
0.000000 0.078365 0.000000 
0.584243 0.493961 0.000000 
-0.851806 -0.078176 0.000000 
-0.283606 0.206881 0.000000 
-0.315828 -0.610121 0.000000 
0.255060 -0.854549 0.000000 
0.817536 -0.337048 0.000000 
-0.590545 -0.633385 0.000000 
0.000000 -0.251306 0.000000 
0.590545 -0.633385 0.000000 
-0.817536 -0.337048 0.000000 
-0.255059 -0.854549 0.000000 
0.315828 -0.610121 0.000000 
-0.610585 0.133389 0.000000 
0.057741 0.486571 0.000000 
0.714387 0.692393 0.000000 
0.760639 -0.596005 0.000000 
0.766117 0.799506 0.000000 
-0.641257 -0.941576 0.000000 
-0.677792 -0.156646 0.000000 
0.067780 -0.016260 0.000000 
0.178371 0.641958 0.000000 
-0.515399 -0.895386 0.000000 
0.052898 -0.623365 0.000000 
-0.032260 0.192401 0.000000 
0.645229 0.400017 0.000000 
0.687745 -0.870902 0.000000 
-0.525404 -0.769919 0.000000 
-0.408073 -0.140082 0.000000 
0.202498 -0.589906 0.000000 
0.756729 -0.312778 0.000000 
0.634182 0.524801 0.000000 
-0.723590 0.757663 0.000000 
-0.739468 -0.466551 0.000000 
-0.009494 -0.304512 0.000000 
0.051362 0.394058 0.000000 
0.861410 0.453424 0.000000 
0.980835 -0.932216 0.000000 
-0.761182 -0.553083 0.000000 
0.142206 0.585830 0.000000 
0.397353 -0.752765 0.000000 
-0.108846 -0.271998 0.000000 
-0.899771 -0.267408 0.000000 
-0.724898 0.374892 0.000000 
0.660931 0.835324 0.000000 
-0.978061 -0.473061 0.000000 
0.595985 0.026463 0.000000 
0.071524 0.883961 0.000000 
0.220867 -0.485120 0.000000 
-0.445873 -0.042421 0.000000 
-0.180690 0.635719 0.000000 
-0.703033 -0.872917 0.000000 
-0.287535 -0.173868 0.000000 
-0.686140 0.326781 0.000000 
-0.957142 0.035406 0.000000 
-0.820079 0.659451 0.000000 
0.474426 -0.913612 0.000000 
0.699279 -0.246409 0.000000 
0.108974 0.230212 0.000000 
0.441475 0.925581 0.000000 
-0.040295 -0.574790 0.000000 
0.416461 0.127331 0.000000 
0.031590 0.627508 0.000000 
-0.338726 0.896630 0.000000 
-0.374488 -0.530670 0.000000 
-0.713218 0.088875 0.000000 
0.609207 -0.022332 0.000000 
-0.381892 0.091460 0.000000 
-0.756393 0.633861 0.000000 
0.513985 0.422355 0.000000 
0.218311 -0.853408 0.000000 
-0.423565 -0.887549 0.000000 
-0.384387 0.727214 0.000000 
-0.766285 -0.758165 0.000000 
0.484675 0.976615 0.000000 
0.139449 -0.385263 0.000000 
-0.556232 -0.502840 0.000000 
-0.823570 0.270641 0.000000 
0.550861 0.259829 0.000000 
-0.386874 -0.637012 0.000000 
-0.771261 -0.136624 0.000000 
0.467426 -0.443153 0.000000 
0.105262 0.155469 0.000000 
-0.621635 -0.026431 0.000000 
-0.937900 0.677143 0.000000 
0.385598 0.597941 0.000000 
0.141700 -0.592848 0.000000 
-0.474701 -0.592762 0.000000 
CELL_DATA 175 
SCALARS MASS float 
LOOKUP_TABLE default 
0.781831 
0.864274 
0.946717 
0.864274 
0.881307 
0.921110 
0.858535 
0.921110 
0.881307 
0.887046 
0.910001 
0.869829 
0.915556 
0.869829 
0.910001 
0.887046 
0.892784 
0.915740 
0.892784 
0.927218 
0.892784 
0.927218 
0.892784 
0.915740 
0.892784 
0.781831 
0.864274 
0.946717 
0.864274 
0.881307 
0.921110 
0.858535 
0.921110 
0.881307 
0.887046 
0.910001 
0.869829 
0.915556 
0.869829 
0.910001 
0.887046 
0.892784 
0.915740 
0.892784 
0.927218 
0.892784 
0.927218 
0.892784 
0.915740 
0.892784 
0.781831 
0.864274 
0.946717 
0.864274 
0.881307 
0.921110 
0.858535 
0.921110 
0.881307 
0.887046 
0.910001 
0.869829 
0.915556 
0.869829 
0.910001 
0.887046 
0.892784 
0.915740 
0.892784 
0.927218 
0.892784 
0.927218 
0.892784 
0.915740 
0.892784 
0.781831 
0.864274 
0.946717 
0.864274 
0.881307 
0.921110 
0.858535 
0.921110 
0.881307 
0.887046 
0.910001 
0.869829 
0.915556 
0.869829 
0.910001 
0.887046 
0.892784 
0.915740 
0.892784 
0.927218 
0.892784 
0.927218 
0.892784 
0.915740 
0.892784 
0.781831 
0.864274 
0.946717 
0.864274 
0.881307 
0.921110 
0.858535 
0.921110 
0.881307 
0.887046 
0.910001 
0.869829 
0.915556 
0.869829 
0.910001 
0.887046 
0.892784 
0.915740 
0.892784 
0.927218 
0.892784 
0.927218 
0.892784 
0.915740 
0.892784 
0.781831 
0.864274 
0.946717 
0.864274 
0.881307 
0.921110 
0.858535 
0.921110 
0.881307 
0.887046 
0.910001 
0.869829 
0.915556 
0.869829 
0.910001 
0.887046 
0.892784 
0.915740 
0.892784 
0.927218 
0.892784 
0.927218 
0.892784 
0.915740 
0.892784 
0.781831 
0.864274 
0.946717 
0.864274 
0.881307 
0.921110 
0.858535 
0.921110 
0.881307 
0.887046 
0.910001 
0.869829 
0.915556 
0.869829 
0.910001 
0.887046 
0.892784 
0.915740 
0.892784 
0.927218 
0.892784 
0.927218 
0.892784 
0.915740 
0.892784 
SCALARS MASS float 
LOOKUP_TABLE default 
0.781831 
0.864274 
0.946717 
0.864274 
0.881307 
0.921110 
0.858535 
0.921110 
0.881307 
0.887046 
0.910001 
0.869829 
0.915556 
0.869829 
0.910001 
0.887046 
0.892784 
0.915740 
0.892784 
0.927218 
0.892784 
0.927218 
0.892784 
0.915740 
0.892784 
0.781831 
0.864274 
0.946717 
0.864274 
0.881307 
0.921110 
0.858535 
0.921110 
0.881307 
0.887046 
0.910001 
0.869829 
0.915556 
0.869829 
0.910001 
0.887046 
0.892784 
0.915740 
0.892784 
0.927218 
0.892784 
0.927218 
0.892784 
0.915740 
0.892784 
0.781831 
0.864274 
0.946717 
0.864274 
0.881307 
0.921110 
0.858535 
0.921110 
0.881307 
0.887046 
0.910001 
0.869829 
0.915556 
0.869829 
0.910001 
0.887046 
0.892784 
0.915740 
0.892784 
0.927218 
0.892784 
0.927218 
0.892784 
0.915740 
0.892784 
0.781831 
0.864274 
0.946717 
0.864274 
0.881307 
0.921110 
0.858535 
0.921110 
0.881307 
0.887046 
0.910001 
0.869829 
0.915556 
0.869829 
0.910001 
0.887046 
0.892784 
0.915740 
0.892784 
0.927218 
0.892784 
0.927218 
0.892784 
0.915740 
0.892784 
0.781831 
0.864274 
0.946717 
0.864274 
0.881307 
0.921110 
0.858535 
0.921110 
0.881307 
0.887046 
0.910001 
0.869829 
0.915556 
0.869829 
0.910001 
0.887046 
0.892784 
0.915740 
0.892784 
0.927218 
0.892784 
0.927218 
0.892784 
0.915740 
0.892784 
0.781831 
0.864274 
0.946717 
0.864274 
0.881307 
0.921110 
0.858535 
0.921110 
0.881307 
0.887046 
0.910001 
0.869829 
0.915556 
0.869829 
0.910001 
0.887046 
0.892784 
0.915740 
0.892784 
0.927218 
0.892784 
0.927218 
0.892784 
0.915740 
0.892784 
0.781831 
0.864274 
0.946717 
0.864274 
0.881307 
0.921110 
0.858535 
0.921110 
0.881307 
0.887046 
0.910001 
0.869829 
0.915556 
0.869829 
0.910001 
0.887046 
0.892784 
0.915740 
0.892784 
0.927218 
0.892784 
0.927218 
0.892784 
0.915740 
0.892784 
SCALARS DENSITY float 
LOOKUP_TABLE default 
200.164465 
200.167576 
200.228981 
200.093249 
199.944181 
199.889982 
199.961792 
200.014023 
199.992870 
200.023418 
200.024857 
200.023190 
199.990041 
200.017012 
199.997362 
200.018890 
200.059635 
200.048078 
200.015996 
200.018525 
200.019735 
200.018904 
200.019100 
200.019165 
200.011198 
198.273697 
199.570457 
200.096931 
200.172676 
200.136001 
201.125716 
200.024021 
200.162743 
200.149635 
200.279672 
200.802025 
200.216660 
200.097113 
200.162833 
200.064279 
200.017894 
201.339923 
201.462653 
200.841700 
200.035324 
200.111311 
200.157753 
200.007882 
200.044055 
200.063585 
196.646272 
195.191120 
198.356427 
199.582636 
197.635040 
201.907346 
201.827387 
201.387299 
198.991152 
199.902045 
197.909222 
200.178758 
198.915315 
198.696391 
198.965380 
199.410502 
207.998025 
268.889873 
242.580046 
221.364605 
200.105864 
198.433151 
205.526748 
203.211533 
202.879179 
196.568912 
205.530659 
193.518140 
205.530659 
196.258224 
208.191792 
212.688477 
208.191792 
196.258224 
173.877537 
164.990229 
154.856481 
167.083703 
154.856482 
164.990230 
173.877537 
2171.412640 
217.163454 
2528874.774813 
1186.036409 
59635991.897109 
1186.036411 
2528874.745643 
217.163454 
2171.412640 
196.646272 
199.582636 
198.356427 
195.191119 
198.991152 
201.387299 
201.827387 
201.907346 
197.635040 
199.410502 
198.965379 
198.696391 
198.915315 
200.178757 
197.909222 
199.902045 
202.879179 
203.211533 
205.526748 
198.433151 
200.105864 
221.364605 
242.580046 
268.889874 
207.998025 
198.273697 
200.172676 
200.096931 
199.570457 
200.149635 
200.162743 
200.024021 
201.125716 
200.136001 
200.017894 
200.064279 
200.162833 
200.097113 
200.216660 
200.802025 
200.279672 
200.063585 
200.044055 
200.007882 
200.157753 
200.111311 
200.035324 
200.841700 
201.462653 
201.339923 
200.164465 
200.093249 
200.228981 
200.167576 
199.992870 
200.014023 
199.961792 
199.889982 
199.944181 
200.018890 
199.997362 
200.017012 
199.990041 
200.023190 
200.024857 
200.023418 
200.011198 
200.019165 
200.019100 
200.018904 
200.019735 
200.018525 
200.015996 
200.048078 
200.059635 
SCALARS ELEM_i float 
LOOKUP_TABLE default 
166 
193 
166 
166 
193 
193 
194 
167 
167 
221 
194 
194 
194 
195 
167 
168 
221 
221 
222 
195 
195 
195 
195 
168 
168 
165 
192 
192 
193 
219 
192 
220 
193 
193 
219 
219 
219 
220 
220 
220 
221 
246 
246 
246 
247 
247 
247 
247 
221 
221 
165 
191 
192 
192 
191 
191 
191 
191 
219 
190 
190 
217 
218 
218 
218 
218 
216 
217 
217 
217 
217 
218 
245 
245 
245 
165 
164 
164 
164 
137 
164 
163 
164 
191 
136 
136 
163 
163 
163 
190 
190 
135 
135 
135 
162 
162 
162 
189 
189 
189 
165 
138 
138 
137 
111 
137 
137 
137 
137 
110 
110 
110 
110 
109 
136 
136 
83 
83 
83 
110 
109 
109 
109 
109 
108 
165 
139 
138 
138 
139 
139 
112 
138 
111 
113 
112 
112 
112 
111 
111 
111 
113 
113 
85 
85 
85 
85 
84 
84 
84 
166 
166 
166 
139 
167 
167 
140 
139 
139 
168 
167 
141 
140 
140 
140 
113 
168 
168 
141 
141 
141 
141 
114 
113 
113 
VECTORS VELOCITY float 
0.011161 -6.980558 0.000000 
0.011751 -6.950143 0.000000 
0.011800 -6.957021 0.000000 
0.001485 -6.939158 0.000000 
-0.000021 -6.934974 0.000000 
-0.000542 -6.934351 0.000000 
-0.000717 -6.935553 0.000000 
-0.001053 -6.934634 0.000000 
-0.000322 -6.936212 0.000000 
0.000278 -6.936398 0.000000 
0.000581 -6.936580 0.000000 
0.000581 -6.937600 0.000000 
0.000142 -6.937509 0.000000 
0.000236 -6.937961 0.000000 
0.000010 -6.938353 0.000000 
0.000038 -6.937976 0.000000 
-0.001014 -6.935973 0.000000 
-0.000251 -6.936641 0.000000 
-0.000335 -6.936505 0.000000 
0.000323 -6.937140 0.000000 
-0.000128 -6.936814 0.000000 
0.000000 -6.937176 0.000000 
-0.000155 -6.936820 0.000000 
-0.000008 -6.937223 0.000000 
-0.000028 -6.936795 0.000000 
0.029352 -6.987583 0.000000 
0.012549 -6.959615 0.000000 
0.028623 -6.974667 0.000000 
0.016252 -6.956271 0.000000 
0.000117 -6.946964 0.000000 
0.001229 -6.947782 0.000000 
0.003040 -6.934666 0.000000 
0.004836 -6.939783 0.000000 
0.001290 -6.935423 0.000000 
0.023340 -6.926228 0.000000 
0.011810 -6.933635 0.000000 
0.004995 -6.927062 0.000000 
0.002934 -6.931014 0.000000 
0.001262 -6.932083 0.000000 
0.000294 -6.934014 0.000000 
-0.000129 -6.935727 0.000000 
-0.064582 -6.896769 0.000000 
-0.018988 -6.910099 0.000000 
-0.029327 -6.908331 0.000000 
-0.008188 -6.919268 0.000000 
-0.010861 -6.922454 0.000000 
-0.002156 -6.930408 0.000000 
-0.002568 -6.934445 0.000000 
-0.000977 -6.935501 0.000000 
-0.001353 -6.935467 0.000000 
0.010327 -6.943321 0.000000 
-0.038677 -6.901725 0.000000 
-0.003420 -6.912440 0.000000 
-0.003066 -6.937095 0.000000 
0.074709 -7.254060 0.000000 
0.027142 -7.035269 0.000000 
0.076032 -6.899875 0.000000 
-0.019194 -6.947573 0.000000 
-0.010454 -6.955628 0.000000 
-0.020491 -6.549828 0.000000 
0.300904 -6.950312 0.000000 
0.296497 -6.673258 0.000000 
0.167722 -6.774194 0.000000 
0.018724 -6.795979 0.000000 
0.010812 -6.911549 0.000000 
0.027661 -6.925608 0.000000 
-1.367028 -6.211527 0.000000 
-0.734802 -6.395182 0.000000 
-1.139667 -6.849375 0.000000 
-0.360444 -6.725163 0.000000 
-0.599526 -6.760272 0.000000 
-0.183480 -6.712060 0.000000 
-0.262503 -6.798604 0.000000 
-0.067589 -6.863609 0.000000 
-0.092955 -6.894422 0.000000 
0.000000 -6.922160 0.000000 
0.036252 -7.060253 0.000000 
0.000000 -6.885565 0.000000 
-0.036252 -7.060253 0.000000 
0.061782 -7.745528 0.000000 
0.049119 -7.624875 0.000000 
0.000000 -7.878100 0.000000 
-0.049119 -7.624875 0.000000 
-0.061782 -7.745528 0.000000 
0.243123 -5.895833 0.000000 
0.137864 -6.491259 0.000000 
0.120746 -4.760988 0.000000 
0.000000 -6.019586 0.000000 
-0.120746 -4.760988 0.000000 
-0.137864 -6.491259 0.000000 
-0.243123 -5.895833 0.000000 
1.538422 -8.375660 0.000000 
0.723156 -4.292145 0.000000 
1.018901 -11.604436 0.000000 
0.165116 -4.098424 0.000000 
-0.000000 -15.907235 0.000000 
-0.165116 -4.098424 0.000000 
-1.018901 -11.604436 0.000000 
-0.723156 -4.292145 0.000000 
-1.538422 -8.375660 0.000000 
-0.010327 -6.943321 0.000000 
0.003066 -6.937095 0.000000 
0.003420 -6.912440 0.000000 
0.038677 -6.901725 0.000000 
0.010454 -6.955628 0.000000 
0.019194 -6.947573 0.000000 
-0.076032 -6.899875 0.000000 
-0.027142 -7.035269 0.000000 
-0.074709 -7.254060 0.000000 
-0.027661 -6.925608 0.000000 
-0.010812 -6.911549 0.000000 
-0.018724 -6.795979 0.000000 
-0.167722 -6.774194 0.000000 
-0.296497 -6.673258 0.000000 
-0.300904 -6.950312 0.000000 
0.020491 -6.549828 0.000000 
0.092955 -6.894422 0.000000 
0.067589 -6.863609 0.000000 
0.262503 -6.798604 0.000000 
0.183480 -6.712060 0.000000 
0.599526 -6.760272 0.000000 
0.360444 -6.725163 0.000000 
1.139667 -6.849375 0.000000 
0.734802 -6.395182 0.000000 
1.367028 -6.211527 0.000000 
-0.029352 -6.987583 0.000000 
-0.016252 -6.956271 0.000000 
-0.028623 -6.974667 0.000000 
-0.012549 -6.959615 0.000000 
-0.001290 -6.935423 0.000000 
-0.004836 -6.939783 0.000000 
-0.003040 -6.934666 0.000000 
-0.001229 -6.947782 0.000000 
-0.000117 -6.946964 0.000000 
0.000129 -6.935727 0.000000 
-0.000294 -6.934014 0.000000 
-0.001262 -6.932083 0.000000 
-0.002934 -6.931014 0.000000 
-0.004995 -6.927062 0.000000 
-0.011810 -6.933635 0.000000 
-0.023340 -6.926228 0.000000 
0.001353 -6.935467 0.000000 
0.000977 -6.935501 0.000000 
0.002568 -6.934445 0.000000 
0.002156 -6.930408 0.000000 
0.010861 -6.922454 0.000000 
0.008188 -6.919268 0.000000 
0.029327 -6.908331 0.000000 
0.018988 -6.910099 0.000000 
0.064582 -6.896769 0.000000 
-0.011161 -6.980558 0.000000 
-0.001485 -6.939158 0.000000 
-0.011800 -6.957021 0.000000 
-0.011751 -6.950143 0.000000 
0.000322 -6.936212 0.000000 
0.001053 -6.934634 0.000000 
0.000717 -6.935553 0.000000 
0.000542 -6.934351 0.000000 
0.000021 -6.934974 0.000000 
-0.000038 -6.937976 0.000000 
-0.000010 -6.938353 0.000000 
-0.000236 -6.937961 0.000000 
-0.000142 -6.937509 0.000000 
-0.000581 -6.937600 0.000000 
-0.000581 -6.936580 0.000000 
-0.000278 -6.936398 0.000000 
0.000028 -6.936795 0.000000 
0.000008 -6.937223 0.000000 
0.000155 -6.936820 0.000000 
-0.000000 -6.937176 0.000000 
0.000128 -6.936814 0.000000 
-0.000323 -6.937140 0.000000 
0.000335 -6.936505 0.000000 
0.000251 -6.936641 0.000000 
0.001014 -6.935973 0.000000 
TENSORS STRESS float 
-0.056959 -0.002692 0.000000 
0.000000 0.000187 0.000000 
0.000000 0.000000 0.000000 

0.405171 -0.034259 0.000000 
0.000000 0.424132 0.000000 
0.000000 0.000000 0.000000 

0.028341 -0.006862 0.000000 
0.000000 0.090033 0.000000 
0.000000 0.000000 0.000000 

0.203159 -0.003984 0.000000 
0.000000 0.263167 0.000000 
0.000000 0.000000 0.000000 

0.309126 -0.028119 0.000000 
0.000000 0.322530 0.000000 
0.000000 0.000000 0.000000 

0.487829 -0.033735 0.000000 
0.000000 0.515244 0.000000 
0.000000 0.000000 0.000000 

0.094291 -0.016402 0.000000 
0.000000 0.094054 0.000000 
0.000000 0.000000 0.000000 

-0.056318 -0.006281 0.000000 
0.000000 -0.036982 0.000000 
0.000000 0.000000 0.000000 

0.000059 -0.003034 0.000000 
0.000000 0.014411 0.000000 
0.000000 0.000000 0.000000 

-0.021371 -0.007329 0.000000 
0.000000 -0.037945 0.000000 
0.000000 0.000000 0.000000 
