# vtk DataFile Version 3.0 
vtk output 
ASCII 
DATASET UNSTRUCTURED_GRID 
POINTS 175 float 
-0.026328 -2.630738 0.000000 
-0.107463 -2.563277 0.000000 
-0.055144 -2.571729 0.000000 
-0.028897 -2.526171 0.000000 
-0.186380 -2.498932 0.000000 
-0.137154 -2.501871 0.000000 
-0.114375 -2.448719 0.000000 
-0.058479 -2.464554 0.000000 
-0.029447 -2.424483 0.000000 
-0.264630 -2.435095 0.000000 
-0.216351 -2.437010 0.000000 
-0.195754 -2.379860 0.000000 
-0.142626 -2.388873 0.000000 
-0.116087 -2.341734 0.000000 
-0.058820 -2.361613 0.000000 
-0.029422 -2.323556 0.000000 
-0.343537 -2.369884 0.000000 
-0.295939 -2.371179 0.000000 
-0.276962 -2.311786 0.000000 
-0.224987 -2.318821 0.000000 
-0.200785 -2.266695 0.000000 
-0.144987 -2.280707 0.000000 
-0.117129 -2.236426 0.000000 
-0.058821 -2.259587 0.000000 
-0.029488 -2.222303 0.000000 
-0.060037 -2.670278 0.000000 
-0.166344 -2.690547 0.000000 
-0.125580 -2.655763 0.000000 
-0.144064 -2.607694 0.000000 
-0.268791 -2.710646 0.000000 
-0.233885 -2.675777 0.000000 
-0.260015 -2.624136 0.000000 
-0.211005 -2.591533 0.000000 
-0.223557 -2.544242 0.000000 
-0.370085 -2.727167 0.000000 
-0.337000 -2.692634 0.000000 
-0.367042 -2.640533 0.000000 
-0.325018 -2.606558 0.000000 
-0.344245 -2.556412 0.000000 
-0.291666 -2.526029 0.000000 
-0.302487 -2.479560 0.000000 
-0.474005 -2.742726 0.000000 
-0.440507 -2.708867 0.000000 
-0.473852 -2.656930 0.000000 
-0.433869 -2.622791 0.000000 
-0.458319 -2.571557 0.000000 
-0.410753 -2.539063 0.000000 
-0.427338 -2.490124 0.000000 
-0.371445 -2.461054 0.000000 
-0.381319 -2.415051 0.000000 
-0.048871 -2.719699 0.000000 
-0.100829 -2.810626 0.000000 
-0.103971 -2.759503 0.000000 
-0.155351 -2.745222 0.000000 
-0.149591 -2.891898 0.000000 
-0.157282 -2.851465 0.000000 
-0.217238 -2.841831 0.000000 
-0.211957 -2.786528 0.000000 
-0.258133 -2.766969 0.000000 
-0.203158 -2.940673 0.000000 
-0.210101 -2.918813 0.000000 
-0.276514 -2.913131 0.000000 
-0.275310 -2.876362 0.000000 
-0.329863 -2.860135 0.000000 
-0.317370 -2.804248 0.000000 
-0.360857 -2.782569 0.000000 
-0.261040 -2.968302 0.000000 
-0.269451 -2.955760 0.000000 
-0.342849 -2.952722 0.000000 
-0.342026 -2.932220 0.000000 
-0.403787 -2.923931 0.000000 
-0.392816 -2.889785 0.000000 
-0.442025 -2.875591 0.000000 
-0.423949 -2.819536 0.000000 
-0.466497 -2.798127 0.000000 
-0.000000 -2.741243 0.000000 
0.046081 -2.834320 0.000000 
-0.000000 -2.805732 0.000000 
-0.046081 -2.834320 0.000000 
0.093244 -2.908573 0.000000 
0.046655 -2.893398 0.000000 
-0.000000 -2.916895 0.000000 
-0.046655 -2.893398 0.000000 
-0.093244 -2.908573 0.000000 
0.145659 -2.949986 0.000000 
0.096801 -2.942081 0.000000 
0.049720 -2.956490 0.000000 
-0.000000 -2.946359 0.000000 
-0.049720 -2.956490 0.000000 
-0.096801 -2.942081 0.000000 
-0.145659 -2.949986 0.000000 
0.199678 -2.973998 0.000000 
0.150089 -2.969424 0.000000 
0.102535 -2.978320 0.000000 
0.050959 -2.972984 0.000000 
-0.000000 -2.979708 0.000000 
-0.050959 -2.972984 0.000000 
-0.102535 -2.978320 0.000000 
-0.150089 -2.969424 0.000000 
-0.199679 -2.973998 0.000000 
0.048871 -2.719699 0.000000 
0.155351 -2.745222 0.000000 
0.103971 -2.759503 0.000000 
0.100829 -2.810626 0.000000 
0.258133 -2.766969 0.000000 
0.211957 -2.786528 0.000000 
0.217238 -2.841831 0.000000 
0.157282 -2.851465 0.000000 
0.149591 -2.891898 0.000000 
0.360857 -2.782569 0.000000 
0.317370 -2.804248 0.000000 
0.329863 -2.860135 0.000000 
0.275310 -2.876362 0.000000 
0.276514 -2.913131 0.000000 
0.210101 -2.918813 0.000000 
0.203158 -2.940673 0.000000 
0.466497 -2.798127 0.000000 
0.423949 -2.819536 0.000000 
0.442025 -2.875591 0.000000 
0.392816 -2.889785 0.000000 
0.403787 -2.923931 0.000000 
0.342026 -2.932220 0.000000 
0.342849 -2.952722 0.000000 
0.269451 -2.955760 0.000000 
0.261040 -2.968302 0.000000 
0.060037 -2.670278 0.000000 
0.144064 -2.607694 0.000000 
0.125580 -2.655763 0.000000 
0.166344 -2.690547 0.000000 
0.223557 -2.544242 0.000000 
0.211005 -2.591533 0.000000 
0.260015 -2.624136 0.000000 
0.233885 -2.675777 0.000000 
0.268791 -2.710646 0.000000 
0.302487 -2.479560 0.000000 
0.291666 -2.526029 0.000000 
0.344245 -2.556412 0.000000 
0.325018 -2.606558 0.000000 
0.367042 -2.640533 0.000000 
0.337000 -2.692634 0.000000 
0.370085 -2.727167 0.000000 
0.381319 -2.415051 0.000000 
0.371445 -2.461054 0.000000 
0.427338 -2.490124 0.000000 
0.410753 -2.539063 0.000000 
0.458319 -2.571557 0.000000 
0.433869 -2.622791 0.000000 
0.473852 -2.656930 0.000000 
0.440507 -2.708867 0.000000 
0.474005 -2.742726 0.000000 
0.026328 -2.630738 0.000000 
0.028897 -2.526171 0.000000 
0.055144 -2.571729 0.000000 
0.107463 -2.563277 0.000000 
0.029447 -2.424483 0.000000 
0.058479 -2.464554 0.000000 
0.114375 -2.448719 0.000000 
0.137154 -2.501871 0.000000 
0.186380 -2.498932 0.000000 
0.029422 -2.323556 0.000000 
0.058820 -2.361613 0.000000 
0.116087 -2.341734 0.000000 
0.142626 -2.388873 0.000000 
0.195754 -2.379860 0.000000 
0.216351 -2.437010 0.000000 
0.264630 -2.435095 0.000000 
0.029488 -2.222303 0.000000 
0.058821 -2.259587 0.000000 
0.117129 -2.236426 0.000000 
0.144987 -2.280707 0.000000 
0.200785 -2.266695 0.000000 
0.224987 -2.318821 0.000000 
0.276962 -2.311786 0.000000 
0.295939 -2.371179 0.000000 
0.343537 -2.369884 0.000000 
CELLS 175 350 
1 0 
1 1 
1 2 
1 3 
1 4 
1 5 
1 6 
1 7 
1 8 
1 9 
1 10 
1 11 
1 12 
1 13 
1 14 
1 15 
1 16 
1 17 
1 18 
1 19 
1 20 
1 21 
1 22 
1 23 
1 24 
1 25 
1 26 
1 27 
1 28 
1 29 
1 30 
1 31 
1 32 
1 33 
1 34 
1 35 
1 36 
1 37 
1 38 
1 39 
1 40 
1 41 
1 42 
1 43 
1 44 
1 45 
1 46 
1 47 
1 48 
1 49 
1 50 
1 51 
1 52 
1 53 
1 54 
1 55 
1 56 
1 57 
1 58 
1 59 
1 60 
1 61 
1 62 
1 63 
1 64 
1 65 
1 66 
1 67 
1 68 
1 69 
1 70 
1 71 
1 72 
1 73 
1 74 
1 75 
1 76 
1 77 
1 78 
1 79 
1 80 
1 81 
1 82 
1 83 
1 84 
1 85 
1 86 
1 87 
1 88 
1 89 
1 90 
1 91 
1 92 
1 93 
1 94 
1 95 
1 96 
1 97 
1 98 
1 99 
1 100 
1 101 
1 102 
1 103 
1 104 
1 105 
1 106 
1 107 
1 108 
1 109 
1 110 
1 111 
1 112 
1 113 
1 114 
1 115 
1 116 
1 117 
1 118 
1 119 
1 120 
1 121 
1 122 
1 123 
1 124 
1 125 
1 126 
1 127 
1 128 
1 129 
1 130 
1 131 
1 132 
1 133 
1 134 
1 135 
1 136 
1 137 
1 138 
1 139 
1 140 
1 141 
1 142 
1 143 
1 144 
1 145 
1 146 
1 147 
1 148 
1 149 
1 150 
1 151 
1 152 
1 153 
1 154 
1 155 
1 156 
1 157 
1 158 
1 159 
1 160 
1 161 
1 162 
1 163 
1 164 
1 165 
1 166 
1 167 
1 168 
1 169 
1 170 
1 171 
1 172 
1 173 
1 174 
CELL_TYPES 175 
1 
1 
1 
1 
1 
1 
1 
1 
1 
1 
1 
1 
1 
1 
1 
1 
1 
1 
1 
1 
1 
1 
1 
1 
1 
1 
1 
1 
1 
1 
1 
1 
1 
1 
1 
1 
1 
1 
1 
1 
1 
1 
1 
1 
1 
1 
1 
1 
1 
1 
1 
1 
1 
1 
1 
1 
1 
1 
1 
1 
1 
1 
1 
1 
1 
1 
1 
1 
1 
1 
1 
1 
1 
1 
1 
1 
1 
1 
1 
1 
1 
1 
1 
1 
1 
1 
1 
1 
1 
1 
1 
1 
1 
1 
1 
1 
1 
1 
1 
1 
1 
1 
1 
1 
1 
1 
1 
1 
1 
1 
1 
1 
1 
1 
1 
1 
1 
1 
1 
1 
1 
1 
1 
1 
1 
1 
1 
1 
1 
1 
1 
1 
1 
1 
1 
1 
1 
1 
1 
1 
1 
1 
1 
1 
1 
1 
1 
1 
1 
1 
1 
1 
1 
1 
1 
1 
1 
1 
1 
1 
1 
1 
1 
1 
1 
1 
1 
1 
1 
1 
1 
1 
1 
1 
1 
POINT_DATA 175 
VECTORS X_GC float 
-0.026328 -2.630738 0.000000 
-0.107463 -2.563277 0.000000 
-0.055144 -2.571729 0.000000 
-0.028897 -2.526171 0.000000 
-0.186380 -2.498932 0.000000 
-0.137154 -2.501871 0.000000 
-0.114375 -2.448719 0.000000 
-0.058479 -2.464554 0.000000 
-0.029447 -2.424483 0.000000 
-0.264630 -2.435095 0.000000 
-0.216351 -2.437010 0.000000 
-0.195754 -2.379860 0.000000 
-0.142626 -2.388873 0.000000 
-0.116087 -2.341734 0.000000 
-0.058820 -2.361613 0.000000 
-0.029422 -2.323556 0.000000 
-0.343537 -2.369884 0.000000 
-0.295939 -2.371179 0.000000 
-0.276962 -2.311786 0.000000 
-0.224987 -2.318821 0.000000 
-0.200785 -2.266695 0.000000 
-0.144987 -2.280707 0.000000 
-0.117129 -2.236426 0.000000 
-0.058821 -2.259587 0.000000 
-0.029488 -2.222303 0.000000 
-0.060037 -2.670278 0.000000 
-0.166344 -2.690547 0.000000 
-0.125580 -2.655763 0.000000 
-0.144064 -2.607694 0.000000 
-0.268791 -2.710646 0.000000 
-0.233885 -2.675777 0.000000 
-0.260015 -2.624136 0.000000 
-0.211005 -2.591533 0.000000 
-0.223557 -2.544242 0.000000 
-0.370085 -2.727167 0.000000 
-0.337000 -2.692634 0.000000 
-0.367042 -2.640533 0.000000 
-0.325018 -2.606558 0.000000 
-0.344245 -2.556412 0.000000 
-0.291666 -2.526029 0.000000 
-0.302487 -2.479560 0.000000 
-0.474005 -2.742726 0.000000 
-0.440507 -2.708867 0.000000 
-0.473852 -2.656930 0.000000 
-0.433869 -2.622791 0.000000 
-0.458319 -2.571557 0.000000 
-0.410753 -2.539063 0.000000 
-0.427338 -2.490124 0.000000 
-0.371445 -2.461054 0.000000 
-0.381319 -2.415051 0.000000 
-0.048871 -2.719699 0.000000 
-0.100829 -2.810626 0.000000 
-0.103971 -2.759503 0.000000 
-0.155351 -2.745222 0.000000 
-0.149591 -2.891898 0.000000 
-0.157282 -2.851465 0.000000 
-0.217238 -2.841831 0.000000 
-0.211957 -2.786528 0.000000 
-0.258133 -2.766969 0.000000 
-0.203158 -2.940673 0.000000 
-0.210101 -2.918813 0.000000 
-0.276514 -2.913131 0.000000 
-0.275310 -2.876362 0.000000 
-0.329863 -2.860135 0.000000 
-0.317370 -2.804248 0.000000 
-0.360857 -2.782569 0.000000 
-0.261040 -2.968302 0.000000 
-0.269451 -2.955760 0.000000 
-0.342849 -2.952722 0.000000 
-0.342026 -2.932220 0.000000 
-0.403787 -2.923931 0.000000 
-0.392816 -2.889785 0.000000 
-0.442025 -2.875591 0.000000 
-0.423949 -2.819536 0.000000 
-0.466497 -2.798127 0.000000 
-0.000000 -2.741243 0.000000 
0.046081 -2.834320 0.000000 
-0.000000 -2.805732 0.000000 
-0.046081 -2.834320 0.000000 
0.093244 -2.908573 0.000000 
0.046655 -2.893398 0.000000 
-0.000000 -2.916895 0.000000 
-0.046655 -2.893398 0.000000 
-0.093244 -2.908573 0.000000 
0.145659 -2.949986 0.000000 
0.096801 -2.942081 0.000000 
0.049720 -2.956490 0.000000 
-0.000000 -2.946359 0.000000 
-0.049720 -2.956490 0.000000 
-0.096801 -2.942081 0.000000 
-0.145659 -2.949986 0.000000 
0.199678 -2.973998 0.000000 
0.150089 -2.969424 0.000000 
0.102535 -2.978320 0.000000 
0.050959 -2.972984 0.000000 
-0.000000 -2.979708 0.000000 
-0.050959 -2.972984 0.000000 
-0.102535 -2.978320 0.000000 
-0.150089 -2.969424 0.000000 
-0.199679 -2.973998 0.000000 
0.048871 -2.719699 0.000000 
0.155351 -2.745222 0.000000 
0.103971 -2.759503 0.000000 
0.100829 -2.810626 0.000000 
0.258133 -2.766969 0.000000 
0.211957 -2.786528 0.000000 
0.217238 -2.841831 0.000000 
0.157282 -2.851465 0.000000 
0.149591 -2.891898 0.000000 
0.360857 -2.782569 0.000000 
0.317370 -2.804248 0.000000 
0.329863 -2.860135 0.000000 
0.275310 -2.876362 0.000000 
0.276514 -2.913131 0.000000 
0.210101 -2.918813 0.000000 
0.203158 -2.940673 0.000000 
0.466497 -2.798127 0.000000 
0.423949 -2.819536 0.000000 
0.442025 -2.875591 0.000000 
0.392816 -2.889785 0.000000 
0.403787 -2.923931 0.000000 
0.342026 -2.932220 0.000000 
0.342849 -2.952722 0.000000 
0.269451 -2.955760 0.000000 
0.261040 -2.968302 0.000000 
0.060037 -2.670278 0.000000 
0.144064 -2.607694 0.000000 
0.125580 -2.655763 0.000000 
0.166344 -2.690547 0.000000 
0.223557 -2.544242 0.000000 
0.211005 -2.591533 0.000000 
0.260015 -2.624136 0.000000 
0.233885 -2.675777 0.000000 
0.268791 -2.710646 0.000000 
0.302487 -2.479560 0.000000 
0.291666 -2.526029 0.000000 
0.344245 -2.556412 0.000000 
0.325018 -2.606558 0.000000 
0.367042 -2.640533 0.000000 
0.337000 -2.692634 0.000000 
0.370085 -2.727167 0.000000 
0.381319 -2.415051 0.000000 
0.371445 -2.461054 0.000000 
0.427338 -2.490124 0.000000 
0.410753 -2.539063 0.000000 
0.458319 -2.571557 0.000000 
0.433869 -2.622791 0.000000 
0.473852 -2.656930 0.000000 
0.440507 -2.708867 0.000000 
0.474005 -2.742726 0.000000 
0.026328 -2.630738 0.000000 
0.028897 -2.526171 0.000000 
0.055144 -2.571729 0.000000 
0.107463 -2.563277 0.000000 
0.029447 -2.424483 0.000000 
0.058479 -2.464554 0.000000 
0.114375 -2.448719 0.000000 
0.137154 -2.501871 0.000000 
0.186380 -2.498932 0.000000 
0.029422 -2.323556 0.000000 
0.058820 -2.361613 0.000000 
0.116087 -2.341734 0.000000 
0.142626 -2.388873 0.000000 
0.195754 -2.379860 0.000000 
0.216351 -2.437010 0.000000 
0.264630 -2.435095 0.000000 
0.029488 -2.222303 0.000000 
0.058821 -2.259587 0.000000 
0.117129 -2.236426 0.000000 
0.144987 -2.280707 0.000000 
0.200785 -2.266695 0.000000 
0.224987 -2.318821 0.000000 
0.276962 -2.311786 0.000000 
0.295939 -2.371179 0.000000 
0.343537 -2.369884 0.000000 
VECTORS X_EC float 
0.342262 0.014963 0.000000 
-0.602987 -0.895765 0.000000 
0.716871 -0.781662 0.000000 
0.375666 0.603308 0.000000 
0.422938 0.235584 0.000000 
-0.217001 0.275264 0.000000 
-0.513123 -0.442293 0.000000 
0.760222 -0.228521 0.000000 
0.382808 -0.769476 0.000000 
-0.559806 -0.626224 0.000000 
0.812565 -0.600369 0.000000 
0.544807 0.628103 0.000000 
-0.145859 0.749783 0.000000 
-0.490868 0.113405 0.000000 
0.764665 0.381774 0.000000 
0.382484 -0.131994 0.000000 
0.465978 0.493440 0.000000 
-0.152796 0.510918 0.000000 
-0.399488 -0.290894 0.000000 
0.924832 -0.195922 0.000000 
0.610209 -0.899619 0.000000 
-0.115175 -0.710461 0.000000 
-0.477322 0.691754 0.000000 
0.764672 -0.995573 0.000000 
0.383343 0.501094 0.000000 
0.780478 0.548747 0.000000 
0.162473 0.822383 0.000000 
-0.367460 0.352797 0.000000 
-0.127168 -0.296132 0.000000 
-0.505717 -0.906277 0.000000 
-0.959497 0.622991 0.000000 
-0.619810 -0.074160 0.000000 
0.743069 -0.514306 0.000000 
0.906246 0.847263 0.000000 
0.811106 -0.683243 0.000000 
0.380997 0.850558 0.000000 
0.771548 0.147200 0.000000 
0.225239 -0.311467 0.000000 
0.475183 -0.988438 0.000000 
-0.208340 0.601391 0.000000 
-0.067671 -0.025937 0.000000 
0.162069 -0.473197 0.000000 
-0.273409 -0.930300 0.000000 
0.160080 0.368556 0.000000 
-0.359709 -0.092326 0.000000 
-0.041850 -0.783980 0.000000 
-0.660208 0.777357 0.000000 
-0.444609 0.116670 0.000000 
0.828784 -0.275770 0.000000 
0.957142 -0.896813 0.000000 
0.635323 -0.784061 0.000000 
-0.689222 0.443451 0.000000 
-0.648374 -0.246708 0.000000 
0.019567 -0.439506 0.000000 
-0.055313 -0.459374 0.000000 
0.044668 0.994773 0.000000 
0.824093 0.864723 0.000000 
0.755439 0.118129 0.000000 
-0.644277 -0.145919 0.000000 
0.641057 0.199089 0.000000 
0.731310 -0.096024 0.000000 
-0.405317 -0.172729 0.000000 
-0.420964 -0.669112 0.000000 
0.288219 -0.888177 0.000000 
0.125816 0.357352 0.000000 
0.691142 0.064688 0.000000 
-0.606486 0.572076 0.000000 
-0.497133 0.402761 0.000000 
0.457042 0.361749 0.000000 
0.446333 0.084976 0.000000 
-0.750763 -0.026932 0.000000 
-0.893393 -0.487901 0.000000 
-0.253676 -0.679521 0.000000 
-0.488661 0.563740 0.000000 
0.064462 0.274708 0.000000 
0.000000 -0.493222 0.000000 
-0.599057 0.763327 0.000000 
0.000000 0.377378 0.000000 
0.599057 0.763327 0.000000 
0.787829 -0.234264 0.000000 
-0.606519 -0.439128 0.000000 
0.000000 -0.121922 0.000000 
0.606519 -0.439128 0.000000 
-0.787829 -0.234264 0.000000 
0.106434 0.324808 0.000000 
0.741587 0.218091 0.000000 
-0.646360 0.412613 0.000000 
0.000000 0.275845 0.000000 
0.646360 0.412613 0.000000 
-0.741587 0.218091 0.000000 
-0.106434 0.324808 0.000000 
-0.595820 0.648969 0.000000 
0.048842 0.587229 0.000000 
0.667046 0.707317 0.000000 
-0.662471 0.635280 0.000000 
0.000000 0.726065 0.000000 
0.662471 0.635280 0.000000 
-0.667046 0.707317 0.000000 
-0.048842 0.587229 0.000000 
0.595820 0.648969 0.000000 
-0.635323 -0.784061 0.000000 
-0.019567 -0.439506 0.000000 
0.648374 -0.246708 0.000000 
0.689222 0.443451 0.000000 
0.644277 -0.145919 0.000000 
-0.755439 0.118129 0.000000 
-0.824093 0.864723 0.000000 
-0.044668 0.994773 0.000000 
0.055313 -0.459374 0.000000 
-0.691142 0.064688 0.000000 
-0.125816 0.357352 0.000000 
-0.288219 -0.888177 0.000000 
0.420964 -0.669112 0.000000 
0.405317 -0.172729 0.000000 
-0.731310 -0.096024 0.000000 
-0.641057 0.199089 0.000000 
-0.064462 0.274708 0.000000 
0.488661 0.563740 0.000000 
0.253676 -0.679521 0.000000 
0.893393 -0.487901 0.000000 
0.750763 -0.026932 0.000000 
-0.446333 0.084976 0.000000 
-0.457042 0.361749 0.000000 
0.497133 0.402761 0.000000 
0.606486 0.572076 0.000000 
-0.780478 0.548747 0.000000 
0.127168 -0.296132 0.000000 
0.367460 0.352797 0.000000 
-0.162473 0.822383 0.000000 
-0.906246 0.847263 0.000000 
-0.743069 -0.514306 0.000000 
0.619810 -0.074160 0.000000 
0.959497 0.622991 0.000000 
0.505717 -0.906277 0.000000 
0.067671 -0.025937 0.000000 
0.208340 0.601391 0.000000 
-0.475183 -0.988438 0.000000 
-0.225239 -0.311467 0.000000 
-0.771548 0.147200 0.000000 
-0.380997 0.850558 0.000000 
-0.811106 -0.683243 0.000000 
-0.957142 -0.896813 0.000000 
-0.828784 -0.275770 0.000000 
0.444609 0.116670 0.000000 
0.660208 0.777357 0.000000 
0.041850 -0.783980 0.000000 
0.359709 -0.092326 0.000000 
-0.160080 0.368556 0.000000 
0.273409 -0.930300 0.000000 
-0.162069 -0.473197 0.000000 
-0.342262 0.014963 0.000000 
-0.375666 0.603308 0.000000 
-0.716871 -0.781662 0.000000 
0.602987 -0.895765 0.000000 
-0.382808 -0.769476 0.000000 
-0.760222 -0.228521 0.000000 
0.513123 -0.442293 0.000000 
0.217001 0.275264 0.000000 
-0.422938 0.235584 0.000000 
-0.382484 -0.131994 0.000000 
-0.764665 0.381774 0.000000 
0.490868 0.113405 0.000000 
0.145859 0.749783 0.000000 
-0.544807 0.628103 0.000000 
-0.812565 -0.600369 0.000000 
0.559806 -0.626224 0.000000 
-0.383343 0.501094 0.000000 
-0.764672 -0.995573 0.000000 
0.477322 0.691754 0.000000 
0.115175 -0.710461 0.000000 
-0.610209 -0.899619 0.000000 
-0.924832 -0.195922 0.000000 
0.399488 -0.290894 0.000000 
0.152796 0.510918 0.000000 
-0.465978 0.493440 0.000000 
CELL_DATA 175 
SCALARS MASS float 
LOOKUP_TABLE default 
0.781831 
0.864274 
0.946717 
0.864274 
0.881307 
0.921110 
0.858535 
0.921110 
0.881307 
0.887046 
0.910001 
0.869829 
0.915556 
0.869829 
0.910001 
0.887046 
0.892784 
0.915740 
0.892784 
0.927218 
0.892784 
0.927218 
0.892784 
0.915740 
0.892784 
0.781831 
0.864274 
0.946717 
0.864274 
0.881307 
0.921110 
0.858535 
0.921110 
0.881307 
0.887046 
0.910001 
0.869829 
0.915556 
0.869829 
0.910001 
0.887046 
0.892784 
0.915740 
0.892784 
0.927218 
0.892784 
0.927218 
0.892784 
0.915740 
0.892784 
0.781831 
0.864274 
0.946717 
0.864274 
0.881307 
0.921110 
0.858535 
0.921110 
0.881307 
0.887046 
0.910001 
0.869829 
0.915556 
0.869829 
0.910001 
0.887046 
0.892784 
0.915740 
0.892784 
0.927218 
0.892784 
0.927218 
0.892784 
0.915740 
0.892784 
0.781831 
0.864274 
0.946717 
0.864274 
0.881307 
0.921110 
0.858535 
0.921110 
0.881307 
0.887046 
0.910001 
0.869829 
0.915556 
0.869829 
0.910001 
0.887046 
0.892784 
0.915740 
0.892784 
0.927218 
0.892784 
0.927218 
0.892784 
0.915740 
0.892784 
0.781831 
0.864274 
0.946717 
0.864274 
0.881307 
0.921110 
0.858535 
0.921110 
0.881307 
0.887046 
0.910001 
0.869829 
0.915556 
0.869829 
0.910001 
0.887046 
0.892784 
0.915740 
0.892784 
0.927218 
0.892784 
0.927218 
0.892784 
0.915740 
0.892784 
0.781831 
0.864274 
0.946717 
0.864274 
0.881307 
0.921110 
0.858535 
0.921110 
0.881307 
0.887046 
0.910001 
0.869829 
0.915556 
0.869829 
0.910001 
0.887046 
0.892784 
0.915740 
0.892784 
0.927218 
0.892784 
0.927218 
0.892784 
0.915740 
0.892784 
0.781831 
0.864274 
0.946717 
0.864274 
0.881307 
0.921110 
0.858535 
0.921110 
0.881307 
0.887046 
0.910001 
0.869829 
0.915556 
0.869829 
0.910001 
0.887046 
0.892784 
0.915740 
0.892784 
0.927218 
0.892784 
0.927218 
0.892784 
0.915740 
0.892784 
SCALARS MASS float 
LOOKUP_TABLE default 
0.781831 
0.864274 
0.946717 
0.864274 
0.881307 
0.921110 
0.858535 
0.921110 
0.881307 
0.887046 
0.910001 
0.869829 
0.915556 
0.869829 
0.910001 
0.887046 
0.892784 
0.915740 
0.892784 
0.927218 
0.892784 
0.927218 
0.892784 
0.915740 
0.892784 
0.781831 
0.864274 
0.946717 
0.864274 
0.881307 
0.921110 
0.858535 
0.921110 
0.881307 
0.887046 
0.910001 
0.869829 
0.915556 
0.869829 
0.910001 
0.887046 
0.892784 
0.915740 
0.892784 
0.927218 
0.892784 
0.927218 
0.892784 
0.915740 
0.892784 
0.781831 
0.864274 
0.946717 
0.864274 
0.881307 
0.921110 
0.858535 
0.921110 
0.881307 
0.887046 
0.910001 
0.869829 
0.915556 
0.869829 
0.910001 
0.887046 
0.892784 
0.915740 
0.892784 
0.927218 
0.892784 
0.927218 
0.892784 
0.915740 
0.892784 
0.781831 
0.864274 
0.946717 
0.864274 
0.881307 
0.921110 
0.858535 
0.921110 
0.881307 
0.887046 
0.910001 
0.869829 
0.915556 
0.869829 
0.910001 
0.887046 
0.892784 
0.915740 
0.892784 
0.927218 
0.892784 
0.927218 
0.892784 
0.915740 
0.892784 
0.781831 
0.864274 
0.946717 
0.864274 
0.881307 
0.921110 
0.858535 
0.921110 
0.881307 
0.887046 
0.910001 
0.869829 
0.915556 
0.869829 
0.910001 
0.887046 
0.892784 
0.915740 
0.892784 
0.927218 
0.892784 
0.927218 
0.892784 
0.915740 
0.892784 
0.781831 
0.864274 
0.946717 
0.864274 
0.881307 
0.921110 
0.858535 
0.921110 
0.881307 
0.887046 
0.910001 
0.869829 
0.915556 
0.869829 
0.910001 
0.887046 
0.892784 
0.915740 
0.892784 
0.927218 
0.892784 
0.927218 
0.892784 
0.915740 
0.892784 
0.781831 
0.864274 
0.946717 
0.864274 
0.881307 
0.921110 
0.858535 
0.921110 
0.881307 
0.887046 
0.910001 
0.869829 
0.915556 
0.869829 
0.910001 
0.887046 
0.892784 
0.915740 
0.892784 
0.927218 
0.892784 
0.927218 
0.892784 
0.915740 
0.892784 
SCALARS DENSITY float 
LOOKUP_TABLE default 
351.247897 
183.864132 
226.319465 
261.743877 
177.913094 
166.624147 
210.971916 
190.522565 
206.739607 
181.313667 
267.161330 
217.348693 
204.448004 
206.748853 
171.581674 
210.688660 
204.937722 
178.078154 
220.002382 
251.132457 
215.902144 
205.118572 
199.327759 
212.050493 
215.085974 
97.493819 
173.510287 
295.327392 
176.158308 
91.401543 
459.024121 
169.365198 
189.467170 
183.086680 
510.147883 
245.143802 
385.010566 
201.422183 
261.889789 
167.969906 
222.877773 
180.913686 
307.914562 
265.155737 
187.550792 
257.613456 
197.000637 
231.883744 
305.983608 
279.808520 
312.716532 
274.858043 
214.978399 
308.235087 
50461.677711 
88.874261 
235.849085 
242.114077 
175.139272 
5421390547309310026666077061120.000000 
1374524035880.106689 
750792803.152371 
490.089471 
148.148034 
394.390931 
823.670009 
6687276731052110062419331252572146016664594930348867246838665785970233996355933342077536137824436224.000000 
-3013754491379667943220601589591055186793346905716024871356739372240076800.000000 
235493606792680248040220211869625327890626178041050562560.000000 
370169908339132071936.000000 
16549101449487692.000000 
80749.246478 
38459.531423 
413.713668 
252.112209 
299.254051 
292.113887 
115.201376 
292.113891 
953583463.330731 
132151.595000 
5715482227400.909180 
132151.596425 
953583439.470617 
439585835617493915382695172056127936154123508522156032.000000 
762641805353013582776389376933888.000000 
-173318403285082063814384088030554103842341547195887254312673693876101316608.000000 
212250737450945434124563137067529793437696.000000 
-173318407437954897935467348561454263003313216050174467928255192058990428160.000000 
762641870914286935556308995145728.000000 
439585964091810950047450479114916242231055122513788928.000000 
108112365306656886170891597038073127025837388275550642629259796629282191561631887520812416169377005568.000000 
3828357733996204156759627487955582833282824478316507969017351474125063386093368743439453168599040.000000 
-4368630213604350326777396326316460264606378526923706333418000302726204986831888597847415688259099389067264.000000 
9787055752686984632063395128195483260596067235522146980127555572038974200161771880246935468650790912.000000 
-5918788146765399637091534893890224329359466943861398380661798372175423617921902499030314925777508860862398464.000000 
9787055557388835456059136436138908983392632030247061331623292338419772363998675236637756335419555840.000000 
-4368629278108159438613497077223093350282496485904040674003156436846695083282601679037696681865419669110784.000000 
3828356503795353742276935454319991360552275591473223989038705745254884016566856318961783658250240.000000 
108112359243353127538148984024972734924929255557819101936035074530158222320390602739669479992212848640.000000 
312.716532 
308.235090 
214.978401 
274.858046 
175.139275 
242.114077 
235.849085 
88.874261 
50461.678162 
823.670005 
394.390930 
148.148033 
490.089463 
750792796.219597 
1374524023046.282227 
5421390423652246801597364961280.000000 
252.112213 
413.713681 
38459.533041 
80749.245797 
16549102036708084.000000 
370169908379122663424.000000 
235493616410718032476366313879263573215527040478645059584.000000 
-3013754591766891842509789311749482145068107938893524313760875924437336064.000000 
6687277169694605217746990772357933400228470468797269783271113338691412913745857659083225075455885312.000000 
97.493819 
176.158308 
295.327391 
173.510287 
183.086680 
189.467170 
169.365199 
459.024118 
91.401543 
222.877772 
167.969906 
261.889788 
201.422182 
385.010567 
245.143803 
510.147884 
279.808520 
305.983606 
231.883744 
197.000637 
257.613456 
187.550790 
265.155736 
307.914558 
180.913684 
351.247897 
261.743878 
226.319466 
183.864133 
206.739607 
190.522565 
210.971916 
166.624148 
177.913095 
210.688660 
171.581674 
206.748853 
204.448004 
217.348693 
267.161330 
181.313667 
215.085974 
212.050493 
199.327759 
205.118572 
215.902144 
251.132456 
220.002383 
178.078154 
204.937722 
SCALARS ELEM_i float 
LOOKUP_TABLE default 
164 
191 
164 
165 
192 
192 
192 
165 
165 
219 
192 
193 
193 
193 
166 
166 
220 
220 
220 
193 
193 
193 
194 
166 
167 
164 
191 
191 
191 
217 
218 
218 
191 
192 
217 
218 
218 
218 
218 
219 
219 
244 
244 
245 
245 
245 
246 
246 
219 
219 
163 
190 
190 
190 
189 
190 
190 
190 
217 
189 
189 
216 
216 
216 
217 
217 
216 
216 
216 
216 
243 
243 
243 
244 
244 
163 
163 
163 
163 
135 
162 
162 
162 
189 
135 
135 
162 
162 
162 
189 
189 
135 
135 
135 
162 
162 
162 
189 
189 
189 
163 
136 
136 
136 
109 
136 
136 
136 
135 
109 
109 
108 
108 
108 
135 
135 
82 
82 
81 
81 
81 
108 
108 
108 
108 
164 
137 
137 
137 
138 
137 
110 
110 
109 
111 
111 
110 
110 
110 
110 
109 
111 
111 
84 
84 
83 
83 
83 
82 
82 
164 
165 
164 
137 
165 
165 
138 
138 
138 
166 
166 
139 
139 
139 
138 
111 
167 
166 
140 
139 
139 
139 
112 
112 
112 
VECTORS VELOCITY float 
0.106983 -7.482357 0.000000 
-0.617730 -6.946267 0.000000 
-0.586823 -6.886923 0.000000 
-0.237168 -6.932241 0.000000 
-0.034302 -7.056931 0.000000 
-0.305611 -6.970734 0.000000 
-0.008331 -7.049772 0.000000 
-0.248022 -6.877788 0.000000 
0.118860 -6.975715 0.000000 
-0.006851 -7.206283 0.000000 
0.047108 -7.359023 0.000000 
0.038482 -7.198073 0.000000 
0.163341 -7.136633 0.000000 
0.216254 -7.209996 0.000000 
0.233944 -7.151278 0.000000 
0.132526 -7.318811 0.000000 
0.106096 -6.506789 0.000000 
0.039777 -6.804071 0.000000 
0.044610 -6.731268 0.000000 
-0.143662 -6.992675 0.000000 
-0.030572 -6.809780 0.000000 
0.042856 -7.063660 0.000000 
0.029788 -6.984439 0.000000 
0.052413 -7.244706 0.000000 
-0.010772 -6.935503 0.000000 
0.406999 -7.346191 0.000000 
-0.247163 -6.939579 0.000000 
0.199172 -7.281120 0.000000 
-0.160017 -6.982708 0.000000 
-0.794451 -6.597090 0.000000 
-0.743013 -6.801917 0.000000 
-0.257911 -6.818960 0.000000 
0.017423 -6.835542 0.000000 
0.106736 -7.088438 0.000000 
-0.822001 -6.824395 0.000000 
-0.671915 -6.681425 0.000000 
-0.437385 -6.746727 0.000000 
-0.285529 -6.828632 0.000000 
-0.234096 -7.251520 0.000000 
-0.054601 -7.141493 0.000000 
-0.020588 -7.144411 0.000000 
-0.927898 -5.251048 0.000000 
-0.687922 -5.805717 0.000000 
-0.683742 -5.518899 0.000000 
-0.573791 -6.223130 0.000000 
-0.408826 -6.524074 0.000000 
-0.326447 -6.971065 0.000000 
-0.192666 -6.564550 0.000000 
-0.168343 -6.892812 0.000000 
-0.041315 -6.462186 0.000000 
0.373922 -7.632249 0.000000 
-0.702301 -6.172154 0.000000 
0.017685 -6.738181 0.000000 
-0.171823 -6.995047 0.000000 
-0.251502 -4.466439 0.000000 
-0.218848 -5.230149 0.000000 
-0.086734 -5.287553 0.000000 
-0.613507 -6.276401 0.000000 
-0.814502 -6.739969 0.000000 
0.168891 -5.060935 0.000000 
0.391765 -4.162337 0.000000 
-0.191945 -4.137901 0.000000 
-0.448684 -4.492154 0.000000 
-0.405193 -5.240016 0.000000 
-0.469416 -6.479999 0.000000 
-0.551702 -6.946280 0.000000 
-1.072456 -15.688129 0.000000 
-0.396926 -9.972448 0.000000 
-3.203100 -13.727793 0.000000 
-1.818704 -7.317325 0.000000 
-3.068637 -6.941353 0.000000 
-0.512620 -5.261026 0.000000 
-2.650238 -6.136022 0.000000 
-1.216098 -6.087612 0.000000 
-1.861741 -5.727599 0.000000 
-0.000000 -7.391936 0.000000 
0.341353 -6.084604 0.000000 
-0.000000 -6.217623 0.000000 
-0.341353 -6.084604 0.000000 
0.062937 -5.472438 0.000000 
0.210348 -5.211570 0.000000 
0.000000 -5.639450 0.000000 
-0.210348 -5.211570 0.000000 
-0.062937 -5.472438 0.000000 
0.033650 -5.730626 0.000000 
-0.115660 -4.684135 0.000000 
0.164741 -5.919294 0.000000 
0.000000 -4.833670 0.000000 
-0.164741 -5.919294 0.000000 
0.115660 -4.684135 0.000000 
-0.033650 -5.730626 0.000000 
0.733421 -19.798264 0.000000 
0.138074 -11.238625 0.000000 
0.728781 -22.189958 0.000000 
0.009210 -11.385045 0.000000 
-0.000000 -26.329403 0.000000 
-0.009210 -11.385045 0.000000 
-0.728781 -22.189958 0.000000 
-0.138074 -11.238625 0.000000 
-0.733421 -19.798264 0.000000 
-0.373922 -7.632249 0.000000 
0.171823 -6.995047 0.000000 
-0.017685 -6.738181 0.000000 
0.702301 -6.172154 0.000000 
0.814502 -6.739969 0.000000 
0.613507 -6.276401 0.000000 
0.086734 -5.287553 0.000000 
0.218848 -5.230149 0.000000 
0.251502 -4.466439 0.000000 
0.551702 -6.946280 0.000000 
0.469416 -6.479999 0.000000 
0.405193 -5.240016 0.000000 
0.448684 -4.492154 0.000000 
0.191945 -4.137901 0.000000 
-0.391765 -4.162337 0.000000 
-0.168891 -5.060935 0.000000 
1.861741 -5.727599 0.000000 
1.216098 -6.087612 0.000000 
2.650238 -6.136022 0.000000 
0.512620 -5.261026 0.000000 
3.068637 -6.941353 0.000000 
1.818704 -7.317325 0.000000 
3.203100 -13.727793 0.000000 
0.396926 -9.972448 0.000000 
1.072456 -15.688129 0.000000 
-0.406999 -7.346191 0.000000 
0.160017 -6.982708 0.000000 
-0.199172 -7.281120 0.000000 
0.247163 -6.939579 0.000000 
-0.106736 -7.088438 0.000000 
-0.017423 -6.835542 0.000000 
0.257911 -6.818960 0.000000 
0.743013 -6.801917 0.000000 
0.794451 -6.597090 0.000000 
0.020588 -7.144411 0.000000 
0.054601 -7.141493 0.000000 
0.234096 -7.251520 0.000000 
0.285529 -6.828632 0.000000 
0.437385 -6.746727 0.000000 
0.671915 -6.681425 0.000000 
0.822001 -6.824395 0.000000 
0.041315 -6.462186 0.000000 
0.168343 -6.892812 0.000000 