# vtk DataFile Version 3.0 
vtk output 
ASCII 
DATASET UNSTRUCTURED_GRID 
POINTS 175 float 
-0.026062 -2.378947 0.000000 
-0.106993 -2.310894 0.000000 
-0.054871 -2.319127 0.000000 
-0.028809 -2.273245 0.000000 
-0.186430 -2.246820 0.000000 
-0.137056 -2.249347 0.000000 
-0.114310 -2.195700 0.000000 
-0.058186 -2.211365 0.000000 
-0.029377 -2.171188 0.000000 
-0.265318 -2.183665 0.000000 
-0.217198 -2.184464 0.000000 
-0.196633 -2.127168 0.000000 
-0.143120 -2.135877 0.000000 
-0.116563 -2.088609 0.000000 
-0.058945 -2.108254 0.000000 
-0.029568 -2.070134 0.000000 
-0.344206 -2.120509 0.000000 
-0.296791 -2.120502 0.000000 
-0.278030 -2.060560 0.000000 
-0.225992 -2.066426 0.000000 
-0.201664 -2.014309 0.000000 
-0.145749 -2.027783 0.000000 
-0.117890 -1.983440 0.000000 
-0.059328 -2.006146 0.000000 
-0.029759 -1.969080 0.000000 
-0.058561 -2.419697 0.000000 
-0.162228 -2.440539 0.000000 
-0.123294 -2.404921 0.000000 
-0.142918 -2.355940 0.000000 
-0.261854 -2.462684 0.000000 
-0.229093 -2.425665 0.000000 
-0.256856 -2.374437 0.000000 
-0.209614 -2.340326 0.000000 
-0.223063 -2.292754 0.000000 
-0.360436 -2.484974 0.000000 
-0.329796 -2.447863 0.000000 
-0.361765 -2.396069 0.000000 
-0.321590 -2.359662 0.000000 
-0.341987 -2.309430 0.000000 
-0.290702 -2.276633 0.000000 
-0.302189 -2.229899 0.000000 
-0.459013 -2.507273 0.000000 
-0.429444 -2.470205 0.000000 
-0.464597 -2.418176 0.000000 
-0.427562 -2.381151 0.000000 
-0.453139 -2.329638 0.000000 
-0.407740 -2.294325 0.000000 
-0.425038 -2.244898 0.000000 
-0.370772 -2.213269 0.000000 
-0.381316 -2.167042 0.000000 
-0.046964 -2.470528 0.000000 
-0.095308 -2.564598 0.000000 
-0.098879 -2.511933 0.000000 
-0.149407 -2.496718 0.000000 
-0.140115 -2.656285 0.000000 
-0.148626 -2.607583 0.000000 
-0.206002 -2.597307 0.000000 
-0.203192 -2.539108 0.000000 
-0.248776 -2.519953 0.000000 
-0.184553 -2.747026 0.000000 
-0.194175 -2.700104 0.000000 
-0.254684 -2.692769 0.000000 
-0.258009 -2.638674 0.000000 
-0.310007 -2.623298 0.000000 
-0.303574 -2.562769 0.000000 
-0.347287 -2.542613 0.000000 
-0.230013 -2.837320 0.000000 
-0.239918 -2.791432 0.000000 
-0.302310 -2.786756 0.000000 
-0.307626 -2.734855 0.000000 
-0.363773 -2.722774 0.000000 
-0.362930 -2.665267 0.000000 
-0.412326 -2.647981 0.000000 
-0.403106 -2.585851 0.000000 
-0.445789 -2.565284 0.000000 
-0.000000 -2.493150 0.000000 
0.043382 -2.589627 0.000000 
-0.000000 -2.559571 0.000000 
-0.043382 -2.589627 0.000000 
0.087106 -2.681822 0.000000 
0.043739 -2.658131 0.000000 
-0.000000 -2.696599 0.000000 
-0.043739 -2.658131 0.000000 
-0.087106 -2.681822 0.000000 
0.131262 -2.772675 0.000000 
0.087899 -2.751227 0.000000 
0.044565 -2.793862 0.000000 
-0.000000 -2.762857 0.000000 
-0.044565 -2.793862 0.000000 
-0.087899 -2.751227 0.000000 
-0.131262 -2.772675 0.000000 
0.176144 -2.863018 0.000000 
0.132784 -2.842979 0.000000 
0.089745 -2.885704 0.000000 
0.044841 -2.860989 0.000000 
-0.000000 -2.892906 0.000000 
-0.044841 -2.860989 0.000000 
-0.089745 -2.885704 0.000000 
-0.132784 -2.842979 0.000000 
-0.176144 -2.863018 0.000000 
0.046964 -2.470528 0.000000 
0.149407 -2.496718 0.000000 
0.098879 -2.511933 0.000000 
0.095308 -2.564598 0.000000 
0.248776 -2.519953 0.000000 
0.203192 -2.539108 0.000000 
0.206002 -2.597307 0.000000 
0.148626 -2.607583 0.000000 
0.140115 -2.656285 0.000000 
0.347287 -2.542613 0.000000 
0.303574 -2.562769 0.000000 
0.310007 -2.623298 0.000000 
0.258009 -2.638674 0.000000 
0.254684 -2.692769 0.000000 
0.194175 -2.700104 0.000000 
0.184553 -2.747026 0.000000 
0.445789 -2.565284 0.000000 
0.403106 -2.585851 0.000000 
0.412326 -2.647981 0.000000 
0.362930 -2.665267 0.000000 
0.363773 -2.722774 0.000000 
0.307626 -2.734855 0.000000 
0.302310 -2.786756 0.000000 
0.239918 -2.791432 0.000000 
0.230013 -2.837320 0.000000 
0.058561 -2.419697 0.000000 
0.142918 -2.355940 0.000000 
0.123294 -2.404921 0.000000 
0.162228 -2.440539 0.000000 
0.223063 -2.292754 0.000000 
0.209614 -2.340326 0.000000 
0.256856 -2.374437 0.000000 
0.229093 -2.425665 0.000000 
0.261854 -2.462684 0.000000 
0.302189 -2.229899 0.000000 
0.290702 -2.276633 0.000000 
0.341987 -2.309430 0.000000 
0.321590 -2.359662 0.000000 
0.361765 -2.396069 0.000000 
0.329796 -2.447863 0.000000 
0.360436 -2.484974 0.000000 
0.381316 -2.167042 0.000000 
0.370772 -2.213269 0.000000 
0.425038 -2.244898 0.000000 
0.407740 -2.294325 0.000000 
0.453139 -2.329638 0.000000 
0.427562 -2.381151 0.000000 
0.464597 -2.418176 0.000000 
0.429444 -2.470205 0.000000 
0.459013 -2.507273 0.000000 
0.026062 -2.378947 0.000000 
0.028809 -2.273245 0.000000 
0.054871 -2.319127 0.000000 
0.106993 -2.310894 0.000000 
0.029377 -2.171188 0.000000 
0.058186 -2.211365 0.000000 
0.114310 -2.195700 0.000000 
0.137056 -2.249347 0.000000 
0.186430 -2.246820 0.000000 
0.029568 -2.070134 0.000000 
0.058945 -2.108254 0.000000 
0.116563 -2.088609 0.000000 
0.143120 -2.135877 0.000000 
0.196633 -2.127168 0.000000 
0.217198 -2.184464 0.000000 
0.265318 -2.183665 0.000000 
0.029759 -1.969080 0.000000 
0.059328 -2.006146 0.000000 
0.117890 -1.983440 0.000000 
0.145749 -2.027783 0.000000 
0.201664 -2.014309 0.000000 
0.225992 -2.066426 0.000000 
0.278030 -2.060560 0.000000 
0.296791 -2.120502 0.000000 
0.344206 -2.120509 0.000000 
CELLS 175 350 
1 0 
1 1 
1 2 
1 3 
1 4 
1 5 
1 6 
1 7 
1 8 
1 9 
1 10 
1 11 
1 12 
1 13 
1 14 
1 15 
1 16 
1 17 
1 18 
1 19 
1 20 
1 21 
1 22 
1 23 
1 24 
1 25 
1 26 
1 27 
1 28 
1 29 
1 30 
1 31 
1 32 
1 33 
1 34 
1 35 
1 36 
1 37 
1 38 
1 39 
1 40 
1 41 
1 42 
1 43 
1 44 
1 45 
1 46 
1 47 
1 48 
1 49 
1 50 
1 51 
1 52 
1 53 
1 54 
1 55 
1 56 
1 57 
1 58 
1 59 
1 60 
1 61 
1 62 
1 63 
1 64 
1 65 
1 66 
1 67 
1 68 
1 69 
1 70 
1 71 
1 72 
1 73 
1 74 
1 75 
1 76 
1 77 
1 78 
1 79 
1 80 
1 81 
1 82 
1 83 
1 84 
1 85 
1 86 
1 87 
1 88 
1 89 
1 90 
1 91 
1 92 
1 93 
1 94 
1 95 
1 96 
1 97 
1 98 
1 99 
1 100 
1 101 
1 102 
1 103 
1 104 
1 105 
1 106 
1 107 
1 108 
1 109 
1 110 
1 111 
1 112 
1 113 
1 114 
1 115 
1 116 
1 117 
1 118 
1 119 
1 120 
1 121 
1 122 
1 123 
1 124 
1 125 
1 126 
1 127 
1 128 
1 129 
1 130 
1 131 
1 132 
1 133 
1 134 
1 135 
1 136 
1 137 
1 138 
1 139 
1 140 
1 141 
1 142 
1 143 
1 144 
1 145 
1 146 
1 147 
1 148 
1 149 
1 150 
1 151 
1 152 
1 153 
1 154 
1 155 
1 156 
1 157 
1 158 
1 159 
1 160 
1 161 
1 162 
1 163 
1 164 
1 165 
1 166 
1 167 
1 168 
1 169 
1 170 
1 171 
1 172 
1 173 
1 174 
CELL_TYPES 175 
1 
1 
1 
1 
1 
1 
1 
1 
1 
1 
1 
1 
1 
1 
1 
1 
1 
1 
1 
1 
1 
1 
1 
1 
1 
1 
1 
1 
1 
1 
1 
1 
1 
1 
1 
1 
1 
1 
1 
1 
1 
1 
1 
1 
1 
1 
1 
1 
1 
1 
1 
1 
1 
1 
1 
1 
1 
1 
1 
1 
1 
1 
1 
1 
1 
1 
1 
1 
1 
1 
1 
1 
1 
1 
1 
1 
1 
1 
1 
1 
1 
1 
1 
1 
1 
1 
1 
1 
1 
1 
1 
1 
1 
1 
1 
1 
1 
1 
1 
1 
1 
1 
1 
1 
1 
1 
1 
1 
1 
1 
1 
1 
1 
1 
1 
1 
1 
1 
1 
1 
1 
1 
1 
1 
1 
1 
1 
1 
1 
1 
1 
1 
1 
1 
1 
1 
1 
1 
1 
1 
1 
1 
1 
1 
1 
1 
1 
1 
1 
1 
1 
1 
1 
1 
1 
1 
1 
1 
1 
1 
1 
1 
1 
1 
1 
1 
1 
1 
1 
1 
1 
1 
1 
1 
1 
POINT_DATA 175 
VECTORS X_GC float 
-0.026062 -2.378947 0.000000 
-0.106993 -2.310894 0.000000 
-0.054871 -2.319127 0.000000 
-0.028809 -2.273245 0.000000 
-0.186430 -2.246820 0.000000 
-0.137056 -2.249347 0.000000 
-0.114310 -2.195700 0.000000 
-0.058186 -2.211365 0.000000 
-0.029377 -2.171188 0.000000 
-0.265318 -2.183665 0.000000 
-0.217198 -2.184464 0.000000 
-0.196633 -2.127168 0.000000 
-0.143120 -2.135877 0.000000 
-0.116563 -2.088609 0.000000 
-0.058945 -2.108254 0.000000 
-0.029568 -2.070134 0.000000 
-0.344206 -2.120509 0.000000 
-0.296791 -2.120502 0.000000 
-0.278030 -2.060560 0.000000 
-0.225992 -2.066426 0.000000 
-0.201664 -2.014309 0.000000 
-0.145749 -2.027783 0.000000 
-0.117890 -1.983440 0.000000 
-0.059328 -2.006146 0.000000 
-0.029759 -1.969080 0.000000 
-0.058561 -2.419697 0.000000 
-0.162228 -2.440539 0.000000 
-0.123294 -2.404921 0.000000 
-0.142918 -2.355940 0.000000 
-0.261854 -2.462684 0.000000 
-0.229093 -2.425665 0.000000 
-0.256856 -2.374437 0.000000 
-0.209614 -2.340326 0.000000 
-0.223063 -2.292754 0.000000 
-0.360436 -2.484974 0.000000 
-0.329796 -2.447863 0.000000 
-0.361765 -2.396069 0.000000 
-0.321590 -2.359662 0.000000 
-0.341987 -2.309430 0.000000 
-0.290702 -2.276633 0.000000 
-0.302189 -2.229899 0.000000 
-0.459013 -2.507273 0.000000 
-0.429444 -2.470205 0.000000 
-0.464597 -2.418176 0.000000 
-0.427562 -2.381151 0.000000 
-0.453139 -2.329638 0.000000 
-0.407740 -2.294325 0.000000 
-0.425038 -2.244898 0.000000 
-0.370772 -2.213269 0.000000 
-0.381316 -2.167042 0.000000 
-0.046964 -2.470528 0.000000 
-0.095308 -2.564598 0.000000 
-0.098879 -2.511933 0.000000 
-0.149407 -2.496718 0.000000 
-0.140115 -2.656285 0.000000 
-0.148626 -2.607583 0.000000 
-0.206002 -2.597307 0.000000 
-0.203192 -2.539108 0.000000 
-0.248776 -2.519953 0.000000 
-0.184553 -2.747026 0.000000 
-0.194175 -2.700104 0.000000 
-0.254684 -2.692769 0.000000 
-0.258009 -2.638674 0.000000 
-0.310007 -2.623298 0.000000 
-0.303574 -2.562769 0.000000 
-0.347287 -2.542613 0.000000 
-0.230013 -2.837320 0.000000 
-0.239918 -2.791432 0.000000 
-0.302310 -2.786756 0.000000 
-0.307626 -2.734855 0.000000 
-0.363773 -2.722774 0.000000 
-0.362930 -2.665267 0.000000 
-0.412326 -2.647981 0.000000 
-0.403106 -2.585851 0.000000 
-0.445789 -2.565284 0.000000 
-0.000000 -2.493150 0.000000 
0.043382 -2.589627 0.000000 
-0.000000 -2.559571 0.000000 
-0.043382 -2.589627 0.000000 
0.087106 -2.681822 0.000000 
0.043739 -2.658131 0.000000 
-0.000000 -2.696599 0.000000 
-0.043739 -2.658131 0.000000 
-0.087106 -2.681822 0.000000 
0.131262 -2.772675 0.000000 
0.087899 -2.751227 0.000000 
0.044565 -2.793862 0.000000 
-0.000000 -2.762857 0.000000 
-0.044565 -2.793862 0.000000 
-0.087899 -2.751227 0.000000 
-0.131262 -2.772675 0.000000 
0.176144 -2.863018 0.000000 
0.132784 -2.842979 0.000000 
0.089745 -2.885704 0.000000 
0.044841 -2.860989 0.000000 
-0.000000 -2.892906 0.000000 
-0.044841 -2.860989 0.000000 
-0.089745 -2.885704 0.000000 
-0.132784 -2.842979 0.000000 
-0.176144 -2.863018 0.000000 
0.046964 -2.470528 0.000000 
0.149407 -2.496718 0.000000 
0.098879 -2.511933 0.000000 
0.095308 -2.564598 0.000000 
0.248776 -2.519953 0.000000 
0.203192 -2.539108 0.000000 
0.206002 -2.597307 0.000000 
0.148626 -2.607583 0.000000 
0.140115 -2.656285 0.000000 
0.347287 -2.542613 0.000000 
0.303574 -2.562769 0.000000 
0.310007 -2.623298 0.000000 
0.258009 -2.638674 0.000000 
0.254684 -2.692769 0.000000 
0.194175 -2.700104 0.000000 
0.184553 -2.747026 0.000000 
0.445789 -2.565284 0.000000 
0.403106 -2.585851 0.000000 
0.412326 -2.647981 0.000000 
0.362930 -2.665267 0.000000 
0.363773 -2.722774 0.000000 
0.307626 -2.734855 0.000000 
0.302310 -2.786756 0.000000 
0.239918 -2.791432 0.000000 
0.230013 -2.837320 0.000000 
0.058561 -2.419697 0.000000 
0.142918 -2.355940 0.000000 
0.123294 -2.404921 0.000000 
0.162228 -2.440539 0.000000 
0.223063 -2.292754 0.000000 
0.209614 -2.340326 0.000000 
0.256856 -2.374437 0.000000 
0.229093 -2.425665 0.000000 
0.261854 -2.462684 0.000000 
0.302189 -2.229899 0.000000 
0.290702 -2.276633 0.000000 
0.341987 -2.309430 0.000000 
0.321590 -2.359662 0.000000 
0.361765 -2.396069 0.000000 
0.329796 -2.447863 0.000000 
0.360436 -2.484974 0.000000 
0.381316 -2.167042 0.000000 
0.370772 -2.213269 0.000000 
0.425038 -2.244898 0.000000 
0.407740 -2.294325 0.000000 
0.453139 -2.329638 0.000000 
0.427562 -2.381151 0.000000 
0.464597 -2.418176 0.000000 
0.429444 -2.470205 0.000000 
0.459013 -2.507273 0.000000 
0.026062 -2.378947 0.000000 
0.028809 -2.273245 0.000000 
0.054871 -2.319127 0.000000 
0.106993 -2.310894 0.000000 
0.029377 -2.171188 0.000000 
0.058186 -2.211365 0.000000 
0.114310 -2.195700 0.000000 
0.137056 -2.249347 0.000000 
0.186430 -2.246820 0.000000 
0.029568 -2.070134 0.000000 
0.058945 -2.108254 0.000000 
0.116563 -2.088609 0.000000 
0.143120 -2.135877 0.000000 
0.196633 -2.127168 0.000000 
0.217198 -2.184464 0.000000 
0.265318 -2.183665 0.000000 
0.029759 -1.969080 0.000000 
0.059328 -2.006146 0.000000 
0.117890 -1.983440 0.000000 
0.145749 -2.027783 0.000000 
0.201664 -2.014309 0.000000 
0.225992 -2.066426 0.000000 
0.278030 -2.060560 0.000000 
0.296791 -2.120502 0.000000 
0.344206 -2.120509 0.000000 
VECTORS X_EC float 
0.338800 0.615787 0.000000 
-0.609095 -0.302924 0.000000 
0.713317 -0.191785 0.000000 
0.374517 -0.811190 0.000000 
0.423588 0.832072 0.000000 
-0.218276 0.866180 0.000000 
-0.513964 0.141945 0.000000 
0.756416 0.353433 0.000000 
0.381899 -0.188959 0.000000 
-0.550865 -0.020529 0.000000 
0.823578 -0.009731 0.000000 
0.556235 -0.783229 0.000000 
-0.139443 -0.665661 0.000000 
-0.484676 0.696217 0.000000 
0.766286 0.961431 0.000000 
0.384386 0.446813 0.000000 
0.474680 -0.873126 0.000000 
-0.141712 -0.873221 0.000000 
-0.385606 0.317554 0.000000 
0.937897 0.396750 0.000000 
0.621632 -0.306828 0.000000 
-0.105264 -0.124930 0.000000 
-0.467428 -0.723554 0.000000 
0.771260 -0.417027 0.000000 
0.386873 -0.917415 0.000000 
0.761289 -0.834086 0.000000 
0.108969 -0.552726 0.000000 
-0.397177 0.966438 0.000000 
-0.142068 0.305190 0.000000 
-0.595901 -0.253768 0.000000 
0.978211 -0.753519 0.000000 
-0.660878 0.554900 0.000000 
0.724977 0.094406 0.000000 
0.899813 -0.547815 0.000000 
0.685671 0.047153 0.000000 
0.287352 -0.453853 0.000000 
0.702951 0.846934 0.000000 
0.180668 0.355442 0.000000 
0.445834 -0.322689 0.000000 
-0.220872 -0.765451 0.000000 
-0.071540 0.603631 0.000000 
-0.032833 0.348181 0.000000 
-0.417233 -0.152234 0.000000 
0.039766 -0.854626 0.000000 
-0.441694 0.645535 0.000000 
-0.109190 -0.049887 0.000000 
-0.699379 -0.526617 0.000000 
-0.474503 0.806120 0.000000 
0.820039 0.379137 0.000000 
0.957106 -0.244927 0.000000 
0.610535 -0.147870 0.000000 
-0.760996 -0.877929 0.000000 
-0.714567 0.411094 0.000000 
-0.057707 0.205688 0.000000 
-0.178503 0.359843 0.000000 
-0.067856 -0.297623 0.000000 
0.678023 -0.436354 0.000000 
0.641498 0.777958 0.000000 
-0.765911 0.519360 0.000000 
0.399190 -0.415148 0.000000 
0.524274 0.951409 0.000000 
-0.689104 0.852386 0.000000 
-0.645881 0.122095 0.000000 
0.030091 -0.085473 0.000000 
-0.053532 -0.902617 0.000000 
0.514736 0.825273 0.000000 
0.990170 0.803822 0.000000 
-0.881068 0.184332 0.000000 
-0.069967 0.121209 0.000000 
-0.000860 -0.579463 0.000000 
0.729049 -0.742549 0.000000 
0.718087 0.481111 0.000000 
-0.639758 0.247742 0.000000 
-0.759618 -0.591015 0.000000 
-0.204737 -0.868666 0.000000 
0.000000 0.157530 0.000000 
-0.563969 -0.540034 0.000000 
0.000000 -0.945798 0.000000 
0.563969 -0.540034 0.000000 
0.867621 0.704598 0.000000 
-0.568610 0.384765 0.000000 
0.000000 0.904092 0.000000 
0.568610 0.384765 0.000000 
-0.867621 0.704598 0.000000 
0.293599 -0.068888 0.000000 
0.857314 -0.358440 0.000000 
-0.579349 0.217136 0.000000 
0.000000 -0.201428 0.000000 
0.579349 0.217136 0.000000 
-0.857314 -0.358440 0.000000 
-0.293599 -0.068888 0.000000 
-0.289872 -0.849259 0.000000 
0.273813 0.880214 0.000000 
0.833320 -0.542998 0.000000 
-0.582934 -0.876646 0.000000 
0.000000 -0.445770 0.000000 
0.582934 -0.876646 0.000000 
-0.833320 -0.542998 0.000000 
-0.273813 0.880214 0.000000 
0.289872 -0.849259 0.000000 
-0.610535 -0.147870 0.000000 
0.057707 0.205689 0.000000 
0.714567 0.411094 0.000000 
0.760996 -0.877929 0.000000 
0.765911 0.519360 0.000000 
-0.641498 0.777958 0.000000 
-0.678023 -0.436354 0.000000 
0.067856 -0.297623 0.000000 
0.178503 0.359843 0.000000 
-0.514736 0.825273 0.000000 
0.053532 -0.902617 0.000000 
-0.030091 -0.085473 0.000000 
0.645881 0.122095 0.000000 
0.689104 0.852386 0.000000 
-0.524274 0.951409 0.000000 
-0.399190 -0.415148 0.000000 
0.204737 -0.868666 0.000000 
0.759618 -0.591015 0.000000 
0.639758 0.247742 0.000000 
-0.718087 0.481111 0.000000 
-0.729049 -0.742549 0.000000 
0.000860 -0.579463 0.000000 
0.069967 0.121209 0.000000 
0.881068 0.184332 0.000000 
-0.990170 0.803822 0.000000 
-0.761289 -0.834086 0.000000 
0.142068 0.305190 0.000000 
0.397177 0.966438 0.000000 
-0.108969 -0.552726 0.000000 
-0.899813 -0.547815 0.000000 
-0.724977 0.094406 0.000000 
0.660878 0.554900 0.000000 
-0.978211 -0.753519 0.000000 
0.595901 -0.253768 0.000000 
0.071540 0.603632 0.000000 
0.220872 -0.765451 0.000000 
-0.445834 -0.322689 0.000000 
-0.180668 0.355442 0.000000 
-0.702951 0.846934 0.000000 
-0.287352 -0.453853 0.000000 
-0.685671 0.047153 0.000000 
-0.957106 -0.244927 0.000000 
-0.820039 0.379137 0.000000 
0.474503 0.806120 0.000000 
0.699379 -0.526617 0.000000 
0.109190 -0.049887 0.000000 
0.441694 0.645535 0.000000 
-0.039766 -0.854626 0.000000 
0.417233 -0.152234 0.000000 
0.032833 0.348181 0.000000 
-0.338800 0.615787 0.000000 
-0.374517 -0.811190 0.000000 
-0.713317 -0.191785 0.000000 
0.609095 -0.302924 0.000000 
-0.381899 -0.188959 0.000000 
-0.756416 0.353433 0.000000 
0.513964 0.141945 0.000000 
0.218276 0.866180 0.000000 
-0.423588 0.832072 0.000000 
-0.384386 0.446813 0.000000 
-0.766286 0.961431 0.000000 
0.484676 0.696217 0.000000 
0.139443 -0.665661 0.000000 
-0.556235 -0.783229 0.000000 
-0.823578 -0.009731 0.000000 
0.550865 -0.020529 0.000000 
-0.386873 -0.917415 0.000000 
-0.771260 -0.417027 0.000000 
0.467428 -0.723554 0.000000 
0.105263 -0.124930 0.000000 
-0.621632 -0.306828 0.000000 
-0.937897 0.396750 0.000000 
0.385606 0.317554 0.000000 
0.141712 -0.873221 0.000000 
-0.474680 -0.873126 0.000000 
CELL_DATA 175 
SCALARS MASS float 
LOOKUP_TABLE default 
0.781831 
0.864274 
0.946717 
0.864274 
0.881307 
0.921110 
0.858535 
0.921110 
0.881307 
0.887046 
0.910001 
0.869829 
0.915556 
0.869829 
0.910001 
0.887046 
0.892784 
0.915740 
0.892784 
0.927218 
0.892784 
0.927218 
0.892784 
0.915740 
0.892784 
0.781831 
0.864274 
0.946717 
0.864274 
0.881307 
0.921110 
0.858535 
0.921110 
0.881307 
0.887046 
0.910001 
0.869829 
0.915556 
0.869829 
0.910001 
0.887046 
0.892784 
0.915740 
0.892784 
0.927218 
0.892784 
0.927218 
0.892784 
0.915740 
0.892784 
0.781831 
0.864274 
0.946717 
0.864274 
0.881307 
0.921110 
0.858535 
0.921110 
0.881307 
0.887046 
0.910001 
0.869829 
0.915556 
0.869829 
0.910001 
0.887046 
0.892784 
0.915740 
0.892784 
0.927218 
0.892784 
0.927218 
0.892784 
0.915740 
0.892784 
0.781831 
0.864274 
0.946717 
0.864274 
0.881307 
0.921110 
0.858535 
0.921110 
0.881307 
0.887046 
0.910001 
0.869829 
0.915556 
0.869829 
0.910001 
0.887046 
0.892784 
0.915740 
0.892784 
0.927218 
0.892784 
0.927218 
0.892784 
0.915740 
0.892784 
0.781831 
0.864274 
0.946717 
0.864274 
0.881307 
0.921110 
0.858535 
0.921110 
0.881307 
0.887046 
0.910001 
0.869829 
0.915556 
0.869829 
0.910001 
0.887046 
0.892784 
0.915740 
0.892784 
0.927218 
0.892784 
0.927218 
0.892784 
0.915740 
0.892784 
0.781831 
0.864274 
0.946717 
0.864274 
0.881307 
0.921110 
0.858535 
0.921110 
0.881307 
0.887046 
0.910001 
0.869829 
0.915556 
0.869829 
0.910001 
0.887046 
0.892784 
0.915740 
0.892784 
0.927218 
0.892784 
0.927218 
0.892784 
0.915740 
0.892784 
0.781831 
0.864274 
0.946717 
0.864274 
0.881307 
0.921110 
0.858535 
0.921110 
0.881307 
0.887046 
0.910001 
0.869829 
0.915556 
0.869829 
0.910001 
0.887046 
0.892784 
0.915740 
0.892784 
0.927218 
0.892784 
0.927218 
0.892784 
0.915740 
0.892784 
SCALARS MASS float 
LOOKUP_TABLE default 
0.781831 
0.864274 
0.946717 
0.864274 
0.881307 
0.921110 
0.858535 
0.921110 
0.881307 
0.887046 
0.910001 
0.869829 
0.915556 
0.869829 
0.910001 
0.887046 
0.892784 
0.915740 
0.892784 
0.927218 
0.892784 
0.927218 
0.892784 
0.915740 
0.892784 
0.781831 
0.864274 
0.946717 
0.864274 
0.881307 
0.921110 
0.858535 
0.921110 
0.881307 
0.887046 
0.910001 
0.869829 
0.915556 
0.869829 
0.910001 
0.887046 
0.892784 
0.915740 
0.892784 
0.927218 
0.892784 
0.927218 
0.892784 
0.915740 
0.892784 
0.781831 
0.864274 
0.946717 
0.864274 
0.881307 
0.921110 
0.858535 
0.921110 
0.881307 
0.887046 
0.910001 
0.869829 
0.915556 
0.869829 
0.910001 
0.887046 
0.892784 
0.915740 
0.892784 
0.927218 
0.892784 
0.927218 
0.892784 
0.915740 
0.892784 
0.781831 
0.864274 
0.946717 
0.864274 
0.881307 
0.921110 
0.858535 
0.921110 
0.881307 
0.887046 
0.910001 
0.869829 
0.915556 
0.869829 
0.910001 
0.887046 
0.892784 
0.915740 
0.892784 
0.927218 
0.892784 
0.927218 
0.892784 
0.915740 
0.892784 
0.781831 
0.864274 
0.946717 
0.864274 
0.881307 
0.921110 
0.858535 
0.921110 
0.881307 
0.887046 
0.910001 
0.869829 
0.915556 
0.869829 
0.910001 
0.887046 
0.892784 
0.915740 
0.892784 
0.927218 
0.892784 
0.927218 
0.892784 
0.915740 
0.892784 
0.781831 
0.864274 
0.946717 
0.864274 
0.881307 
0.921110 
0.858535 
0.921110 
0.881307 
0.887046 
0.910001 
0.869829 
0.915556 
0.869829 
0.910001 
0.887046 
0.892784 
0.915740 
0.892784 
0.927218 
0.892784 
0.927218 
0.892784 
0.915740 
0.892784 
0.781831 
0.864274 
0.946717 
0.864274 
0.881307 
0.921110 
0.858535 
0.921110 
0.881307 
0.887046 
0.910001 
0.869829 
0.915556 
0.869829 
0.910001 
0.887046 
0.892784 
0.915740 
0.892784 
0.927218 
0.892784 
0.927218 
0.892784 
0.915740 
0.892784 
SCALARS DENSITY float 
LOOKUP_TABLE default 
200.093172 
200.136205 
200.123661 
200.055321 
200.001091 
199.998119 
199.997060 
199.998392 
199.997269 
200.003288 
200.003287 
200.002457 
199.999303 
200.002851 
200.003417 
200.003441 
200.005038 
200.004207 
200.002724 
200.002507 
200.002819 
200.002986 
200.002869 
200.003481 
200.000517 
199.784046 
199.792355 
200.132872 
200.127828 
200.110138 
200.197857 
200.086487 
200.111644 
200.106563 
200.109618 
200.225979 
200.063906 
200.074694 
200.074449 
200.044255 
200.002818 
200.350817 
200.357138 
200.122800 
200.052954 
200.050668 
200.059624 
200.000559 
200.006144 
200.008443 
199.196832 
199.123249 
199.339064 
199.691785 
201.074150 
202.350153 
200.977302 
200.059368 
199.878496 
197.748261 
198.148598 
202.349632 
201.340834 
200.742992 
199.710460 
199.876473 
200.282863 
221.290560 
214.622930 
208.309277 
202.329045 
201.182872 
200.954803 
200.369296 
200.424579 
199.243531 
205.326034 
199.333578 
205.326034 
201.827891 
205.452007 
205.070297 
205.452007 
201.827891 
187.134820 
181.237664 
172.903126 
178.425020 
172.903126 
181.237664 
187.134820 
261.556312 
183.466187 
9029.843766 
195.641632 
59610.816078 
195.641632 
9029.843730 
183.466188 
261.556313 
199.196832 
199.691785 
199.339064 
199.123249 
199.878496 
200.059368 
200.977302 
202.350153 
201.074150 
199.876473 
199.710460 
200.742992 
201.340834 
202.349632 
198.148598 
197.748261 
200.424579 
200.369296 
200.954803 
201.182872 
202.329045 
208.309277 
214.622931 
221.290560 
200.282863 
199.784046 
200.127828 
200.132872 
199.792355 
200.106563 
200.111644 
200.086487 
200.197857 
200.110138 
200.002818 
200.044255 
200.074449 
200.074694 
200.063906 
200.225979 
200.109618 
200.008443 
200.006144 
200.000559 
200.059624 
200.050668 
200.052954 
200.122800 
200.357138 
200.350817 
200.093172 
200.055321 
200.123661 
200.136205 
199.997269 
199.998392 
199.997060 
199.998119 
200.001091 
200.003441 
200.003417 
200.002851 
199.999303 
200.002457 
200.003287 
200.003288 
200.000517 
200.003481 
200.002869 
200.002986 
200.002819 
200.002507 
200.002724 
200.004207 
200.005038 
SCALARS ELEM_i float 
LOOKUP_TABLE default 
166 
193 
166 
166 
194 
194 
194 
167 
167 
221 
194 
194 
194 
195 
168 
168 
221 
221 
222 
195 
195 
195 
195 
168 
168 
165 
192 
193 
193 
219 
192 
220 
193 
193 
219 
219 
220 
220 
220 
220 
221 
246 
246 
246 
247 
247 
247 
248 
221 
221 
165 
191 
192 
192 
191 
191 
191 
192 
219 
190 
191 
218 
218 
218 
218 
219 
190 
217 
217 
217 
217 
218 
245 
245 
245 
165 
164 
164 
164 
137 
164 
164 
164 
191 
136 
136 
163 
163 
163 
190 
190 
135 
136 
135 
162 
162 
162 
189 
190 
189 
165 
138 
138 
137 
111 
138 
137 
137 
137 
111 
110 
110 
110 
110 
137 
136 
83 
83 
83 
110 
109 
109 
109 
109 
136 
165 
139 
139 
138 
139 
139 
112 
138 
111 
113 
112 
112 
112 
112 
111 
111 
113 
113 
86 
85 
85 
85 
84 
84 
84 
166 
166 
166 
139 
167 
167 
140 
140 
140 
168 
168 
141 
140 
140 
140 
113 
168 
168 
141 
141 
141 
141 
114 
113 
113 
VECTORS VELOCITY float 
0.002010 -6.921255 0.000000 
0.001901 -6.910317 0.000000 
0.001960 -6.912289 0.000000 
0.000115 -6.905602 0.000000 
-0.000516 -6.905679 0.000000 
-0.000343 -6.905424 0.000000 
-0.000143 -6.906569 0.000000 
-0.000064 -6.906108 0.000000 
-0.000018 -6.907096 0.000000 
-0.000312 -6.907076 0.000000 
-0.000283 -6.906990 0.000000 
0.000024 -6.908079 0.000000 
-0.000016 -6.907939 0.000000 
0.000012 -6.908254 0.000000 
0.000003 -6.908326 0.000000 
0.000000 -6.908250 0.000000 
-0.000138 -6.907993 0.000000 
-0.000055 -6.908056 0.000000 
-0.000061 -6.908060 0.000000 
0.000013 -6.908138 0.000000 
-0.000041 -6.908087 0.000000 
-0.000017 -6.908132 0.000000 
-0.000030 -6.908067 0.000000 
-0.000005 -6.908122 0.000000 
-0.000004 -6.908056 0.000000 
0.004741 -6.924431 0.000000 
0.000091 -6.909943 0.000000 
0.005908 -6.921009 0.000000 
0.003280 -6.914140 0.000000 
-0.000754 -6.904153 0.000000 
0.002671 -6.911988 0.000000 
0.001562 -6.909358 0.000000 
0.001375 -6.909521 0.000000 
-0.000171 -6.906573 0.000000 
-0.002152 -6.898982 0.000000 
0.000136 -6.904873 0.000000 
0.000575 -6.906550 0.000000 
0.000624 -6.907349 0.000000 
-0.000147 -6.906409 0.000000 
-0.000572 -6.905973 0.000000 
-0.000524 -6.906424 0.000000 
-0.016546 -6.897648 0.000000 
-0.007693 -6.900182 0.000000 
-0.006403 -6.902536 0.000000 
-0.002718 -6.904477 0.000000 
-0.003321 -6.904677 0.000000 
-0.001104 -6.905891 0.000000 
-0.001195 -6.906364 0.000000 
-0.000429 -6.906869 0.000000 
-0.000311 -6.907439 0.000000 
-0.008786 -6.885615 0.000000 
-0.048519 -6.823260 0.000000 
-0.028152 -6.857456 0.000000 
-0.015434 -6.879779 0.000000 
0.065665 -7.136498 0.000000 
0.011867 -6.956540 0.000000 
0.032989 -6.887805 0.000000 
-0.014760 -6.877830 0.000000 
-0.006217 -6.892866 0.000000 
0.068926 -6.888871 0.000000 
0.201977 -7.030592 0.000000 
0.170225 -6.846727 0.000000 
0.085891 -6.859904 0.000000 
-0.004306 -6.857091 0.000000 
-0.008194 -6.885342 0.000000 
-0.005738 -6.890981 0.000000 
-1.025307 -6.629658 0.000000 
-0.513140 -6.759128 0.000000 
-0.564473 -6.972846 0.000000 
-0.106172 -6.861476 0.000000 
-0.236632 -6.832163 0.000000 
-0.126074 -6.823850 0.000000 
-0.135633 -6.847436 0.000000 
-0.039425 -6.877366 0.000000 
-0.022868 -6.892561 0.000000 
0.000000 -6.866877 0.000000 
0.027936 -6.922580 0.000000 
0.000000 -6.812971 0.000000 
-0.027936 -6.922580 0.000000 
-0.024764 -7.441357 0.000000 
0.002668 -7.338876 0.000000 
0.000000 -7.572783 0.000000 
-0.002668 -7.338876 0.000000 
0.024764 -7.441357 0.000000 
-0.046807 -6.556596 0.000000 
-0.156129 -6.977946 0.000000 
-0.156906 -5.913623 0.000000 
0.000000 -6.698262 0.000000 
0.156906 -5.913623 0.000000 
0.156129 -6.977946 0.000000 
0.046807 -6.556596 0.000000 
0.774315 -6.434655 0.000000 
0.150306 -5.377555 0.000000 
0.231318 -9.224129 0.000000 
-0.255601 -4.412216 0.000000 
-0.000000 -13.340459 0.000000 
0.255601 -4.412216 0.000000 
-0.231318 -9.224129 0.000000 
-0.150306 -5.377555 0.000000 
-0.774315 -6.434655 0.000000 
0.008786 -6.885615 0.000000 
0.015434 -6.879779 0.000000 
0.028152 -6.857456 0.000000 
0.048519 -6.823260 0.000000 
0.006217 -6.892866 0.000000 
0.014760 -6.877830 0.000000 
-0.032989 -6.887805 0.000000 
-0.011867 -6.956540 0.000000 
-0.065665 -7.136498 0.000000 
0.005738 -6.890981 0.000000 
0.008194 -6.885342 0.000000 
0.004306 -6.857091 0.000000 
-0.085891 -6.859904 0.000000 
-0.170225 -6.846727 0.000000 
-0.201977 -7.030592 0.000000 
-0.068926 -6.888871 0.000000 
0.022868 -6.892561 0.000000 
0.039425 -6.877366 0.000000 
0.135633 -6.847436 0.000000 
0.126074 -6.823850 0.000000 
0.236632 -6.832163 0.000000 
0.106172 -6.861476 0.000000 
0.564473 -6.972846 0.000000 
0.513140 -6.759128 0.000000 
1.025307 -6.629658 0.000000 
-0.004741 -6.924431 0.000000 
-0.003280 -6.914140 0.000000 
-0.005908 -6.921009 0.000000 
-0.000091 -6.909943 0.000000 
0.000171 -6.906573 0.000000 
-0.001375 -6.909521 0.000000 
-0.001562 -6.909358 0.000000 
-0.002671 -6.911988 0.000000 
0.000754 -6.904153 0.000000 
0.000524 -6.906424 0.000000 
0.000572 -6.905973 0.000000 
0.000147 -6.906409 0.000000 
-0.000624 -6.907349 0.000000 
-0.000575 -6.906550 0.000000 
-0.000136 -6.904873 0.000000 
0.002152 -6.898982 0.000000 
0.000311 -6.907439 0.000000 
0.000429 -6.906869 0.000000 
0.001195 -6.906364 0.000000 
0.001104 -6.905891 0.000000 
0.003321 -6.904677 0.000000 
0.002718 -6.904477 0.000000 
0.006403 -6.902536 0.000000 
0.007693 -6.900182 0.000000 
0.016546 -6.897648 0.000000 
-0.002010 -6.921255 0.000000 
-0.000115 -6.905602 0.000000 
-0.001960 -6.912289 0.000000 
-0.001901 -6.910317 0.000000 
0.000018 -6.907096 0.000000 
0.000064 -6.906108 0.000000 
0.000143 -6.906569 0.000000 
0.000343 -6.905424 0.000000 
0.000516 -6.905679 0.000000 
-0.000000 -6.908250 0.000000 
-0.000003 -6.908326 0.000000 
-0.000012 -6.908254 0.000000 
0.000016 -6.907939 0.000000 
-0.000024 -6.908079 0.000000 
0.000283 -6.906990 0.000000 
0.000312 -6.907076 0.000000 
0.000004 -6.908056 0.000000 
0.000005 -6.908122 0.000000 
0.000030 -6.908067 0.000000 
0.000017 -6.908132 0.000000 
0.000041 -6.908087 0.000000 
-0.000013 -6.908138 0.000000 
0.000061 -6.908060 0.000000 
0.000055 -6.908056 0.000000 
0.000138 -6.907993 0.000000 
TENSORS STRESS float 
-0.115991 0.002462 0.000000 
0.000000 -0.144577 0.000000 
0.000000 0.000000 0.000000 

-0.247714 0.006662 0.000000 
0.000000 -0.267974 0.000000 
0.000000 0.000000 0.000000 

-0.229388 0.006277 0.000000 
0.000000 -0.257155 0.000000 
0.000000 0.000000 0.000000 

-0.162674 0.002317 0.000000 
0.000000 -0.174343 0.000000 
0.000000 0.000000 0.000000 

-0.001097 -0.002500 0.000000 
0.000000 -0.002406 0.000000 
0.000000 0.000000 0.000000 

0.009228 -0.002812 0.000000 
0.000000 0.008709 0.000000 
0.000000 0.000000 0.000000 

0.010973 -0.001820 0.000000 
0.000000 0.011013 0.000000 
0.000000 0.000000 0.000000 

0.001262 -0.000624 0.000000 
0.000000 0.003360 0.000000 
0.000000 0.000000 0.000000 

0.006569 -0.000302 0.000000 
0.000000 0.008164 0.000000 
0.000000 0.000000 0.000000 

-0.009147 -0.000938 0.000000 
0.000000 -0.011938 0.000000 
0.000000 0.000000 0.000000 

-0.009969 -0.001418 0.000000 