# vtk DataFile Version 3.0 
vtk output 
ASCII 
DATASET UNSTRUCTURED_GRID 
POINTS 175 float 
-0.026061 -0.960003 0.000000 
-0.106992 -0.891947 0.000000 
-0.054870 -0.900180 0.000000 
-0.028809 -0.854296 0.000000 
-0.186430 -0.827872 0.000000 
-0.137056 -0.830398 0.000000 
-0.114311 -0.776751 0.000000 
-0.058186 -0.792416 0.000000 
-0.029377 -0.752239 0.000000 
-0.265318 -0.764716 0.000000 
-0.217198 -0.765516 0.000000 
-0.196633 -0.708219 0.000000 
-0.143120 -0.716928 0.000000 
-0.116563 -0.669659 0.000000 
-0.058945 -0.689305 0.000000 
-0.029568 -0.651185 0.000000 
-0.344206 -0.701560 0.000000 
-0.296791 -0.701553 0.000000 
-0.278030 -0.641610 0.000000 
-0.225992 -0.647476 0.000000 
-0.201664 -0.595359 0.000000 
-0.145749 -0.608833 0.000000 
-0.117890 -0.564491 0.000000 
-0.059328 -0.587197 0.000000 
-0.029759 -0.550131 0.000000 
-0.058559 -1.000753 0.000000 
-0.162226 -1.021596 0.000000 
-0.123292 -0.985978 0.000000 
-0.142917 -0.936995 0.000000 
-0.261851 -1.043752 0.000000 
-0.229092 -1.006725 0.000000 
-0.256854 -0.955494 0.000000 
-0.209613 -0.921381 0.000000 
-0.223062 -0.873807 0.000000 
-0.360414 -1.066053 0.000000 
-0.329787 -1.028930 0.000000 
-0.361761 -0.977128 0.000000 
-0.321587 -0.940719 0.000000 
-0.341985 -0.890485 0.000000 
-0.290702 -0.857686 0.000000 
-0.302189 -0.810951 0.000000 
-0.458977 -1.088353 0.000000 
-0.429420 -1.051278 0.000000 
-0.464588 -0.999236 0.000000 
-0.427556 -0.962209 0.000000 
-0.453135 -0.910694 0.000000 
-0.407738 -0.875379 0.000000 
-0.425037 -0.825951 0.000000 
-0.370772 -0.794321 0.000000 
-0.381315 -0.748094 0.000000 
-0.046960 -1.051569 0.000000 
-0.095301 -1.145614 0.000000 
-0.098873 -1.092967 0.000000 
-0.149405 -1.077770 0.000000 
-0.140093 -1.237319 0.000000 
-0.148617 -1.188620 0.000000 
-0.205981 -1.178383 0.000000 
-0.203197 -1.120180 0.000000 
-0.248777 -1.101033 0.000000 
-0.184111 -1.328282 0.000000 
-0.194039 -1.281191 0.000000 
-0.254475 -1.273891 0.000000 
-0.257893 -1.219782 0.000000 
-0.309886 -1.204409 0.000000 
-0.303554 -1.143864 0.000000 
-0.347255 -1.123706 0.000000 
-0.228129 -1.419246 0.000000 
-0.238687 -1.373021 0.000000 
-0.301302 -1.368069 0.000000 
-0.307162 -1.316030 0.000000 
-0.363386 -1.303910 0.000000 
-0.362692 -1.246398 0.000000 
-0.412122 -1.229105 0.000000 
-0.403017 -1.166958 0.000000 
-0.445733 -1.146379 0.000000 
-0.000000 -1.074184 0.000000 
0.043388 -1.170614 0.000000 
-0.000000 -1.140582 0.000000 
-0.043388 -1.170614 0.000000 
0.087158 -1.262811 0.000000 
0.043769 -1.239112 0.000000 
-0.000000 -1.277578 0.000000 
-0.043769 -1.239112 0.000000 
-0.087158 -1.262811 0.000000 
0.130831 -1.353940 0.000000 
0.087824 -1.332342 0.000000 
0.044436 -1.375041 0.000000 
-0.000000 -1.343976 0.000000 
-0.044436 -1.375041 0.000000 
-0.087824 -1.332342 0.000000 
-0.130831 -1.353940 0.000000 
0.174505 -1.445070 0.000000 
0.131782 -1.424504 0.000000 
0.088871 -1.470371 0.000000 
0.044532 -1.442507 0.000000 
-0.000000 -1.478907 0.000000 
-0.044532 -1.442507 0.000000 
-0.088871 -1.470371 0.000000 
-0.131782 -1.424504 0.000000 
-0.174505 -1.445070 0.000000 
0.046960 -1.051569 0.000000 
0.149405 -1.077770 0.000000 
0.098873 -1.092967 0.000000 
0.095301 -1.145614 0.000000 
0.248777 -1.101033 0.000000 
0.203197 -1.120180 0.000000 
0.205981 -1.178383 0.000000 
0.148617 -1.188620 0.000000 
0.140093 -1.237319 0.000000 
0.347255 -1.123706 0.000000 
0.303554 -1.143864 0.000000 
0.309886 -1.204409 0.000000 
0.257893 -1.219782 0.000000 
0.254475 -1.273891 0.000000 
0.194039 -1.281191 0.000000 
0.184111 -1.328282 0.000000 
0.445733 -1.146379 0.000000 
0.403017 -1.166958 0.000000 
0.412122 -1.229105 0.000000 
0.362692 -1.246398 0.000000 
0.363386 -1.303910 0.000000 
0.307162 -1.316030 0.000000 
0.301302 -1.368069 0.000000 
0.238687 -1.373021 0.000000 
0.228129 -1.419246 0.000000 
0.058559 -1.000753 0.000000 
0.142917 -0.936995 0.000000 
0.123292 -0.985978 0.000000 
0.162226 -1.021596 0.000000 
0.223062 -0.873807 0.000000 
0.209613 -0.921381 0.000000 
0.256854 -0.955494 0.000000 
0.229092 -1.006725 0.000000 
0.261851 -1.043752 0.000000 
0.302189 -0.810951 0.000000 
0.290702 -0.857686 0.000000 
0.341985 -0.890485 0.000000 
0.321587 -0.940719 0.000000 
0.361761 -0.977128 0.000000 
0.329787 -1.028930 0.000000 
0.360414 -1.066053 0.000000 
0.381315 -0.748094 0.000000 
0.370772 -0.794321 0.000000 
0.425037 -0.825951 0.000000 
0.407738 -0.875379 0.000000 
0.453135 -0.910694 0.000000 
0.427556 -0.962209 0.000000 
0.464588 -0.999236 0.000000 
0.429420 -1.051278 0.000000 
0.458977 -1.088353 0.000000 
0.026061 -0.960003 0.000000 
0.028809 -0.854296 0.000000 
0.054870 -0.900180 0.000000 
0.106992 -0.891947 0.000000 
0.029377 -0.752239 0.000000 
0.058186 -0.792416 0.000000 
0.114311 -0.776751 0.000000 
0.137056 -0.830398 0.000000 
0.186430 -0.827872 0.000000 
0.029568 -0.651185 0.000000 
0.058945 -0.689305 0.000000 
0.116563 -0.669659 0.000000 
0.143120 -0.716928 0.000000 
0.196633 -0.708219 0.000000 
0.217198 -0.765516 0.000000 
0.265318 -0.764716 0.000000 
0.029759 -0.550131 0.000000 
0.059328 -0.587197 0.000000 
0.117890 -0.564491 0.000000 
0.145749 -0.608833 0.000000 
0.201664 -0.595359 0.000000 
0.225992 -0.647476 0.000000 
0.278030 -0.641610 0.000000 
0.296791 -0.701553 0.000000 
0.344206 -0.701560 0.000000 
CELLS 175 350 
1 0 
1 1 
1 2 
1 3 
1 4 
1 5 
1 6 
1 7 
1 8 
1 9 
1 10 
1 11 
1 12 
1 13 
1 14 
1 15 
1 16 
1 17 
1 18 
1 19 
1 20 
1 21 
1 22 
1 23 
1 24 
1 25 
1 26 
1 27 
1 28 
1 29 
1 30 
1 31 
1 32 
1 33 
1 34 
1 35 
1 36 
1 37 
1 38 
1 39 
1 40 
1 41 
1 42 
1 43 
1 44 
1 45 
1 46 
1 47 
1 48 
1 49 
1 50 
1 51 
1 52 
1 53 
1 54 
1 55 
1 56 
1 57 
1 58 
1 59 
1 60 
1 61 
1 62 
1 63 
1 64 
1 65 
1 66 
1 67 
1 68 
1 69 
1 70 
1 71 
1 72 
1 73 
1 74 
1 75 
1 76 
1 77 
1 78 
1 79 
1 80 
1 81 
1 82 
1 83 
1 84 
1 85 
1 86 
1 87 
1 88 
1 89 
1 90 
1 91 
1 92 
1 93 
1 94 
1 95 
1 96 
1 97 
1 98 
1 99 
1 100 
1 101 
1 102 
1 103 
1 104 
1 105 
1 106 
1 107 
1 108 
1 109 
1 110 
1 111 
1 112 
1 113 
1 114 
1 115 
1 116 
1 117 
1 118 
1 119 
1 120 
1 121 
1 122 
1 123 
1 124 
1 125 
1 126 
1 127 
1 128 
1 129 
1 130 
1 131 
1 132 
1 133 
1 134 
1 135 
1 136 
1 137 
1 138 
1 139 
1 140 
1 141 
1 142 
1 143 
1 144 
1 145 
1 146 
1 147 
1 148 
1 149 
1 150 
1 151 
1 152 
1 153 
1 154 
1 155 
1 156 
1 157 
1 158 
1 159 
1 160 
1 161 
1 162 
1 163 
1 164 
1 165 
1 166 
1 167 
1 168 
1 169 
1 170 
1 171 
1 172 
1 173 
1 174 
CELL_TYPES 175 
1 
1 
1 
1 
1 
1 
1 
1 
1 
1 
1 
1 
1 
1 
1 
1 
1 
1 
1 
1 
1 
1 
1 
1 
1 
1 
1 
1 
1 
1 
1 
1 
1 
1 
1 
1 
1 
1 
1 
1 
1 
1 
1 
1 
1 
1 
1 
1 
1 
1 
1 
1 
1 
1 
1 
1 
1 
1 
1 
1 
1 
1 
1 
1 
1 
1 
1 
1 
1 
1 
1 
1 
1 
1 
1 
1 
1 
1 
1 
1 
1 
1 
1 
1 
1 
1 
1 
1 
1 
1 
1 
1 
1 
1 
1 
1 
1 
1 
1 
1 
1 
1 
1 
1 
1 
1 
1 
1 
1 
1 
1 
1 
1 
1 
1 
1 
1 
1 
1 
1 
1 
1 
1 
1 
1 
1 
1 
1 
1 
1 
1 
1 
1 
1 
1 
1 
1 
1 
1 
1 
1 
1 
1 
1 
1 
1 
1 
1 
1 
1 
1 
1 
1 
1 
1 
1 
1 
1 
1 
1 
1 
1 
1 
1 
1 
1 
1 
1 
1 
1 
1 
1 
1 
1 
1 
POINT_DATA 175 
VECTORS X_GC float 
-0.026061 -0.960003 0.000000 
-0.106992 -0.891947 0.000000 
-0.054870 -0.900180 0.000000 
-0.028809 -0.854296 0.000000 
-0.186430 -0.827872 0.000000 
-0.137056 -0.830398 0.000000 
-0.114311 -0.776751 0.000000 
-0.058186 -0.792416 0.000000 
-0.029377 -0.752239 0.000000 
-0.265318 -0.764716 0.000000 
-0.217198 -0.765516 0.000000 
-0.196633 -0.708219 0.000000 
-0.143120 -0.716928 0.000000 
-0.116563 -0.669659 0.000000 
-0.058945 -0.689305 0.000000 
-0.029568 -0.651185 0.000000 
-0.344206 -0.701560 0.000000 
-0.296791 -0.701553 0.000000 
-0.278030 -0.641610 0.000000 
-0.225992 -0.647476 0.000000 
-0.201664 -0.595359 0.000000 
-0.145749 -0.608833 0.000000 
-0.117890 -0.564491 0.000000 
-0.059328 -0.587197 0.000000 
-0.029759 -0.550131 0.000000 
-0.058559 -1.000753 0.000000 
-0.162226 -1.021596 0.000000 
-0.123292 -0.985978 0.000000 
-0.142917 -0.936995 0.000000 
-0.261851 -1.043752 0.000000 
-0.229092 -1.006725 0.000000 
-0.256854 -0.955494 0.000000 
-0.209613 -0.921381 0.000000 
-0.223062 -0.873807 0.000000 
-0.360414 -1.066053 0.000000 
-0.329787 -1.028930 0.000000 
-0.361761 -0.977128 0.000000 
-0.321587 -0.940719 0.000000 
-0.341985 -0.890485 0.000000 
-0.290702 -0.857686 0.000000 
-0.302189 -0.810951 0.000000 
-0.458977 -1.088353 0.000000 
-0.429420 -1.051278 0.000000 
-0.464588 -0.999236 0.000000 
-0.427556 -0.962209 0.000000 
-0.453135 -0.910694 0.000000 
-0.407738 -0.875379 0.000000 
-0.425037 -0.825951 0.000000 
-0.370772 -0.794321 0.000000 
-0.381315 -0.748094 0.000000 
-0.046960 -1.051569 0.000000 
-0.095301 -1.145614 0.000000 
-0.098873 -1.092967 0.000000 
-0.149405 -1.077770 0.000000 
-0.140093 -1.237319 0.000000 
-0.148617 -1.188620 0.000000 
-0.205981 -1.178383 0.000000 
-0.203197 -1.120180 0.000000 
-0.248777 -1.101033 0.000000 
-0.184111 -1.328282 0.000000 
-0.194039 -1.281191 0.000000 
-0.254475 -1.273891 0.000000 
-0.257893 -1.219782 0.000000 
-0.309886 -1.204409 0.000000 
-0.303554 -1.143864 0.000000 
-0.347255 -1.123706 0.000000 
-0.228129 -1.419246 0.000000 
-0.238687 -1.373021 0.000000 
-0.301302 -1.368069 0.000000 
-0.307162 -1.316030 0.000000 
-0.363386 -1.303910 0.000000 
-0.362692 -1.246398 0.000000 
-0.412122 -1.229105 0.000000 
-0.403017 -1.166958 0.000000 
-0.445733 -1.146379 0.000000 
-0.000000 -1.074184 0.000000 
0.043388 -1.170614 0.000000 
-0.000000 -1.140582 0.000000 
-0.043388 -1.170614 0.000000 
0.087158 -1.262811 0.000000 
0.043769 -1.239112 0.000000 
-0.000000 -1.277578 0.000000 
-0.043769 -1.239112 0.000000 
-0.087158 -1.262811 0.000000 
0.130831 -1.353940 0.000000 
0.087824 -1.332342 0.000000 
0.044436 -1.375041 0.000000 
-0.000000 -1.343976 0.000000 
-0.044436 -1.375041 0.000000 
-0.087824 -1.332342 0.000000 
-0.130831 -1.353940 0.000000 
0.174505 -1.445070 0.000000 
0.131782 -1.424504 0.000000 
0.088871 -1.470371 0.000000 
0.044532 -1.442507 0.000000 
-0.000000 -1.478907 0.000000 
-0.044532 -1.442507 0.000000 
-0.088871 -1.470371 0.000000 
-0.131782 -1.424504 0.000000 
-0.174505 -1.445070 0.000000 
0.046960 -1.051569 0.000000 
0.149405 -1.077770 0.000000 
0.098873 -1.092967 0.000000 
0.095301 -1.145614 0.000000 
0.248777 -1.101033 0.000000 
0.203197 -1.120180 0.000000 
0.205981 -1.178383 0.000000 
0.148617 -1.188620 0.000000 
0.140093 -1.237319 0.000000 
0.347255 -1.123706 0.000000 
0.303554 -1.143864 0.000000 
0.309886 -1.204409 0.000000 
0.257893 -1.219782 0.000000 
0.254475 -1.273891 0.000000 
0.194039 -1.281191 0.000000 
0.184111 -1.328282 0.000000 
0.445733 -1.146379 0.000000 
0.403017 -1.166958 0.000000 
0.412122 -1.229105 0.000000 
0.362692 -1.246398 0.000000 
0.363386 -1.303910 0.000000 
0.307162 -1.316030 0.000000 
0.301302 -1.368069 0.000000 
0.238687 -1.373021 0.000000 
0.228129 -1.419246 0.000000 
0.058559 -1.000753 0.000000 
0.142917 -0.936995 0.000000 
0.123292 -0.985978 0.000000 
0.162226 -1.021596 0.000000 
0.223062 -0.873807 0.000000 
0.209613 -0.921381 0.000000 
0.256854 -0.955494 0.000000 
0.229092 -1.006725 0.000000 
0.261851 -1.043752 0.000000 
0.302189 -0.810951 0.000000 
0.290702 -0.857686 0.000000 
0.341985 -0.890485 0.000000 
0.321587 -0.940719 0.000000 
0.361761 -0.977128 0.000000 
0.329787 -1.028930 0.000000 
0.360414 -1.066053 0.000000 
0.381315 -0.748094 0.000000 
0.370772 -0.794321 0.000000 
0.425037 -0.825951 0.000000 
0.407738 -0.875379 0.000000 
0.453135 -0.910694 0.000000 
0.427556 -0.962209 0.000000 
0.464588 -0.999236 0.000000 
0.429420 -1.051278 0.000000 
0.458977 -1.088353 0.000000 
0.026061 -0.960003 0.000000 
0.028809 -0.854296 0.000000 
0.054870 -0.900180 0.000000 
0.106992 -0.891947 0.000000 
0.029377 -0.752239 0.000000 
0.058186 -0.792416 0.000000 
0.114311 -0.776751 0.000000 
0.137056 -0.830398 0.000000 
0.186430 -0.827872 0.000000 
0.029568 -0.651185 0.000000 
0.058945 -0.689305 0.000000 
0.116563 -0.669659 0.000000 
0.143120 -0.716928 0.000000 
0.196633 -0.708219 0.000000 
0.217198 -0.765516 0.000000 
0.265318 -0.764716 0.000000 
0.029759 -0.550131 0.000000 
0.059328 -0.587197 0.000000 
0.117890 -0.564491 0.000000 
0.145749 -0.608833 0.000000 
0.201664 -0.595359 0.000000 
0.225992 -0.647476 0.000000 
0.278030 -0.641610 0.000000 
0.296791 -0.701553 0.000000 
0.344206 -0.701560 0.000000 
VECTORS X_EC float 
0.338794 -0.539965 0.000000 
-0.609100 0.541287 0.000000 
0.713312 0.652428 0.000000 
0.374519 0.032998 0.000000 
0.423588 -0.323732 0.000000 
-0.218274 -0.289629 0.000000 
-0.513962 0.986132 0.000000 
0.756418 -0.802381 0.000000 
0.381900 0.655226 0.000000 
-0.550868 0.823665 0.000000 
0.823577 0.834460 0.000000 
0.556234 0.060956 0.000000 
-0.139443 0.178525 0.000000 
-0.484677 -0.459600 0.000000 
0.766286 -0.194384 0.000000 
0.384386 -0.709005 0.000000 
0.474677 -0.028939 0.000000 
-0.141715 -0.029035 0.000000 
-0.385608 -0.838263 0.000000 
0.937896 -0.759068 0.000000 
0.621631 0.537352 0.000000 
-0.105264 0.719251 0.000000 
-0.467428 0.120625 0.000000 
0.771260 0.427154 0.000000 
0.386873 -0.073236 0.000000 
0.761262 0.010170 0.000000 
0.108942 0.291547 0.000000 
-0.397202 -0.189293 0.000000 
-0.142083 -0.850568 0.000000 
-0.595936 0.590657 0.000000 
0.978194 0.090791 0.000000 
-0.660903 -0.600834 0.000000 
0.724964 0.938646 0.000000 
0.899809 0.296398 0.000000 
0.685384 0.891709 0.000000 
0.287229 0.390551 0.000000 
0.702895 -0.308778 0.000000 
0.180633 -0.800296 0.000000 
0.445811 0.521544 0.000000 
-0.220880 0.078758 0.000000 
-0.071546 -0.552167 0.000000 
-0.033296 -0.807238 0.000000 
-0.417537 0.692252 0.000000 
0.039645 -0.010311 0.000000 
-0.441768 -0.510182 0.000000 
-0.109248 0.794368 0.000000 
-0.699407 0.317612 0.000000 
-0.474522 -0.349667 0.000000 
0.820030 -0.776661 0.000000 
0.957100 0.599268 0.000000 
0.610485 0.696176 0.000000 
-0.761092 -0.034204 0.000000 
-0.714655 -0.744942 0.000000 
-0.057734 -0.950109 0.000000 
-0.178789 -0.796200 0.000000 
-0.067979 0.546374 0.000000 
0.677748 0.408170 0.000000 
0.641556 -0.377575 0.000000 
-0.765897 -0.636053 0.000000 
0.393446 0.431809 0.000000 
0.522510 -0.203921 0.000000 
-0.691820 -0.302465 0.000000 
-0.647393 0.967052 0.000000 
0.028512 0.759526 0.000000 
-0.053800 -0.057835 0.000000 
0.514316 -0.329966 0.000000 
0.965681 -0.340182 0.000000 
-0.897068 -0.964211 0.000000 
-0.083078 0.968936 0.000000 
-0.006893 0.266412 0.000000 
0.724017 0.102779 0.000000 
0.714996 -0.673625 0.000000 
-0.642413 -0.907082 0.000000 
-0.760780 0.253937 0.000000 
-0.205471 -0.023878 0.000000 
0.000000 -0.998522 0.000000 
-0.564049 0.303291 0.000000 
0.000000 -0.102145 0.000000 
0.564049 0.303291 0.000000 
0.866949 -0.452054 0.000000 
-0.569003 -0.771985 0.000000 
0.000000 -0.252697 0.000000 
0.569003 -0.771985 0.000000 
-0.866949 -0.452054 0.000000 
0.299194 0.778196 0.000000 
0.858290 0.486612 0.000000 
-0.577662 -0.936942 0.000000 
0.000000 0.643680 0.000000 
0.577662 -0.936942 0.000000 
-0.858290 0.486612 0.000000 
-0.299194 0.778196 0.000000 
-0.268560 0.008446 0.000000 
0.286830 -0.269195 0.000000 
0.844677 0.350003 0.000000 
-0.578910 -0.026160 0.000000 
0.000000 0.465244 0.000000 
0.578910 -0.026160 0.000000 
-0.844677 0.350003 0.000000 
-0.286830 -0.269195 0.000000 
0.268560 0.008446 0.000000 
-0.610485 0.696176 0.000000 
0.057734 -0.950109 0.000000 
0.714655 -0.744942 0.000000 
0.761092 -0.034204 0.000000 
0.765897 -0.636053 0.000000 
-0.641556 -0.377575 0.000000 
-0.677748 0.408170 0.000000 
0.067979 0.546374 0.000000 
0.178789 -0.796200 0.000000 
-0.514316 -0.329966 0.000000 
0.053800 -0.057835 0.000000 
-0.028512 0.759526 0.000000 
0.647393 0.967052 0.000000 
0.691820 -0.302465 0.000000 
-0.522510 -0.203921 0.000000 
-0.393446 0.431809 0.000000 
0.205471 -0.023878 0.000000 
0.760780 0.253937 0.000000 
0.642413 -0.907082 0.000000 
-0.714996 -0.673625 0.000000 
-0.724017 0.102779 0.000000 
0.006894 0.266412 0.000000 
0.083078 0.968936 0.000000 
0.897068 -0.964211 0.000000 
-0.965681 -0.340182 0.000000 
-0.761262 0.010170 0.000000 
0.142083 -0.850568 0.000000 
0.397202 -0.189293 0.000000 
-0.108942 0.291547 0.000000 
-0.899809 0.296398 0.000000 
-0.724964 0.938646 0.000000 
0.660903 -0.600834 0.000000 
-0.978194 0.090791 0.000000 
0.595936 0.590657 0.000000 
0.071546 -0.552167 0.000000 
0.220880 0.078758 0.000000 
-0.445811 0.521544 0.000000 
-0.180633 -0.800296 0.000000 
-0.702895 -0.308778 0.000000 
-0.287229 0.390551 0.000000 
-0.685384 0.891709 0.000000 
-0.957100 0.599268 0.000000 
-0.820030 -0.776661 0.000000 
0.474522 -0.349667 0.000000 
0.699407 0.317612 0.000000 
0.109248 0.794368 0.000000 
0.441768 -0.510182 0.000000 
-0.039645 -0.010311 0.000000 
0.417537 0.692252 0.000000 
0.033296 -0.807238 0.000000 
-0.338794 -0.539965 0.000000 
-0.374519 0.032998 0.000000 
-0.713312 0.652428 0.000000 
0.609100 0.541287 0.000000 
-0.381900 0.655226 0.000000 
-0.756418 -0.802381 0.000000 
0.513962 0.986132 0.000000 
0.218274 -0.289629 0.000000 
-0.423588 -0.323732 0.000000 
-0.384386 -0.709005 0.000000 
-0.766286 -0.194384 0.000000 
0.484677 -0.459600 0.000000 
0.139443 0.178525 0.000000 
-0.556234 0.060956 0.000000 
-0.823577 0.834460 0.000000 
0.550868 0.823665 0.000000 
-0.386873 -0.073236 0.000000 
-0.771260 0.427154 0.000000 
0.467428 0.120625 0.000000 
0.105264 0.719251 0.000000 
-0.621631 0.537352 0.000000 
-0.937896 -0.759068 0.000000 
0.385608 -0.838263 0.000000 
0.141715 -0.029035 0.000000 
-0.474677 -0.028939 0.000000 
CELL_DATA 175 
SCALARS MASS float 
LOOKUP_TABLE default 
0.781831 
0.864274 
0.946717 
0.864274 
0.881307 
0.921110 
0.858535 
0.921110 
0.881307 
0.887046 
0.910001 
0.869829 
0.915556 
0.869829 
0.910001 
0.887046 
0.892784 
0.915740 
0.892784 
0.927218 
0.892784 
0.927218 
0.892784 
0.915740 
0.892784 
0.781831 
0.864274 
0.946717 
0.864274 
0.881307 
0.921110 
0.858535 
0.921110 
0.881307 
0.887046 
0.910001 
0.869829 
0.915556 
0.869829 
0.910001 
0.887046 
0.892784 
0.915740 
0.892784 
0.927218 
0.892784 
0.927218 
0.892784 
0.915740 
0.892784 
0.781831 
0.864274 
0.946717 
0.864274 
0.881307 
0.921110 
0.858535 
0.921110 
0.881307 
0.887046 
0.910001 
0.869829 
0.915556 
0.869829 
0.910001 
0.887046 
0.892784 
0.915740 
0.892784 
0.927218 
0.892784 
0.927218 
0.892784 
0.915740 
0.892784 
0.781831 
0.864274 
0.946717 
0.864274 
0.881307 
0.921110 
0.858535 
0.921110 
0.881307 
0.887046 
0.910001 
0.869829 
0.915556 
0.869829 
0.910001 
0.887046 
0.892784 
0.915740 
0.892784 
0.927218 
0.892784 
0.927218 
0.892784 
0.915740 
0.892784 
0.781831 
0.864274 
0.946717 
0.864274 
0.881307 
0.921110 
0.858535 
0.921110 
0.881307 
0.887046 
0.910001 
0.869829 
0.915556 
0.869829 
0.910001 
0.887046 
0.892784 
0.915740 
0.892784 
0.927218 
0.892784 
0.927218 
0.892784 
0.915740 
0.892784 
0.781831 
0.864274 
0.946717 
0.864274 
0.881307 
0.921110 
0.858535 
0.921110 
0.881307 
0.887046 
0.910001 
0.869829 
0.915556 
0.869829 
0.910001 
0.887046 
0.892784 
0.915740 
0.892784 
0.927218 
0.892784 
0.927218 
0.892784 
0.915740 
0.892784 
0.781831 
0.864274 
0.946717 
0.864274 
0.881307 
0.921110 
0.858535 
0.921110 
0.881307 
0.887046 
0.910001 
0.869829 
0.915556 
0.869829 
0.910001 
0.887046 
0.892784 
0.915740 
0.892784 
0.927218 
0.892784 
0.927218 
0.892784 
0.915740 
0.892784 
SCALARS MASS float 
LOOKUP_TABLE default 
0.781831 
0.864274 
0.946717 
0.864274 
0.881307 
0.921110 
0.858535 
0.921110 
0.881307 
0.887046 
0.910001 
0.869829 
0.915556 
0.869829 
0.910001 
0.887046 
0.892784 
0.915740 
0.892784 
0.927218 
0.892784 
0.927218 
0.892784 
0.915740 
0.892784 
0.781831 
0.864274 
0.946717 
0.864274 
0.881307 
0.921110 
0.858535 
0.921110 
0.881307 
0.887046 
0.910001 
0.869829 
0.915556 
0.869829 
0.910001 
0.887046 
0.892784 
0.915740 
0.892784 
0.927218 
0.892784 
0.927218 
0.892784 
0.915740 
0.892784 
0.781831 
0.864274 
0.946717 
0.864274 
0.881307 
0.921110 
0.858535 
0.921110 
0.881307 
0.887046 
0.910001 
0.869829 
0.915556 
0.869829 
0.910001 
0.887046 
0.892784 
0.915740 
0.892784 
0.927218 
0.892784 
0.927218 
0.892784 
0.915740 
0.892784 
0.781831 
0.864274 
0.946717 
0.864274 
0.881307 
0.921110 
0.858535 
0.921110 
0.881307 
0.887046 
0.910001 
0.869829 
0.915556 
0.869829 
0.910001 
0.887046 
0.892784 
0.915740 
0.892784 
0.927218 
0.892784 
0.927218 
0.892784 
0.915740 
0.892784 
0.781831 
0.864274 
0.946717 
0.864274 
0.881307 
0.921110 
0.858535 
0.921110 
0.881307 
0.887046 
0.910001 
0.869829 
0.915556 
0.869829 
0.910001 
0.887046 
0.892784 
0.915740 
0.892784 
0.927218 
0.892784 
0.927218 
0.892784 
0.915740 
0.892784 
0.781831 
0.864274 
0.946717 
0.864274 
0.881307 
0.921110 
0.858535 
0.921110 
0.881307 
0.887046 
0.910001 
0.869829 
0.915556 
0.869829 
0.910001 
0.887046 
0.892784 
0.915740 
0.892784 
0.927218 
0.892784 
0.927218 
0.892784 
0.915740 
0.892784 
0.781831 
0.864274 
0.946717 
0.864274 
0.881307 
0.921110 
0.858535 
0.921110 
0.881307 
0.887046 
0.910001 
0.869829 
0.915556 
0.869829 
0.910001 
0.887046 
0.892784 
0.915740 
0.892784 
0.927218 
0.892784 
0.927218 
0.892784 
0.915740 
0.892784 
SCALARS DENSITY float 
LOOKUP_TABLE default 
200.000000 
200.000000 
200.000000 
200.000000 
200.000000 
200.000000 
200.000000 
200.000000 
200.000000 
200.000000 
200.000000 
200.000000 
200.000000 
200.000000 
200.000000 
200.000000 
200.000000 
200.000000 
200.000000 
200.000000 
200.000000 
200.000000 
200.000000 
200.000000 
200.000000 
200.000000 
200.000000 
200.000000 
200.000000 
200.000000 
200.000000 
200.000000 
200.000000 
200.000000 
200.000000 
200.000000 
200.000000 
200.000000 
200.000000 
200.000000 
200.000000 
200.000000 
200.000000 
200.000000 
200.000000 
200.000000 
200.000000 
200.000000 
200.000000 
200.000000 
200.000000 
200.000000 
200.000000 
200.000000 
200.000000 
200.000000 
200.000000 
200.000000 
200.000000 
200.000000 
200.000000 
200.000000 
200.000000 
200.000000 
200.000000 
200.000000 
200.000000 
200.000000 
200.000000 
200.000000 
200.000000 
200.000000 
200.000000 
200.000000 
200.000000 
200.000000 
200.000000 
200.000000 
200.000000 
200.000000 
200.000000 
200.000000 
200.000000 
200.000000 
200.000000 
200.000000 
200.000000 
200.000000 
200.000000 
200.000000 
200.000000 
200.000000 
200.000000 
200.000000 
200.000000 
200.000000 
200.000000 
200.000000 
200.000000 
200.000000 
200.000000 
200.000000 
200.000000 
200.000000 
200.000000 
200.000000 
200.000000 
200.000000 
200.000000 
200.000000 
200.000000 
200.000000 
200.000000 
200.000000 
200.000000 
200.000000 
200.000000 
200.000000 
200.000000 
200.000000 
200.000000 
200.000000 
200.000000 
200.000000 
200.000000 
200.000000 
200.000000 
200.000000 
200.000000 
200.000000 
200.000000 
200.000000 
200.000000 
200.000000 
200.000000 
200.000000 
200.000000 
200.000000 
200.000000 
200.000000 
200.000000 
200.000000 
200.000000 
200.000000 
200.000000 
200.000000 
200.000000 
200.000000 
200.000000 
200.000000 
200.000000 
200.000000 
200.000000 
200.000000 
200.000000 
200.000000 
200.000000 
200.000000 
200.000000 
200.000000 
200.000000 
200.000000 
200.000000 
200.000000 
200.000000 
200.000000 
200.000000 
200.000000 
200.000000 
200.000000 
200.000000 
200.000000 
200.000000 
200.000000 
200.000000 
SCALARS ELEM_i float 
LOOKUP_TABLE default 
175 
203 
176 
176 
203 
203 
204 
176 
177 
231 
204 
204 
204 
204 
177 
177 
231 
231 
231 
204 
205 
205 
205 
178 
178 
175 
202 
202 
202 
229 
202 
229 
203 
203 
229 
229 
229 
229 
230 
230 
230 
255 
256 
256 
256 
257 
257 
257 
230 
231 
175 
201 
201 
201 
200 
201 
201 
201 
228 
200 
200 
227 
228 
228 
228 
228 
199 
226 
227 
227 
227 
227 
254 
255 
255 
174 
174 
174 
174 
146 
173 
173 
173 
200 
146 
146 
172 
173 
172 
200 
200 
145 
145 
145 
172 
172 
172 
199 
199 
199 
175 
147 
147 
147 
120 
147 
147 
147 
146 
120 
120 
120 
120 
119 
146 
146 
93 
93 
92 
119 
119 
119 
119 
118 
145 
175 
148 
148 
148 
149 
149 
121 
148 
121 
122 
122 
122 
121 
121 
121 
121 
123 
122 
95 
95 
95 
94 
94 
94 
93 
175 
176 
176 
149 
177 
176 
150 
149 
149 
177 
177 
150 
150 
150 
150 
123 
178 
178 
151 
151 
151 
150 
123 
123 
123 
VECTORS VELOCITY float 
-0.000000 -4.459626 0.000000 
0.000000 -4.459626 0.000000 
0.000000 -4.459626 0.000000 
0.000000 -4.459626 0.000000 
0.000000 -4.459626 0.000000 
0.000000 -4.459626 0.000000 
0.000000 -4.459626 0.000000 
0.000000 -4.459626 0.000000 
0.000000 -4.459626 0.000000 
-0.000000 -4.459626 0.000000 
-0.000000 -4.459626 0.000000 
-0.000000 -4.459626 0.000000 
0.000000 -4.459626 0.000000 
-0.000000 -4.459626 0.000000 
0.000000 -4.459626 0.000000 
0.000000 -4.459626 0.000000 
0.000000 -4.459626 0.000000 
-0.000000 -4.459626 0.000000 
-0.000000 -4.459626 0.000000 
0.000000 -4.459626 0.000000 
0.000000 -4.459626 0.000000 
0.000000 -4.459626 0.000000 
0.000000 -4.459626 0.000000 
0.000000 -4.459626 0.000000 
0.000000 -4.459626 0.000000 
-0.000000 -4.459626 0.000000 
-0.000000 -4.459626 0.000000 
-0.000000 -4.459626 0.000000 
-0.000000 -4.459626 0.000000 
0.000000 -4.459626 0.000000 
0.000000 -4.459626 0.000000 
0.000000 -4.459626 0.000000 
0.000000 -4.459626 0.000000 
-0.000000 -4.459626 0.000000 
0.000000 -4.459626 0.000000 
0.000000 -4.459626 0.000000 
0.000000 -4.459626 0.000000 
0.000000 -4.459626 0.000000 
-0.000000 -4.459626 0.000000 
-0.000000 -4.459626 0.000000 
-0.000000 -4.459626 0.000000 
-0.000000 -4.459626 0.000000 
-0.000000 -4.459626 0.000000 
-0.000000 -4.459626 0.000000 
-0.000000 -4.459626 0.000000 
-0.000000 -4.459626 0.000000 
-0.000000 -4.459626 0.000000 
0.000000 -4.459626 0.000000 
-0.000000 -4.459626 0.000000 
-0.000000 -4.459626 0.000000 
-0.000000 -4.459626 0.000000 
-0.000000 -4.459626 0.000000 
-0.000000 -4.459626 0.000000 
-0.000000 -4.459626 0.000000 
-0.000000 -4.459626 0.000000 
-0.000000 -4.459626 0.000000 
-0.000000 -4.459626 0.000000 
-0.000000 -4.459626 0.000000 
-0.000000 -4.459626 0.000000 
-0.000000 -4.459626 0.000000 
-0.000000 -4.459626 0.000000 
-0.000000 -4.459626 0.000000 
-0.000000 -4.459626 0.000000 
-0.000000 -4.459626 0.000000 
-0.000000 -4.459626 0.000000 
0.000000 -4.459626 0.000000 
-0.000000 -4.459626 0.000000 
-0.000000 -4.459626 0.000000 
0.000000 -4.459626 0.000000 
-0.000000 -4.459626 0.000000 
-0.000000 -4.459626 0.000000 
-0.000000 -4.459626 0.000000 
-0.000000 -4.459626 0.000000 
0.000000 -4.459626 0.000000 
0.000000 -4.459626 0.000000 
-0.000000 -4.459626 0.000000 
-0.000000 -4.459626 0.000000 
-0.000000 -4.459626 0.000000 
-0.000000 -4.459626 0.000000 
0.000000 -4.459626 0.000000 
0.000000 -4.459626 0.000000 
-0.000000 -4.459626 0.000000 
-0.000000 -4.459626 0.000000 
-0.000000 -4.459626 0.000000 
0.000000 -4.459626 0.000000 
0.000000 -4.459626 0.000000 
0.000000 -4.459626 0.000000 
0.000000 -4.459626 0.000000 
0.000000 -4.459626 0.000000 
-0.000000 -4.459626 0.000000 
-0.000000 -4.459626 0.000000 
-0.000000 -4.459626 0.000000 
0.000000 -4.459626 0.000000 
-0.000000 -4.459626 0.000000 
-0.000000 -4.459626 0.000000 
0.000000 -4.459626 0.000000 
-0.000000 -4.459626 0.000000 
-0.000000 -4.459626 0.000000 
-0.000000 -4.459626 0.000000 
-0.000000 -4.459626 0.000000 
0.000000 -4.459626 0.000000 
0.000000 -4.459626 0.000000 
0.000000 -4.459626 0.000000 
0.000000 -4.459626 0.000000 
0.000000 -4.459626 0.000000 
-0.000000 -4.459626 0.000000 
-0.000000 -4.459626 0.000000 
-0.000000 -4.459626 0.000000 
0.000000 -4.459626 0.000000 
-0.000000 -4.459626 0.000000 
-0.000000 -4.459626 0.000000 
-0.000000 -4.459626 0.000000 
0.000000 -4.459626 0.000000 
-0.000000 -4.459626 0.000000 
-0.000000 -4.459626 0.000000 
-0.000000 -4.459626 0.000000 
-0.000000 -4.459626 0.000000 
0.000000 -4.459626 0.000000 
0.000000 -4.459626 0.000000 
-0.000000 -4.459626 0.000000 
-0.000000 -4.459626 0.000000 
-0.000000 -4.459626 0.000000 
-0.000000 -4.459626 0.000000 
-0.000000 -4.459626 0.000000 
-0.000000 -4.459626 0.000000 
0.000000 -4.459626 0.000000 
0.000000 -4.459626 0.000000 
0.000000 -4.459626 0.000000 
0.000000 -4.459626 0.000000 
-0.000000 -4.459626 0.000000 
-0.000000 -4.459626 0.000000 
-0.000000 -4.459626 0.000000 
0.000000 -4.459626 0.000000 
0.000000 -4.459626 0.000000 
0.000000 -4.459626 0.000000 
0.000000 -4.459626 0.000000 
0.000000 -4.459626 0.000000 
0.000000 -4.459626 0.000000 
0.000000 -4.459626 0.000000 
0.000000 -4.459626 0.000000 
0.000000 -4.459626 0.000000 
0.000000 -4.459626 0.000000 
0.000000 -4.459626 0.000000 
-0.000000 -4.459626 0.000000 
0.000000 -4.459626 0.000000 
-0.000000 -4.459626 0.000000 
0.000000 -4.459626 0.000000 
0.000000 -4.459626 0.000000 
0.000000 -4.459626 0.000000 
0.000000 -4.459626 0.000000 
0.000000 -4.459626 0.000000 
0.000000 -4.459626 0.000000 
0.000000 -4.459626 0.000000 
-0.000000 -4.459626 0.000000 
0.000000 -4.459626 0.000000 
-0.000000 -4.459626 0.000000 
0.000000 -4.459626 0.000000 
-0.000000 -4.459626 0.000000 
0.000000 -4.459626 0.000000 
0.000000 -4.459626 0.000000 
0.000000 -4.459626 0.000000 
0.000000 -4.459626 0.000000 
0.000000 -4.459626 0.000000 
0.000000 -4.459626 0.000000 
0.000000 -4.459626 0.000000 
0.000000 -4.459626 0.000000 
0.000000 -4.459626 0.000000 
0.000000 -4.459626 0.000000 
-0.000000 -4.459626 0.000000 
0.000000 -4.459626 0.000000 
-0.000000 -4.459626 0.000000 
0.000000 -4.459626 0.000000 
-0.000000 -4.459626 0.000000 
0.000000 -4.459626 0.000000 
0.000000 -4.459626 0.000000 
TENSORS STRESS float 
-0.000000 -0.000000 0.000000 
0.000000 -0.000000 0.000000 
0.000000 0.000000 0.000000 

0.000000 -0.000000 0.000000 
0.000000 0.000000 0.000000 
0.000000 0.000000 0.000000 

-0.000000 0.000000 0.000000 
0.000000 -0.000000 0.000000 
0.000000 0.000000 0.000000 

0.000000 -0.000000 0.000000 
0.000000 0.000000 0.000000 
0.000000 0.000000 0.000000 

-0.000000 0.000000 0.000000 
0.000000 -0.000000 0.000000 
0.000000 0.000000 0.000000 

0.000000 -0.000000 0.000000 
0.000000 0.000000 0.000000 
0.000000 0.000000 0.000000 

-0.000000 -0.000000 0.000000 
0.000000 -0.000000 0.000000 
0.000000 0.000000 0.000000 

-0.000000 -0.000000 0.000000 
0.000000 -0.000000 0.000000 
0.000000 0.000000 0.000000 

0.000000 -0.000000 0.000000 
0.000000 -0.000000 0.000000 
0.000000 0.000000 0.000000 

-0.000000 -0.000000 0.000000 
0.000000 -0.000000 0.000000 
0.000000 0.000000 0.000000 

-0.000000 -0.000000 0.000000 