# vtk DataFile Version 3.0 
vtk output 
ASCII 
DATASET UNSTRUCTURED_GRID 
POINTS 175 float 
-0.026061 -1.834408 0.000000 
-0.106992 -1.766353 0.000000 
-0.054870 -1.774585 0.000000 
-0.028809 -1.728701 0.000000 
-0.186430 -1.702277 0.000000 
-0.137056 -1.704803 0.000000 
-0.114311 -1.651156 0.000000 
-0.058186 -1.666822 0.000000 
-0.029377 -1.626644 0.000000 
-0.265318 -1.639121 0.000000 
-0.217198 -1.639921 0.000000 
-0.196633 -1.582624 0.000000 
-0.143120 -1.591333 0.000000 
-0.116563 -1.544065 0.000000 
-0.058945 -1.563710 0.000000 
-0.029568 -1.525590 0.000000 
-0.344206 -1.575965 0.000000 
-0.296791 -1.575958 0.000000 
-0.278030 -1.516015 0.000000 
-0.225992 -1.521882 0.000000 
-0.201664 -1.469765 0.000000 
-0.145749 -1.483239 0.000000 
-0.117890 -1.438896 0.000000 
-0.059328 -1.461602 0.000000 
-0.029759 -1.424536 0.000000 
-0.058559 -1.875159 0.000000 
-0.162226 -1.896001 0.000000 
-0.123292 -1.860384 0.000000 
-0.142917 -1.811400 0.000000 
-0.261851 -1.918158 0.000000 
-0.229092 -1.881131 0.000000 
-0.256854 -1.829899 0.000000 
-0.209613 -1.795787 0.000000 
-0.223062 -1.748213 0.000000 
-0.360414 -1.940458 0.000000 
-0.329787 -1.903335 0.000000 
-0.361761 -1.851533 0.000000 
-0.321587 -1.815124 0.000000 
-0.341985 -1.764890 0.000000 
-0.290702 -1.732091 0.000000 
-0.302189 -1.685356 0.000000 
-0.458977 -1.962758 0.000000 
-0.429420 -1.925683 0.000000 
-0.464588 -1.873642 0.000000 
-0.427556 -1.836614 0.000000 
-0.453135 -1.785099 0.000000 
-0.407738 -1.749784 0.000000 
-0.425037 -1.700356 0.000000 
-0.370772 -1.668727 0.000000 
-0.381315 -1.622499 0.000000 
-0.046960 -1.925974 0.000000 
-0.095301 -2.020020 0.000000 
-0.098873 -1.967373 0.000000 
-0.149405 -1.952175 0.000000 
-0.140093 -2.111724 0.000000 
-0.148617 -2.063026 0.000000 
-0.205981 -2.052788 0.000000 
-0.203197 -1.994585 0.000000 
-0.248777 -1.975438 0.000000 
-0.184111 -2.202687 0.000000 
-0.194039 -2.155596 0.000000 
-0.254475 -2.148297 0.000000 
-0.257893 -2.094187 0.000000 
-0.309886 -2.078815 0.000000 
-0.303554 -2.018269 0.000000 
-0.347255 -1.998112 0.000000 
-0.228129 -2.293651 0.000000 
-0.238687 -2.247427 0.000000 
-0.301302 -2.242475 0.000000 
-0.307162 -2.190436 0.000000 
-0.363386 -2.178315 0.000000 
-0.362692 -2.120803 0.000000 
-0.412122 -2.103510 0.000000 
-0.403017 -2.041364 0.000000 
-0.445733 -2.020785 0.000000 
-0.000000 -1.948589 0.000000 
0.043388 -2.045019 0.000000 
-0.000000 -2.014987 0.000000 
-0.043388 -2.045019 0.000000 
0.087158 -2.137216 0.000000 
0.043769 -2.113518 0.000000 
-0.000000 -2.151983 0.000000 
-0.043769 -2.113518 0.000000 
-0.087158 -2.137216 0.000000 
0.130831 -2.228346 0.000000 
0.087824 -2.206747 0.000000 
0.044436 -2.249447 0.000000 
-0.000000 -2.218382 0.000000 
-0.044436 -2.249447 0.000000 
-0.087824 -2.206747 0.000000 
-0.130831 -2.228346 0.000000 
0.174505 -2.319475 0.000000 
0.131782 -2.298909 0.000000 
0.088871 -2.344776 0.000000 
0.044532 -2.316912 0.000000 
-0.000000 -2.353312 0.000000 
-0.044532 -2.316912 0.000000 
-0.088871 -2.344776 0.000000 
-0.131782 -2.298909 0.000000 
-0.174505 -2.319475 0.000000 
0.046960 -1.925974 0.000000 
0.149405 -1.952175 0.000000 
0.098873 -1.967373 0.000000 
0.095301 -2.020020 0.000000 
0.248777 -1.975438 0.000000 
0.203197 -1.994585 0.000000 
0.205981 -2.052788 0.000000 
0.148617 -2.063026 0.000000 
0.140093 -2.111724 0.000000 
0.347255 -1.998112 0.000000 
0.303554 -2.018269 0.000000 
0.309886 -2.078815 0.000000 
0.257893 -2.094187 0.000000 
0.254475 -2.148297 0.000000 
0.194039 -2.155596 0.000000 
0.184111 -2.202687 0.000000 
0.445733 -2.020785 0.000000 
0.403017 -2.041364 0.000000 
0.412122 -2.103510 0.000000 
0.362692 -2.120803 0.000000 
0.363386 -2.178315 0.000000 
0.307162 -2.190436 0.000000 
0.301302 -2.242475 0.000000 
0.238687 -2.247427 0.000000 
0.228129 -2.293651 0.000000 
0.058559 -1.875159 0.000000 
0.142917 -1.811400 0.000000 
0.123292 -1.860384 0.000000 
0.162226 -1.896001 0.000000 
0.223062 -1.748213 0.000000 
0.209613 -1.795787 0.000000 
0.256854 -1.829899 0.000000 
0.229092 -1.881131 0.000000 
0.261851 -1.918158 0.000000 
0.302189 -1.685356 0.000000 
0.290702 -1.732091 0.000000 
0.341985 -1.764890 0.000000 
0.321587 -1.815124 0.000000 
0.361761 -1.851533 0.000000 
0.329787 -1.903335 0.000000 
0.360414 -1.940458 0.000000 
0.381315 -1.622499 0.000000 
0.370772 -1.668727 0.000000 
0.425037 -1.700356 0.000000 
0.407738 -1.749784 0.000000 
0.453135 -1.785099 0.000000 
0.427556 -1.836614 0.000000 
0.464588 -1.873642 0.000000 
0.429420 -1.925683 0.000000 
0.458977 -1.962758 0.000000 
0.026061 -1.834408 0.000000 
0.028809 -1.728701 0.000000 
0.054870 -1.774585 0.000000 
0.106992 -1.766353 0.000000 
0.029377 -1.626644 0.000000 
0.058186 -1.666822 0.000000 
0.114311 -1.651156 0.000000 
0.137056 -1.704803 0.000000 
0.186430 -1.702277 0.000000 
0.029568 -1.525590 0.000000 
0.058945 -1.563710 0.000000 
0.116563 -1.544065 0.000000 
0.143120 -1.591333 0.000000 
0.196633 -1.582624 0.000000 
0.217198 -1.639921 0.000000 
0.265318 -1.639121 0.000000 
0.029759 -1.424536 0.000000 
0.059328 -1.461602 0.000000 
0.117890 -1.438896 0.000000 
0.145749 -1.483239 0.000000 
0.201664 -1.469765 0.000000 
0.225992 -1.521882 0.000000 
0.278030 -1.516015 0.000000 
0.296791 -1.575958 0.000000 
0.344206 -1.575965 0.000000 
CELLS 175 350 
1 0 
1 1 
1 2 
1 3 
1 4 
1 5 
1 6 
1 7 
1 8 
1 9 
1 10 
1 11 
1 12 
1 13 
1 14 
1 15 
1 16 
1 17 
1 18 
1 19 
1 20 
1 21 
1 22 
1 23 
1 24 
1 25 
1 26 
1 27 
1 28 
1 29 
1 30 
1 31 
1 32 
1 33 
1 34 
1 35 
1 36 
1 37 
1 38 
1 39 
1 40 
1 41 
1 42 
1 43 
1 44 
1 45 
1 46 
1 47 
1 48 
1 49 
1 50 
1 51 
1 52 
1 53 
1 54 
1 55 
1 56 
1 57 
1 58 
1 59 
1 60 
1 61 
1 62 
1 63 
1 64 
1 65 
1 66 
1 67 
1 68 
1 69 
1 70 
1 71 
1 72 
1 73 
1 74 
1 75 
1 76 
1 77 
1 78 
1 79 
1 80 
1 81 
1 82 
1 83 
1 84 
1 85 
1 86 
1 87 
1 88 
1 89 
1 90 
1 91 
1 92 
1 93 
1 94 
1 95 
1 96 
1 97 
1 98 
1 99 
1 100 
1 101 
1 102 
1 103 
1 104 
1 105 
1 106 
1 107 
1 108 
1 109 
1 110 
1 111 
1 112 
1 113 
1 114 
1 115 
1 116 
1 117 
1 118 
1 119 
1 120 
1 121 
1 122 
1 123 
1 124 
1 125 
1 126 
1 127 
1 128 
1 129 
1 130 
1 131 
1 132 
1 133 
1 134 
1 135 
1 136 
1 137 
1 138 
1 139 
1 140 
1 141 
1 142 
1 143 
1 144 
1 145 
1 146 
1 147 
1 148 
1 149 
1 150 
1 151 
1 152 
1 153 
1 154 
1 155 
1 156 
1 157 
1 158 
1 159 
1 160 
1 161 
1 162 
1 163 
1 164 
1 165 
1 166 
1 167 
1 168 
1 169 
1 170 
1 171 
1 172 
1 173 
1 174 
CELL_TYPES 175 
1 
1 
1 
1 
1 
1 
1 
1 
1 
1 
1 
1 
1 
1 
1 
1 
1 
1 
1 
1 
1 
1 
1 
1 
1 
1 
1 
1 
1 
1 
1 
1 
1 
1 
1 
1 
1 
1 
1 
1 
1 
1 
1 
1 
1 
1 
1 
1 
1 
1 
1 
1 
1 
1 
1 
1 
1 
1 
1 
1 
1 
1 
1 
1 
1 
1 
1 
1 
1 
1 
1 
1 
1 
1 
1 
1 
1 
1 
1 
1 
1 
1 
1 
1 
1 
1 
1 
1 
1 
1 
1 
1 
1 
1 
1 
1 
1 
1 
1 
1 
1 
1 
1 
1 
1 
1 
1 
1 
1 
1 
1 
1 
1 
1 
1 
1 
1 
1 
1 
1 
1 
1 
1 
1 
1 
1 
1 
1 
1 
1 
1 
1 
1 
1 
1 
1 
1 
1 
1 
1 
1 
1 
1 
1 
1 
1 
1 
1 
1 
1 
1 
1 
1 
1 
1 
1 
1 
1 
1 
1 
1 
1 
1 
1 
1 
1 
1 
1 
1 
1 
1 
1 
1 
1 
1 
POINT_DATA 175 
VECTORS X_GC float 
-0.026061 -1.834408 0.000000 
-0.106992 -1.766353 0.000000 
-0.054870 -1.774585 0.000000 
-0.028809 -1.728701 0.000000 
-0.186430 -1.702277 0.000000 
-0.137056 -1.704803 0.000000 
-0.114311 -1.651156 0.000000 
-0.058186 -1.666822 0.000000 
-0.029377 -1.626644 0.000000 
-0.265318 -1.639121 0.000000 
-0.217198 -1.639921 0.000000 
-0.196633 -1.582624 0.000000 
-0.143120 -1.591333 0.000000 
-0.116563 -1.544065 0.000000 
-0.058945 -1.563710 0.000000 
-0.029568 -1.525590 0.000000 
-0.344206 -1.575965 0.000000 
-0.296791 -1.575958 0.000000 
-0.278030 -1.516015 0.000000 
-0.225992 -1.521882 0.000000 
-0.201664 -1.469765 0.000000 
-0.145749 -1.483239 0.000000 
-0.117890 -1.438896 0.000000 
-0.059328 -1.461602 0.000000 
-0.029759 -1.424536 0.000000 
-0.058559 -1.875159 0.000000 
-0.162226 -1.896001 0.000000 
-0.123292 -1.860384 0.000000 
-0.142917 -1.811400 0.000000 
-0.261851 -1.918158 0.000000 
-0.229092 -1.881131 0.000000 
-0.256854 -1.829899 0.000000 
-0.209613 -1.795787 0.000000 
-0.223062 -1.748213 0.000000 
-0.360414 -1.940458 0.000000 
-0.329787 -1.903335 0.000000 
-0.361761 -1.851533 0.000000 
-0.321587 -1.815124 0.000000 
-0.341985 -1.764890 0.000000 
-0.290702 -1.732091 0.000000 
-0.302189 -1.685356 0.000000 
-0.458977 -1.962758 0.000000 
-0.429420 -1.925683 0.000000 
-0.464588 -1.873642 0.000000 
-0.427556 -1.836614 0.000000 
-0.453135 -1.785099 0.000000 
-0.407738 -1.749784 0.000000 
-0.425037 -1.700356 0.000000 
-0.370772 -1.668727 0.000000 
-0.381315 -1.622499 0.000000 
-0.046960 -1.925974 0.000000 
-0.095301 -2.020020 0.000000 
-0.098873 -1.967373 0.000000 
-0.149405 -1.952175 0.000000 
-0.140093 -2.111724 0.000000 
-0.148617 -2.063026 0.000000 
-0.205981 -2.052788 0.000000 
-0.203197 -1.994585 0.000000 
-0.248777 -1.975438 0.000000 
-0.184111 -2.202687 0.000000 
-0.194039 -2.155596 0.000000 
-0.254475 -2.148297 0.000000 
-0.257893 -2.094187 0.000000 
-0.309886 -2.078815 0.000000 
-0.303554 -2.018269 0.000000 
-0.347255 -1.998112 0.000000 
-0.228129 -2.293651 0.000000 
-0.238687 -2.247427 0.000000 
-0.301302 -2.242475 0.000000 
-0.307162 -2.190436 0.000000 
-0.363386 -2.178315 0.000000 
-0.362692 -2.120803 0.000000 
-0.412122 -2.103510 0.000000 
-0.403017 -2.041364 0.000000 
-0.445733 -2.020785 0.000000 
-0.000000 -1.948589 0.000000 
0.043388 -2.045019 0.000000 
-0.000000 -2.014987 0.000000 
-0.043388 -2.045019 0.000000 
0.087158 -2.137216 0.000000 
0.043769 -2.113518 0.000000 
-0.000000 -2.151983 0.000000 
-0.043769 -2.113518 0.000000 
-0.087158 -2.137216 0.000000 
0.130831 -2.228346 0.000000 
0.087824 -2.206747 0.000000 
0.044436 -2.249447 0.000000 
-0.000000 -2.218382 0.000000 
-0.044436 -2.249447 0.000000 
-0.087824 -2.206747 0.000000 
-0.130831 -2.228346 0.000000 
0.174505 -2.319475 0.000000 
0.131782 -2.298909 0.000000 
0.088871 -2.344776 0.000000 
0.044532 -2.316912 0.000000 
-0.000000 -2.353312 0.000000 
-0.044532 -2.316912 0.000000 
-0.088871 -2.344776 0.000000 
-0.131782 -2.298909 0.000000 
-0.174505 -2.319475 0.000000 
0.046960 -1.925974 0.000000 
0.149405 -1.952175 0.000000 
0.098873 -1.967373 0.000000 
0.095301 -2.020020 0.000000 
0.248777 -1.975438 0.000000 
0.203197 -1.994585 0.000000 
0.205981 -2.052788 0.000000 
0.148617 -2.063026 0.000000 
0.140093 -2.111724 0.000000 
0.347255 -1.998112 0.000000 
0.303554 -2.018269 0.000000 
0.309886 -2.078815 0.000000 
0.257893 -2.094187 0.000000 
0.254475 -2.148297 0.000000 
0.194039 -2.155596 0.000000 
0.184111 -2.202687 0.000000 
0.445733 -2.020785 0.000000 
0.403017 -2.041364 0.000000 
0.412122 -2.103510 0.000000 
0.362692 -2.120803 0.000000 
0.363386 -2.178315 0.000000 
0.307162 -2.190436 0.000000 
0.301302 -2.242475 0.000000 
0.238687 -2.247427 0.000000 
0.228129 -2.293651 0.000000 
0.058559 -1.875159 0.000000 
0.142917 -1.811400 0.000000 
0.123292 -1.860384 0.000000 
0.162226 -1.896001 0.000000 
0.223062 -1.748213 0.000000 
0.209613 -1.795787 0.000000 
0.256854 -1.829899 0.000000 
0.229092 -1.881131 0.000000 
0.261851 -1.918158 0.000000 
0.302189 -1.685356 0.000000 
0.290702 -1.732091 0.000000 
0.341985 -1.764890 0.000000 
0.321587 -1.815124 0.000000 
0.361761 -1.851533 0.000000 
0.329787 -1.903335 0.000000 
0.360414 -1.940458 0.000000 
0.381315 -1.622499 0.000000 
0.370772 -1.668727 0.000000 
0.425037 -1.700356 0.000000 
0.407738 -1.749784 0.000000 
0.453135 -1.785099 0.000000 
0.427556 -1.836614 0.000000 
0.464588 -1.873642 0.000000 
0.429420 -1.925683 0.000000 
0.458977 -1.962758 0.000000 
0.026061 -1.834408 0.000000 
0.028809 -1.728701 0.000000 
0.054870 -1.774585 0.000000 
0.106992 -1.766353 0.000000 
0.029377 -1.626644 0.000000 
0.058186 -1.666822 0.000000 
0.114311 -1.651156 0.000000 
0.137056 -1.704803 0.000000 
0.186430 -1.702277 0.000000 
0.029568 -1.525590 0.000000 
0.058945 -1.563710 0.000000 
0.116563 -1.544065 0.000000 
0.143120 -1.591333 0.000000 
0.196633 -1.582624 0.000000 
0.217198 -1.639921 0.000000 
0.265318 -1.639121 0.000000 
0.029759 -1.424536 0.000000 
0.059328 -1.461602 0.000000 
0.117890 -1.438896 0.000000 
0.145749 -1.483239 0.000000 
0.201664 -1.469765 0.000000 
0.225992 -1.521882 0.000000 
0.278030 -1.516015 0.000000 
0.296791 -1.575958 0.000000 
0.344206 -1.575965 0.000000 
VECTORS X_EC float 
0.338794 -0.735493 0.000000 
-0.609100 0.345759 0.000000 
0.713312 0.456900 0.000000 
0.374519 -0.162530 0.000000 
0.423588 -0.519260 0.000000 
-0.218274 -0.485157 0.000000 
-0.513962 0.790604 0.000000 
0.756418 -0.997910 0.000000 
0.381900 0.459698 0.000000 
-0.550868 0.628136 0.000000 
0.823577 0.638932 0.000000 
0.556234 -0.134572 0.000000 
-0.139443 -0.017003 0.000000 
-0.484677 -0.655128 0.000000 
0.766286 -0.389913 0.000000 
0.384386 -0.904533 0.000000 
0.474677 -0.224467 0.000000 
-0.141715 -0.224563 0.000000 
-0.385608 0.966209 0.000000 
0.937896 -0.954596 0.000000 
0.621631 0.341824 0.000000 
-0.105264 0.523723 0.000000 
-0.467428 -0.074903 0.000000 
0.771260 0.231626 0.000000 
0.386873 -0.268764 0.000000 
0.761262 -0.185358 0.000000 
0.108942 0.096018 0.000000 
-0.397202 -0.384821 0.000000 
-0.142083 0.953904 0.000000 
-0.595936 0.395129 0.000000 
0.978194 -0.104737 0.000000 
-0.660903 -0.796362 0.000000 
0.724964 0.743118 0.000000 
0.899809 0.100870 0.000000 
0.685384 0.696181 0.000000 
0.287229 0.195023 0.000000 
0.702895 -0.504306 0.000000 
0.180633 -0.995824 0.000000 
0.445811 0.326016 0.000000 
-0.220880 -0.116770 0.000000 
-0.071546 -0.747696 0.000000 
-0.033296 0.997233 0.000000 
-0.417537 0.496724 0.000000 
0.039645 -0.205839 0.000000 
-0.441768 -0.705710 0.000000 
-0.109248 0.598839 0.000000 
-0.699407 0.122084 0.000000 
-0.474522 -0.545195 0.000000 
0.820030 -0.972189 0.000000 
0.957100 0.403740 0.000000 
0.610485 0.500648 0.000000 
-0.761092 -0.229732 0.000000 
-0.714655 -0.940470 0.000000 
-0.057734 0.854363 0.000000 
-0.178789 -0.991728 0.000000 
-0.067979 0.350846 0.000000 
0.677748 0.212642 0.000000 
0.641556 -0.573103 0.000000 
-0.765897 -0.831582 0.000000 
0.393446 0.236281 0.000000 
0.522510 -0.399449 0.000000 
-0.691820 -0.497993 0.000000 
-0.647393 0.771524 0.000000 
0.028512 0.563997 0.000000 
-0.053800 -0.253363 0.000000 
0.514316 -0.525494 0.000000 
0.965681 -0.535710 0.000000 
-0.897068 0.840261 0.000000 
-0.083078 0.773408 0.000000 
-0.006893 0.070884 0.000000 
0.724017 -0.092749 0.000000 
0.714996 -0.869153 0.000000 
-0.642413 0.897390 0.000000 
-0.760780 0.058409 0.000000 
-0.205471 -0.219406 0.000000 
0.000000 0.805950 0.000000 
-0.564049 0.107763 0.000000 
0.000000 -0.297673 0.000000 
0.564049 0.107763 0.000000 
0.866949 -0.647582 0.000000 
-0.569003 -0.967513 0.000000 
0.000000 -0.448225 0.000000 
0.569003 -0.967513 0.000000 
-0.866949 -0.647582 0.000000 
0.299194 0.582668 0.000000 
0.858290 0.291084 0.000000 
-0.577662 0.867530 0.000000 
0.000000 0.448152 0.000000 
0.577662 0.867530 0.000000 
-0.858290 0.291084 0.000000 
-0.299194 0.582668 0.000000 
-0.268560 -0.187082 0.000000 
0.286830 -0.464724 0.000000 
0.844677 0.154475 0.000000 
-0.578910 -0.221688 0.000000 
0.000000 0.269716 0.000000 
0.578910 -0.221688 0.000000 
-0.844677 0.154475 0.000000 
-0.286830 -0.464724 0.000000 
0.268560 -0.187082 0.000000 
-0.610485 0.500648 0.000000 
0.057734 0.854363 0.000000 
0.714655 -0.940470 0.000000 
0.761092 -0.229732 0.000000 
0.765897 -0.831582 0.000000 
-0.641556 -0.573103 0.000000 
-0.677748 0.212642 0.000000 
0.067979 0.350846 0.000000 
0.178789 -0.991728 0.000000 
-0.514316 -0.525494 0.000000 
0.053800 -0.253363 0.000000 
-0.028512 0.563997 0.000000 
0.647393 0.771524 0.000000 
0.691820 -0.497993 0.000000 
-0.522510 -0.399449 0.000000 
-0.393446 0.236281 0.000000 
0.205471 -0.219406 0.000000 
0.760780 0.058409 0.000000 
0.642413 0.897390 0.000000 
-0.714996 -0.869153 0.000000 
-0.724017 -0.092749 0.000000 
0.006894 0.070884 0.000000 
0.083078 0.773408 0.000000 
0.897068 0.840261 0.000000 
-0.965681 -0.535710 0.000000 
-0.761262 -0.185358 0.000000 
0.142083 0.953904 0.000000 
0.397202 -0.384821 0.000000 
-0.108942 0.096018 0.000000 
-0.899809 0.100870 0.000000 
-0.724964 0.743118 0.000000 
0.660903 -0.796362 0.000000 
-0.978194 -0.104737 0.000000 
0.595936 0.395129 0.000000 
0.071546 -0.747695 0.000000 
0.220880 -0.116770 0.000000 
-0.445811 0.326016 0.000000 
-0.180633 -0.995824 0.000000 
-0.702895 -0.504306 0.000000 
-0.287229 0.195023 0.000000 
-0.685384 0.696181 0.000000 
-0.957100 0.403740 0.000000 
-0.820030 -0.972189 0.000000 
0.474522 -0.545195 0.000000 
0.699407 0.122084 0.000000 
0.109248 0.598839 0.000000 
0.441768 -0.705710 0.000000 
-0.039645 -0.205839 0.000000 
0.417537 0.496724 0.000000 
0.033296 0.997233 0.000000 
-0.338794 -0.735493 0.000000 
-0.374519 -0.162530 0.000000 
-0.713312 0.456900 0.000000 
0.609100 0.345759 0.000000 
-0.381900 0.459698 0.000000 
-0.756418 -0.997910 0.000000 
0.513962 0.790604 0.000000 
0.218274 -0.485157 0.000000 
-0.423588 -0.519260 0.000000 
-0.384386 -0.904533 0.000000 
-0.766286 -0.389913 0.000000 
0.484677 -0.655128 0.000000 
0.139443 -0.017003 0.000000 
-0.556234 -0.134572 0.000000 
-0.823577 0.638932 0.000000 
0.550868 0.628136 0.000000 
-0.386873 -0.268764 0.000000 
-0.771260 0.231626 0.000000 
0.467428 -0.074903 0.000000 
0.105264 0.523723 0.000000 
-0.621631 0.341824 0.000000 
-0.937896 -0.954596 0.000000 
0.385608 0.966209 0.000000 
0.141715 -0.224563 0.000000 
-0.474677 -0.224467 0.000000 
CELL_DATA 175 
SCALARS MASS float 
LOOKUP_TABLE default 
0.781831 
0.864274 
0.946717 
0.864274 
0.881307 
0.921110 
0.858535 
0.921110 
0.881307 
0.887046 
0.910001 
0.869829 
0.915556 
0.869829 
0.910001 
0.887046 
0.892784 
0.915740 
0.892784 
0.927218 
0.892784 
0.927218 
0.892784 
0.915740 
0.892784 
0.781831 
0.864274 
0.946717 
0.864274 
0.881307 
0.921110 
0.858535 
0.921110 
0.881307 
0.887046 
0.910001 
0.869829 
0.915556 
0.869829 
0.910001 
0.887046 
0.892784 
0.915740 
0.892784 
0.927218 
0.892784 
0.927218 
0.892784 
0.915740 
0.892784 
0.781831 
0.864274 
0.946717 
0.864274 
0.881307 
0.921110 
0.858535 
0.921110 
0.881307 
0.887046 
0.910001 
0.869829 
0.915556 
0.869829 
0.910001 
0.887046 
0.892784 
0.915740 
0.892784 
0.927218 
0.892784 
0.927218 
0.892784 
0.915740 
0.892784 
0.781831 
0.864274 
0.946717 
0.864274 
0.881307 
0.921110 
0.858535 
0.921110 
0.881307 
0.887046 
0.910001 
0.869829 
0.915556 
0.869829 
0.910001 
0.887046 
0.892784 
0.915740 
0.892784 
0.927218 
0.892784 
0.927218 
0.892784 
0.915740 
0.892784 
0.781831 
0.864274 
0.946717 
0.864274 
0.881307 
0.921110 
0.858535 
0.921110 
0.881307 
0.887046 
0.910001 
0.869829 
0.915556 
0.869829 
0.910001 
0.887046 
0.892784 
0.915740 
0.892784 
0.927218 
0.892784 
0.927218 
0.892784 
0.915740 
0.892784 
0.781831 
0.864274 
0.946717 
0.864274 
0.881307 
0.921110 
0.858535 
0.921110 
0.881307 
0.887046 
0.910001 
0.869829 
0.915556 
0.869829 
0.910001 
0.887046 
0.892784 
0.915740 
0.892784 
0.927218 
0.892784 
0.927218 
0.892784 
0.915740 
0.892784 
0.781831 
0.864274 
0.946717 
0.864274 
0.881307 
0.921110 
0.858535 
0.921110 
0.881307 
0.887046 
0.910001 
0.869829 
0.915556 
0.869829 
0.910001 
0.887046 
0.892784 
0.915740 
0.892784 
0.927218 
0.892784 
0.927218 
0.892784 
0.915740 
0.892784 
SCALARS MASS float 
LOOKUP_TABLE default 
0.781831 
0.864274 
0.946717 
0.864274 
0.881307 
0.921110 
0.858535 
0.921110 
0.881307 
0.887046 
0.910001 
0.869829 
0.915556 
0.869829 
0.910001 
0.887046 
0.892784 
0.915740 
0.892784 
0.927218 
0.892784 
0.927218 
0.892784 
0.915740 
0.892784 
0.781831 
0.864274 
0.946717 
0.864274 
0.881307 
0.921110 
0.858535 
0.921110 
0.881307 
0.887046 
0.910001 
0.869829 
0.915556 
0.869829 
0.910001 
0.887046 
0.892784 
0.915740 
0.892784 
0.927218 
0.892784 
0.927218 
0.892784 
0.915740 
0.892784 
0.781831 
0.864274 
0.946717 
0.864274 
0.881307 
0.921110 
0.858535 
0.921110 
0.881307 
0.887046 
0.910001 
0.869829 
0.915556 
0.869829 
0.910001 
0.887046 
0.892784 
0.915740 
0.892784 
0.927218 
0.892784 
0.927218 
0.892784 
0.915740 
0.892784 
0.781831 
0.864274 
0.946717 
0.864274 
0.881307 
0.921110 
0.858535 
0.921110 
0.881307 
0.887046 
0.910001 
0.869829 
0.915556 
0.869829 
0.910001 
0.887046 
0.892784 
0.915740 
0.892784 
0.927218 
0.892784 
0.927218 
0.892784 
0.915740 
0.892784 
0.781831 
0.864274 
0.946717 
0.864274 
0.881307 
0.921110 
0.858535 
0.921110 
0.881307 
0.887046 
0.910001 
0.869829 
0.915556 
0.869829 
0.910001 
0.887046 
0.892784 
0.915740 
0.892784 
0.927218 
0.892784 
0.927218 
0.892784 
0.915740 
0.892784 
0.781831 
0.864274 
0.946717 
0.864274 
0.881307 
0.921110 
0.858535 
0.921110 
0.881307 
0.887046 
0.910001 
0.869829 
0.915556 
0.869829 
0.910001 
0.887046 
0.892784 
0.915740 
0.892784 
0.927218 
0.892784 
0.927218 
0.892784 
0.915740 
0.892784 
0.781831 
0.864274 
0.946717 
0.864274 
0.881307 
0.921110 
0.858535 
0.921110 
0.881307 
0.887046 
0.910001 
0.869829 
0.915556 
0.869829 
0.910001 
0.887046 
0.892784 
0.915740 
0.892784 
0.927218 
0.892784 
0.927218 
0.892784 
0.915740 
0.892784 
SCALARS DENSITY float 
LOOKUP_TABLE default 
200.000000 
200.000000 
200.000000 
200.000000 
200.000000 
200.000000 
200.000000 
200.000000 
200.000000 
200.000000 
200.000000 
200.000000 
200.000000 
200.000000 
200.000000 
200.000000 
200.000000 
200.000000 
200.000000 
200.000000 
200.000000 
200.000000 
200.000000 
200.000000 
200.000000 
200.000000 
200.000000 
200.000000 
200.000000 
200.000000 
200.000000 
200.000000 
200.000000 
200.000000 
200.000000 
200.000000 
200.000000 
200.000000 
200.000000 
200.000000 
200.000000 
200.000000 
200.000000 
200.000000 
200.000000 
200.000000 
200.000000 
200.000000 
200.000000 
200.000000 
200.000000 
200.000000 
200.000000 
200.000000 
200.000000 
200.000000 
200.000000 
200.000000 
200.000000 
200.000000 
200.000000 
200.000000 
200.000000 
200.000000 
200.000000 
200.000000 
200.000000 
200.000000 
200.000000 
200.000000 
200.000000 
200.000000 
200.000000 
200.000000 
200.000000 
200.000000 
200.000000 
200.000000 
200.000000 
200.000000 
200.000000 
200.000000 
200.000000 
200.000000 
200.000000 
200.000000 
200.000000 
200.000000 
200.000000 
200.000000 
200.000000 
200.000000 
200.000000 
200.000000 
200.000000 
200.000000 
200.000000 
200.000000 
200.000000 
200.000000 
200.000000 
200.000000 
200.000000 
200.000000 
200.000000 
200.000000 
200.000000 
200.000000 
200.000000 
200.000000 
200.000000 
200.000000 
200.000000 
200.000000 
200.000000 
200.000000 
200.000000 
200.000000 
200.000000 
200.000000 
200.000000 
200.000000 
200.000000 
200.000000 
200.000000 
200.000000 
200.000000 
200.000000 
200.000000 
200.000000 
200.000000 
200.000000 
200.000000 
200.000000 
200.000000 
200.000000 
200.000000 
200.000000 
200.000000 
200.000000 
200.000000 
200.000000 
200.000000 
200.000000 
200.000000 
200.000000 
200.000000 
200.000000 
200.000000 
200.000000 
200.000000 
200.000000 
200.000000 
200.000000 
200.000000 
200.000000 
200.000000 
200.000000 
200.000000 
200.000000 
200.000000 
200.000000 
200.000000 
200.000000 
200.000000 
200.000000 
200.000000 
200.000000 
200.000000 
200.000000 
200.000000 
200.000000 
200.000000 
200.000000 
200.000000 
SCALARS ELEM_i float 
LOOKUP_TABLE default 
169 
197 
170 
170 
197 
197 
198 
170 
171 
225 
198 
198 
198 
198 
171 
171 
225 
225 
226 
198 
199 
199 
199 
172 
172 
169 
196 
196 
197 
223 
196 
223 
197 
197 
223 
223 
223 
223 
224 
224 
224 
250 
250 
250 
250 
251 
251 
251 
224 
225 
169 
195 
195 
196 
194 
195 
195 
195 
222 
194 
194 
221 
222 
222 
222 
222 
193 
221 
221 
221 
221 
221 
249 
249 
249 
169 
168 
168 
168 
140 
167 
167 
167 
194 
140 
140 
167 
167 
167 
194 
194 
139 
139 
139 
166 
166 
166 
193 
193 
193 
169 
142 
141 
141 
114 
141 
141 
141 
140 
114 
114 
114 
114 
113 
140 
140 
87 
87 
87 
113 
113 
113 
113 
113 
139 
169 
143 
142 
142 
143 
143 
115 
142 
115 
116 
116 
116 
115 
115 
115 
115 
117 
116 
89 
89 
89 
88 
88 
88 
88 
169 
170 
170 
143 
171 
170 
144 
143 
143 
171 
171 
144 
144 
144 
144 
117 
172 
172 
145 
145 
145 
144 
118 
117 
117 
VECTORS VELOCITY float 
0.000000 -6.086124 0.000000 
0.000000 -6.086124 0.000000 
0.000000 -6.086124 0.000000 
0.000000 -6.086124 0.000000 
0.000000 -6.086124 0.000000 
0.000000 -6.086124 0.000000 
0.000000 -6.086124 0.000000 
0.000000 -6.086124 0.000000 
0.000000 -6.086124 0.000000 
0.000000 -6.086124 0.000000 
0.000000 -6.086124 0.000000 
0.000000 -6.086124 0.000000 
0.000000 -6.086124 0.000000 
-0.000000 -6.086124 0.000000 
-0.000000 -6.086124 0.000000 
-0.000000 -6.086124 0.000000 
-0.000000 -6.086124 0.000000 
0.000000 -6.086124 0.000000 
0.000000 -6.086124 0.000000 
0.000000 -6.086124 0.000000 
0.000000 -6.086124 0.000000 
-0.000000 -6.086124 0.000000 
0.000000 -6.086124 0.000000 
0.000000 -6.086124 0.000000 
-0.000000 -6.086124 0.000000 
0.000000 -6.086124 0.000000 
0.000000 -6.086124 0.000000 
0.000000 -6.086124 0.000000 
0.000000 -6.086124 0.000000 
-0.000000 -6.086124 0.000000 
-0.000000 -6.086124 0.000000 
-0.000000 -6.086124 0.000000 
-0.000000 -6.086124 0.000000 
0.000000 -6.086124 0.000000 
-0.000000 -6.086124 0.000000 
-0.000000 -6.086124 0.000000 
0.000000 -6.086124 0.000000 
-0.000000 -6.086124 0.000000 
-0.000000 -6.086124 0.000000 
-0.000000 -6.086124 0.000000 
-0.000000 -6.086124 0.000000 
0.000000 -6.086124 0.000000 
0.000000 -6.086124 0.000000 
0.000000 -6.086124 0.000000 
0.000000 -6.086124 0.000000 
0.000000 -6.086124 0.000000 
-0.000000 -6.086124 0.000000 
-0.000000 -6.086124 0.000000 
-0.000000 -6.086124 0.000000 
-0.000000 -6.086124 0.000000 
0.000000 -6.086124 0.000000 
0.000000 -6.086124 0.000000 
0.000000 -6.086124 0.000000 
-0.000000 -6.086124 0.000000 
0.000000 -6.086124 0.000000 
0.000000 -6.086124 0.000000 
-0.000000 -6.086124 0.000000 
-0.000000 -6.086124 0.000000 
-0.000000 -6.086124 0.000000 
-0.000000 -6.086124 0.000000 
-0.000000 -6.086124 0.000000 
-0.000000 -6.086124 0.000000 
-0.000000 -6.086124 0.000000 
0.000000 -6.086124 0.000000 
0.000000 -6.086124 0.000000 
-0.000000 -6.086124 0.000000 
-0.000000 -6.086124 0.000000 
-0.000000 -6.086124 0.000000 
-0.000000 -6.086124 0.000000 
-0.000000 -6.086124 0.000000 
0.000000 -6.086124 0.000000 
0.000000 -6.086124 0.000000 
-0.000000 -6.086124 0.000000 
0.000000 -6.086124 0.000000 
0.000000 -6.086124 0.000000 
0.000000 -6.086124 0.000000 
-0.000000 -6.086124 0.000000 
-0.000000 -6.086124 0.000000 
0.000000 -6.086124 0.000000 
0.000000 -6.086124 0.000000 
0.000000 -6.086124 0.000000 
0.000000 -6.086124 0.000000 
0.000000 -6.086124 0.000000 
0.000000 -6.086124 0.000000 
-0.000000 -6.086124 0.000000 
-0.000000 -6.086124 0.000000 
-0.000000 -6.086124 0.000000 
-0.000000 -6.086124 0.000000 
-0.000000 -6.086124 0.000000 
-0.000000 -6.086124 0.000000 
-0.000000 -6.086124 0.000000 
-0.000000 -6.086124 0.000000 
-0.000000 -6.086124 0.000000 
0.000000 -6.086124 0.000000 
0.000000 -6.086124 0.000000 
0.000000 -6.086124 0.000000 
-0.000000 -6.086124 0.000000 
-0.000000 -6.086124 0.000000 
-0.000000 -6.086124 0.000000 
-0.000000 -6.086124 0.000000 
0.000000 -6.086124 0.000000 
-0.000000 -6.086124 0.000000 
-0.000000 -6.086124 0.000000 
-0.000000 -6.086124 0.000000 
0.000000 -6.086124 0.000000 
0.000000 -6.086124 0.000000 
-0.000000 -6.086124 0.000000 
-0.000000 -6.086124 0.000000 
0.000000 -6.086124 0.000000 
-0.000000 -6.086124 0.000000 
-0.000000 -6.086124 0.000000 
-0.000000 -6.086124 0.000000 
-0.000000 -6.086124 0.000000 
-0.000000 -6.086124 0.000000 
0.000000 -6.086124 0.000000 
0.000000 -6.086124 0.000000 
0.000000 -6.086124 0.000000 
-0.000000 -6.086124 0.000000 
-0.000000 -6.086124 0.000000 
-0.000000 -6.086124 0.000000 
-0.000000 -6.086124 0.000000 
-0.000000 -6.086124 0.000000 
-0.000000 -6.086124 0.000000 
0.000000 -6.086124 0.000000 
-0.000000 -6.086124 0.000000 
0.000000 -6.086124 0.000000 
-0.000000 -6.086124 0.000000 
-0.000000 -6.086124 0.000000 
-0.000000 -6.086124 0.000000 
0.000000 -6.086124 0.000000 
-0.000000 -6.086124 0.000000 
-0.000000 -6.086124 0.000000 
-0.000000 -6.086124 0.000000 
-0.000000 -6.086124 0.000000 
0.000000 -6.086124 0.000000 
0.000000 -6.086124 0.000000 
0.000000 -6.086124 0.000000 
0.000000 -6.086124 0.000000 
0.000000 -6.086124 0.000000 
0.000000 -6.086124 0.000000 
0.000000 -6.086124 0.000000 
0.000000 -6.086124 0.000000 
0.000000 -6.086124 0.000000 
0.000000 -6.086124 0.000000 
0.000000 -6.086124 0.000000 
0.000000 -6.086124 0.000000 
0.000000 -6.086124 0.000000 
-0.000000 -6.086124 0.000000 
0.000000 -6.086124 0.000000 
0.000000 -6.086124 0.000000 
0.000000 -6.086124 0.000000 
0.000000 -6.086124 0.000000 
-0.000000 -6.086124 0.000000 
-0.000000 -6.086124 0.000000 
0.000000 -6.086124 0.000000 
-0.000000 -6.086124 0.000000 
-0.000000 -6.086124 0.000000 
0.000000 -6.086124 0.000000 
0.000000 -6.086124 0.000000 
0.000000 -6.086124 0.000000 
-0.000000 -6.086124 0.000000 
0.000000 -6.086124 0.000000 
-0.000000 -6.086124 0.000000 
0.000000 -6.086124 0.000000 
0.000000 -6.086124 0.000000 
0.000000 -6.086124 0.000000 
-0.000000 -6.086124 0.000000 
-0.000000 -6.086124 0.000000 
0.000000 -6.086124 0.000000 
-0.000000 -6.086124 0.000000 
-0.000000 -6.086124 0.000000 
-0.000000 -6.086124 0.000000 
-0.000000 -6.086124 0.000000 
0.000000 -6.086124 0.000000 
0.000000 -6.086124 0.000000 
TENSORS STRESS float 
-0.000000 0.000000 0.000000 
0.000000 -0.000000 0.000000 
0.000000 0.000000 0.000000 

0.000000 -0.000000 0.000000 
0.000000 0.000000 0.000000 
0.000000 0.000000 0.000000 

0.000000 -0.000000 0.000000 
0.000000 0.000000 0.000000 
0.000000 0.000000 0.000000 

0.000000 -0.000000 0.000000 
0.000000 0.000000 0.000000 
0.000000 0.000000 0.000000 

0.000000 -0.000000 0.000000 
0.000000 0.000000 0.000000 
0.000000 0.000000 0.000000 

0.000000 -0.000000 0.000000 
0.000000 0.000000 0.000000 
0.000000 0.000000 0.000000 

0.000000 -0.000000 0.000000 
0.000000 0.000000 0.000000 
0.000000 0.000000 0.000000 

-0.000000 -0.000000 0.000000 
0.000000 -0.000000 0.000000 
0.000000 0.000000 0.000000 

0.000000 -0.000000 0.000000 
0.000000 0.000000 0.000000 
0.000000 0.000000 0.000000 

0.000000 0.000000 0.000000 
0.000000 0.000000 0.000000 
0.000000 0.000000 0.000000 

-0.000000 -0.000000 0.000000 