# vtk DataFile Version 3.0 
vtk output 
ASCII 
DATASET UNSTRUCTURED_GRID 
POINTS 175 float 
-0.028082 -2.892972 0.000000 
-0.113694 -2.834877 0.000000 
-0.058342 -2.844112 0.000000 
-0.030216 -2.800983 0.000000 
-0.194508 -2.770710 0.000000 
-0.142891 -2.775598 0.000000 
-0.117271 -2.725086 0.000000 
-0.059771 -2.742274 0.000000 
-0.029952 -2.703141 0.000000 
-0.270839 -2.704088 0.000000 
-0.221855 -2.708737 0.000000 
-0.197770 -2.653407 0.000000 
-0.144254 -2.664777 0.000000 
-0.116398 -2.618738 0.000000 
-0.059031 -2.640374 0.000000 
-0.029501 -2.601917 0.000000 
-0.345753 -2.634515 0.000000 
-0.298132 -2.638949 0.000000 
-0.276168 -2.581242 0.000000 
-0.224632 -2.591808 0.000000 
-0.199410 -2.540251 0.000000 
-0.144476 -2.556471 0.000000 
-0.116617 -2.512879 0.000000 
-0.058958 -2.537724 0.000000 
-0.029589 -2.500302 0.000000 
-0.063429 -2.917085 0.000000 
-0.178504 -2.924758 0.000000 
-0.134219 -2.907380 0.000000 
-0.153540 -2.873752 0.000000 
-0.294437 -2.931750 0.000000 
-0.252511 -2.915302 0.000000 
-0.278854 -2.882327 0.000000 
-0.224485 -2.857544 0.000000 
-0.235971 -2.812732 0.000000 
-0.414642 -2.937627 0.000000 
-0.370843 -2.922466 0.000000 
-0.398021 -2.890694 0.000000 
-0.347888 -2.865868 0.000000 
-0.363290 -2.818489 0.000000 
-0.305709 -2.791956 0.000000 
-0.312959 -2.745758 0.000000 
-0.537964 -2.934100 0.000000 
-0.492978 -2.922050 0.000000 
-0.519890 -2.887315 0.000000 
-0.468753 -2.867824 0.000000 
-0.484461 -2.817817 0.000000 
-0.430033 -2.794806 0.000000 
-0.439899 -2.744562 0.000000 
-0.381405 -2.723649 0.000000 
-0.387205 -2.676903 0.000000 
-0.050731 -2.939753 0.000000 
-0.104796 -2.966537 0.000000 
-0.109369 -2.952916 0.000000 
-0.166802 -2.947216 0.000000 
-0.158796 -2.981327 0.000000 
-0.167827 -2.974037 0.000000 
-0.235696 -2.971502 0.000000 
-0.230268 -2.958722 0.000000 
-0.285414 -2.952719 0.000000 
-0.218677 -2.989825 0.000000 
-0.226705 -2.985793 0.000000 
-0.313460 -2.984749 0.000000 
-0.310614 -2.977949 0.000000 
-0.380794 -2.975088 0.000000 
-0.360382 -2.963214 0.000000 
-0.411914 -2.957245 0.000000 
-0.293931 -2.994919 0.000000 
-0.305241 -2.992616 0.000000 
-0.406340 -2.992156 0.000000 
-0.403289 -2.988376 0.000000 
-0.481115 -2.985821 0.000000 
-0.464044 -2.979470 0.000000 
-0.521356 -2.974817 0.000000 
-0.492604 -2.963502 0.000000 
-0.539294 -2.954849 0.000000 
-0.000000 -2.947557 0.000000 
0.046393 -2.971777 0.000000 
-0.000000 -2.965779 0.000000 
-0.046393 -2.971777 0.000000 
0.095170 -2.984643 0.000000 
0.046671 -2.982126 0.000000 
-0.000000 -2.986171 0.000000 
-0.046671 -2.982126 0.000000 
-0.095170 -2.984643 0.000000 
0.153843 -2.991686 0.000000 
0.098894 -2.990443 0.000000 
0.049408 -2.992987 0.000000 
-0.000000 -2.991243 0.000000 
-0.049408 -2.992987 0.000000 
-0.098894 -2.990443 0.000000 
-0.153843 -2.991686 0.000000 
0.214441 -2.995916 0.000000 
0.158656 -2.995137 0.000000 
0.105041 -2.996738 0.000000 
0.050551 -2.995827 0.000000 
-0.000000 -2.996985 0.000000 
-0.050551 -2.995827 0.000000 
-0.105041 -2.996738 0.000000 
-0.158656 -2.995137 0.000000 
-0.214441 -2.995916 0.000000 
0.050731 -2.939753 0.000000 
0.166802 -2.947216 0.000000 
0.109369 -2.952916 0.000000 
0.104796 -2.966537 0.000000 
0.285414 -2.952719 0.000000 
0.230268 -2.958722 0.000000 
0.235696 -2.971502 0.000000 
0.167827 -2.974037 0.000000 
0.158796 -2.981327 0.000000 
0.411914 -2.957245 0.000000 
0.360382 -2.963214 0.000000 
0.380794 -2.975088 0.000000 
0.310614 -2.977949 0.000000 
0.313460 -2.984749 0.000000 
0.226705 -2.985793 0.000000 
0.218677 -2.989825 0.000000 
0.539294 -2.954849 0.000000 
0.492604 -2.963502 0.000000 
0.521356 -2.974817 0.000000 
0.464044 -2.979470 0.000000 
0.481115 -2.985821 0.000000 
0.403289 -2.988376 0.000000 
0.406340 -2.992156 0.000000 
0.305241 -2.992616 0.000000 
0.293931 -2.994919 0.000000 
0.063429 -2.917085 0.000000 
0.153540 -2.873752 0.000000 
0.134219 -2.907380 0.000000 
0.178504 -2.924758 0.000000 
0.235971 -2.812732 0.000000 
0.224485 -2.857544 0.000000 
0.278854 -2.882327 0.000000 
0.252511 -2.915302 0.000000 
0.294437 -2.931750 0.000000 
0.312959 -2.745758 0.000000 
0.305709 -2.791956 0.000000 
0.363290 -2.818489 0.000000 
0.347888 -2.865868 0.000000 
0.398021 -2.890694 0.000000 
0.370843 -2.922466 0.000000 
0.414642 -2.937627 0.000000 
0.387205 -2.676903 0.000000 
0.381405 -2.723649 0.000000 
0.439899 -2.744562 0.000000 
0.430033 -2.794806 0.000000 
0.484461 -2.817817 0.000000 
0.468753 -2.867824 0.000000 
0.519890 -2.887315 0.000000 
0.492978 -2.922050 0.000000 
0.537964 -2.934100 0.000000 
0.028082 -2.892972 0.000000 
0.030216 -2.800983 0.000000 
0.058342 -2.844112 0.000000 
0.113694 -2.834877 0.000000 
0.029952 -2.703141 0.000000 
0.059771 -2.742274 0.000000 
0.117271 -2.725086 0.000000 
0.142891 -2.775598 0.000000 
0.194508 -2.770710 0.000000 
0.029501 -2.601917 0.000000 
0.059031 -2.640374 0.000000 
0.116398 -2.618738 0.000000 
0.144254 -2.664777 0.000000 
0.197770 -2.653407 0.000000 
0.221855 -2.708737 0.000000 
0.270839 -2.704088 0.000000 
0.029589 -2.500302 0.000000 
0.058958 -2.537724 0.000000 
0.116617 -2.512879 0.000000 
0.144476 -2.556471 0.000000 
0.199410 -2.540251 0.000000 
0.224632 -2.591808 0.000000 
0.276168 -2.581242 0.000000 
0.298132 -2.638949 0.000000 
0.345753 -2.634515 0.000000 
CELLS 175 350 
1 0 
1 1 
1 2 
1 3 
1 4 
1 5 
1 6 
1 7 
1 8 
1 9 
1 10 
1 11 
1 12 
1 13 
1 14 
1 15 
1 16 
1 17 
1 18 
1 19 
1 20 
1 21 
1 22 
1 23 
1 24 
1 25 
1 26 
1 27 
1 28 
1 29 
1 30 
1 31 
1 32 
1 33 
1 34 
1 35 
1 36 
1 37 
1 38 
1 39 
1 40 
1 41 
1 42 
1 43 
1 44 
1 45 
1 46 
1 47 
1 48 
1 49 
1 50 
1 51 
1 52 
1 53 
1 54 
1 55 
1 56 
1 57 
1 58 
1 59 
1 60 
1 61 
1 62 
1 63 
1 64 
1 65 
1 66 
1 67 
1 68 
1 69 
1 70 
1 71 
1 72 
1 73 
1 74 
1 75 
1 76 
1 77 
1 78 
1 79 
1 80 
1 81 
1 82 
1 83 
1 84 
1 85 
1 86 
1 87 
1 88 
1 89 
1 90 
1 91 
1 92 
1 93 
1 94 
1 95 
1 96 
1 97 
1 98 
1 99 
1 100 
1 101 
1 102 
1 103 
1 104 
1 105 
1 106 
1 107 
1 108 
1 109 
1 110 
1 111 
1 112 
1 113 
1 114 
1 115 
1 116 
1 117 
1 118 
1 119 
1 120 
1 121 
1 122 
1 123 
1 124 
1 125 
1 126 
1 127 
1 128 
1 129 
1 130 
1 131 
1 132 
1 133 
1 134 
1 135 
1 136 
1 137 
1 138 
1 139 
1 140 
1 141 
1 142 
1 143 
1 144 
1 145 
1 146 
1 147 
1 148 
1 149 
1 150 
1 151 
1 152 
1 153 
1 154 
1 155 
1 156 
1 157 
1 158 
1 159 
1 160 
1 161 
1 162 
1 163 
1 164 
1 165 
1 166 
1 167 
1 168 
1 169 
1 170 
1 171 
1 172 
1 173 
1 174 
CELL_TYPES 175 
1 
1 
1 
1 
1 
1 
1 
1 
1 
1 
1 
1 
1 
1 
1 
1 
1 
1 
1 
1 
1 
1 
1 
1 
1 
1 
1 
1 
1 
1 
1 
1 
1 
1 
1 
1 
1 
1 
1 
1 
1 
1 
1 
1 
1 
1 
1 
1 
1 
1 
1 
1 
1 
1 
1 
1 
1 
1 
1 
1 
1 
1 
1 
1 
1 
1 
1 
1 
1 
1 
1 
1 
1 
1 
1 
1 
1 
1 
1 
1 
1 
1 
1 
1 
1 
1 
1 
1 
1 
1 
1 
1 
1 
1 
1 
1 
1 
1 
1 
1 
1 
1 
1 
1 
1 
1 
1 
1 
1 
1 
1 
1 
1 
1 
1 
1 
1 
1 
1 
1 
1 
1 
1 
1 
1 
1 
1 
1 
1 
1 
1 
1 
1 
1 
1 
1 
1 
1 
1 
1 
1 
1 
1 
1 
1 
1 
1 
1 
1 
1 
1 
1 
1 
1 
1 
1 
1 
1 
1 
1 
1 
1 
1 
1 
1 
1 
1 
1 
1 
1 
1 
1 
1 
1 
1 
POINT_DATA 175 
VECTORS X_GC float 
-0.028082 -2.892972 0.000000 
-0.113694 -2.834877 0.000000 
-0.058342 -2.844112 0.000000 
-0.030216 -2.800983 0.000000 
-0.194508 -2.770710 0.000000 
-0.142891 -2.775598 0.000000 
-0.117271 -2.725086 0.000000 
-0.059771 -2.742274 0.000000 
-0.029952 -2.703141 0.000000 
-0.270839 -2.704088 0.000000 
-0.221855 -2.708737 0.000000 
-0.197770 -2.653407 0.000000 
-0.144254 -2.664777 0.000000 
-0.116398 -2.618738 0.000000 
-0.059031 -2.640374 0.000000 
-0.029501 -2.601917 0.000000 
-0.345753 -2.634515 0.000000 
-0.298132 -2.638949 0.000000 
-0.276168 -2.581242 0.000000 
-0.224632 -2.591808 0.000000 
-0.199410 -2.540251 0.000000 
-0.144476 -2.556471 0.000000 
-0.116617 -2.512879 0.000000 
-0.058958 -2.537724 0.000000 
-0.029589 -2.500302 0.000000 
-0.063429 -2.917085 0.000000 
-0.178504 -2.924758 0.000000 
-0.134219 -2.907380 0.000000 
-0.153540 -2.873752 0.000000 
-0.294437 -2.931750 0.000000 
-0.252511 -2.915302 0.000000 
-0.278854 -2.882327 0.000000 
-0.224485 -2.857544 0.000000 
-0.235971 -2.812732 0.000000 
-0.414642 -2.937627 0.000000 
-0.370843 -2.922466 0.000000 
-0.398021 -2.890694 0.000000 
-0.347888 -2.865868 0.000000 
-0.363290 -2.818489 0.000000 
-0.305709 -2.791956 0.000000 
-0.312959 -2.745758 0.000000 
-0.537964 -2.934100 0.000000 
-0.492978 -2.922050 0.000000 
-0.519890 -2.887315 0.000000 
-0.468753 -2.867824 0.000000 
-0.484461 -2.817817 0.000000 
-0.430033 -2.794806 0.000000 
-0.439899 -2.744562 0.000000 
-0.381405 -2.723649 0.000000 
-0.387205 -2.676903 0.000000 
-0.050731 -2.939753 0.000000 
-0.104796 -2.966537 0.000000 
-0.109369 -2.952916 0.000000 
-0.166802 -2.947216 0.000000 
-0.158796 -2.981327 0.000000 
-0.167827 -2.974037 0.000000 
-0.235696 -2.971502 0.000000 
-0.230268 -2.958722 0.000000 
-0.285414 -2.952719 0.000000 
-0.218677 -2.989825 0.000000 
-0.226705 -2.985793 0.000000 
-0.313460 -2.984749 0.000000 
-0.310614 -2.977949 0.000000 
-0.380794 -2.975088 0.000000 
-0.360382 -2.963214 0.000000 
-0.411914 -2.957245 0.000000 
-0.293931 -2.994919 0.000000 
-0.305241 -2.992616 0.000000 
-0.406340 -2.992156 0.000000 
-0.403289 -2.988376 0.000000 
-0.481115 -2.985821 0.000000 
-0.464044 -2.979470 0.000000 
-0.521356 -2.974817 0.000000 
-0.492604 -2.963502 0.000000 
-0.539294 -2.954849 0.000000 
-0.000000 -2.947557 0.000000 
0.046393 -2.971777 0.000000 
-0.000000 -2.965779 0.000000 
-0.046393 -2.971777 0.000000 
0.095170 -2.984643 0.000000 
0.046671 -2.982126 0.000000 
-0.000000 -2.986171 0.000000 
-0.046671 -2.982126 0.000000 
-0.095170 -2.984643 0.000000 
0.153843 -2.991686 0.000000 
0.098894 -2.990443 0.000000 
0.049408 -2.992987 0.000000 
-0.000000 -2.991243 0.000000 
-0.049408 -2.992987 0.000000 
-0.098894 -2.990443 0.000000 
-0.153843 -2.991686 0.000000 
0.214441 -2.995916 0.000000 
0.158656 -2.995137 0.000000 
0.105041 -2.996738 0.000000 
0.050551 -2.995827 0.000000 
-0.000000 -2.996985 0.000000 
-0.050551 -2.995827 0.000000 
-0.105041 -2.996738 0.000000 
-0.158656 -2.995137 0.000000 
-0.214441 -2.995916 0.000000 
0.050731 -2.939753 0.000000 
0.166802 -2.947216 0.000000 
0.109369 -2.952916 0.000000 
0.104796 -2.966537 0.000000 
0.285414 -2.952719 0.000000 
0.230268 -2.958722 0.000000 
0.235696 -2.971502 0.000000 
0.167827 -2.974037 0.000000 
0.158796 -2.981327 0.000000 
0.411914 -2.957245 0.000000 
0.360382 -2.963214 0.000000 
0.380794 -2.975088 0.000000 
0.310614 -2.977949 0.000000 
0.313460 -2.984749 0.000000 
0.226705 -2.985793 0.000000 
0.218677 -2.989825 0.000000 
0.539294 -2.954849 0.000000 
0.492604 -2.963502 0.000000 
0.521356 -2.974817 0.000000 
0.464044 -2.979470 0.000000 
0.481115 -2.985821 0.000000 
0.403289 -2.988376 0.000000 
0.406340 -2.992156 0.000000 
0.305241 -2.992616 0.000000 
0.293931 -2.994919 0.000000 
0.063429 -2.917085 0.000000 
0.153540 -2.873752 0.000000 
0.134219 -2.907380 0.000000 
0.178504 -2.924758 0.000000 
0.235971 -2.812732 0.000000 
0.224485 -2.857544 0.000000 
0.278854 -2.882327 0.000000 
0.252511 -2.915302 0.000000 
0.294437 -2.931750 0.000000 
0.312959 -2.745758 0.000000 
0.305709 -2.791956 0.000000 
0.363290 -2.818489 0.000000 
0.347888 -2.865868 0.000000 
0.398021 -2.890694 0.000000 
0.370843 -2.922466 0.000000 
0.414642 -2.937627 0.000000 
0.387205 -2.676903 0.000000 
0.381405 -2.723649 0.000000 
0.439899 -2.744562 0.000000 
0.430033 -2.794806 0.000000 
0.484461 -2.817817 0.000000 
0.468753 -2.867824 0.000000 
0.519890 -2.887315 0.000000 
0.492978 -2.922050 0.000000 
0.537964 -2.934100 0.000000 
0.028082 -2.892972 0.000000 
0.030216 -2.800983 0.000000 
0.058342 -2.844112 0.000000 
0.113694 -2.834877 0.000000 
0.029952 -2.703141 0.000000 
0.059771 -2.742274 0.000000 
0.117271 -2.725086 0.000000 
0.142891 -2.775598 0.000000 
0.194508 -2.770710 0.000000 
0.029501 -2.601917 0.000000 
0.059031 -2.640374 0.000000 
0.116398 -2.618738 0.000000 
0.144254 -2.664777 0.000000 
0.197770 -2.653407 0.000000 
0.221855 -2.708737 0.000000 
0.270839 -2.704088 0.000000 
0.029589 -2.500302 0.000000 
0.058958 -2.537724 0.000000 
0.116617 -2.512879 0.000000 
0.144476 -2.556471 0.000000 
0.199410 -2.540251 0.000000 
0.224632 -2.591808 0.000000 
0.276168 -2.581242 0.000000 
0.298132 -2.638949 0.000000 
0.345753 -2.634515 0.000000 
VECTORS X_EC float 
0.365072 -0.444882 0.000000 
-0.521982 0.770839 0.000000 
0.758447 0.895513 0.000000 
0.392802 0.313270 0.000000 
0.528603 -0.095418 0.000000 
-0.142421 -0.029427 0.000000 
-0.475471 -0.711346 0.000000 
0.777023 -0.479298 0.000000 
0.389382 0.992402 0.000000 
-0.479091 -0.994815 0.000000 
0.884112 -0.932052 0.000000 
0.571016 0.320999 0.000000 
-0.124702 0.474486 0.000000 
-0.486822 -0.147043 0.000000 
0.767409 0.145055 0.000000 
0.383515 -0.374116 0.000000 
0.494795 0.065946 0.000000 
-0.124281 0.125807 0.000000 
-0.409818 -0.653235 0.000000 
0.920222 -0.510597 0.000000 
0.592326 0.793385 0.000000 
-0.121814 -0.987647 0.000000 
-0.483985 0.423863 0.000000 
0.766451 0.759279 0.000000 
0.384659 0.254080 0.000000 
0.824580 -0.119356 0.000000 
0.320552 -0.015763 0.000000 
-0.255155 -0.250370 0.000000 
-0.003979 -0.704345 0.000000 
-0.172314 0.078630 0.000000 
-0.717358 -0.143418 0.000000 
-0.374897 -0.588588 0.000000 
0.918307 -0.923159 0.000000 
-0.932379 0.471877 0.000000 
-0.609651 0.157966 0.000000 
0.820961 -0.046710 0.000000 
-0.825732 -0.475624 0.000000 
0.522550 -0.810782 0.000000 
0.722768 0.549606 0.000000 
-0.025786 0.191412 0.000000 
0.068464 -0.432274 0.000000 
0.993527 0.110344 0.000000 
0.408716 -0.052327 0.000000 
0.758567 -0.521251 0.000000 
0.093791 -0.784373 0.000000 
0.297992 0.540528 0.000000 
-0.409570 0.229879 0.000000 
-0.281316 -0.448416 0.000000 
0.958268 -0.730745 0.000000 
-0.966329 0.638193 0.000000 
0.659503 0.186671 0.000000 
-0.637656 0.548246 0.000000 
-0.578208 0.364359 0.000000 
0.168420 0.287414 0.000000 
0.064343 0.747909 0.000000 
0.181755 0.649499 0.000000 
-0.935946 0.615277 0.000000 
0.993488 0.442746 0.000000 
-0.289620 0.361704 0.000000 
0.842805 0.862640 0.000000 
0.947168 0.808199 0.000000 
0.074982 0.794111 0.000000 
0.037981 0.702318 0.000000 
0.950321 0.663695 0.000000 
0.684964 0.503390 0.000000 
-0.645121 0.422808 0.000000 
-0.178891 0.931400 0.000000 
-0.031872 0.900322 0.000000 
-0.717575 0.894112 0.000000 
-0.757248 0.843080 0.000000 
0.254501 0.808581 0.000000 
0.032569 0.722849 0.000000 
0.777634 0.660028 0.000000 
0.403848 0.507275 0.000000 
-0.989177 0.390467 0.000000 
0.000000 0.292014 0.000000 
-0.603108 0.618988 0.000000 
0.000000 0.538022 0.000000 
0.603108 0.618988 0.000000 
0.762789 0.792680 0.000000 
-0.606722 0.758700 0.000000 
0.000000 0.813308 0.000000 
0.606722 0.758700 0.000000 
-0.762789 0.792680 0.000000 
0.000037 0.887755 0.000000 
0.714383 0.870985 0.000000 
-0.642299 0.905330 0.000000 
0.000000 0.881785 0.000000 
0.642299 0.905330 0.000000 
-0.714383 0.870985 0.000000 
-0.000037 0.887755 0.000000 
-0.787735 0.944871 0.000000 
-0.062526 0.934350 0.000000 
0.634463 0.955959 0.000000 
-0.657167 0.943663 0.000000 
0.000000 0.959292 0.000000 
0.657167 0.943663 0.000000 
-0.634463 0.955959 0.000000 
0.062526 0.934350 0.000000 
0.787735 0.944871 0.000000 
-0.659503 0.186671 0.000000 
-0.168420 0.287414 0.000000 
0.578208 0.364359 0.000000 
0.637656 0.548246 0.000000 
0.289620 0.361704 0.000000 
-0.993488 0.442746 0.000000 
0.935946 0.615277 0.000000 
-0.181755 0.649499 0.000000 
-0.064343 0.747909 0.000000 
0.645121 0.422808 0.000000 
-0.684964 0.503390 0.000000 
-0.950321 0.663695 0.000000 
-0.037981 0.702318 0.000000 
-0.074982 0.794111 0.000000 
-0.947168 0.808199 0.000000 
-0.842805 0.862640 0.000000 
0.989177 0.390467 0.000000 
-0.403848 0.507275 0.000000 
-0.777634 0.660028 0.000000 
-0.032569 0.722849 0.000000 
-0.254501 0.808581 0.000000 
0.757248 0.843080 0.000000 
0.717575 0.894112 0.000000 
0.031872 0.900322 0.000000 
0.178891 0.931400 0.000000 
-0.824580 -0.119356 0.000000 
0.003979 -0.704345 0.000000 
0.255155 -0.250370 0.000000 
-0.320552 -0.015763 0.000000 
0.932379 0.471877 0.000000 
-0.918307 -0.923159 0.000000 
0.374897 -0.588588 0.000000 
0.717358 -0.143418 0.000000 
0.172314 0.078630 0.000000 
-0.068464 -0.432274 0.000000 
0.025786 0.191412 0.000000 
-0.722768 0.549606 0.000000 
-0.522550 -0.810782 0.000000 
0.825732 -0.475624 0.000000 
-0.820961 -0.046710 0.000000 
0.609651 0.157966 0.000000 
0.966329 0.638193 0.000000 
-0.958268 -0.730745 0.000000 
0.281316 -0.448416 0.000000 
0.409570 0.229879 0.000000 
-0.297992 0.540528 0.000000 
-0.093791 -0.784373 0.000000 
-0.758567 -0.521251 0.000000 
-0.408716 -0.052327 0.000000 
-0.993527 0.110345 0.000000 
-0.365072 -0.444882 0.000000 
-0.392802 0.313270 0.000000 
-0.758447 0.895513 0.000000 
0.521982 0.770839 0.000000 
-0.389382 0.992402 0.000000 
-0.777023 -0.479298 0.000000 
0.475471 -0.711346 0.000000 
0.142421 -0.029427 0.000000 
-0.528603 -0.095418 0.000000 
-0.383515 -0.374116 0.000000 
-0.767409 0.145055 0.000000 
0.486822 -0.147043 0.000000 
0.124702 0.474486 0.000000 
-0.571016 0.320999 0.000000 
-0.884112 -0.932052 0.000000 
0.479091 -0.994815 0.000000 
-0.384659 0.254080 0.000000 
-0.766451 0.759279 0.000000 
0.483985 0.423863 0.000000 
0.121814 -0.987647 0.000000 
-0.592326 0.793385 0.000000 
-0.920222 -0.510597 0.000000 
0.409818 -0.653235 0.000000 
0.124281 0.125807 0.000000 
-0.494795 0.065946 0.000000 
CELL_DATA 175 
SCALARS MASS float 
LOOKUP_TABLE default 
0.781831 
0.864274 
0.946717 
0.864274 
0.881307 
0.921110 
0.858535 
0.921110 
0.881307 
0.887046 
0.910001 
0.869829 
0.915556 
0.869829 
0.910001 
0.887046 
0.892784 
0.915740 
0.892784 
0.927218 
0.892784 
0.927218 
0.892784 
0.915740 
0.892784 
0.781831 
0.864274 
0.946717 
0.864274 
0.881307 
0.921110 
0.858535 
0.921110 
0.881307 
0.887046 
0.910001 
0.869829 
0.915556 
0.869829 
0.910001 
0.887046 
0.892784 
0.915740 
0.892784 
0.927218 
0.892784 
0.927218 
0.892784 
0.915740 
0.892784 
0.781831 
0.864274 
0.946717 
0.864274 
0.881307 
0.921110 
0.858535 
0.921110 
0.881307 
0.887046 
0.910001 
0.869829 
0.915556 
0.869829 
0.910001 
0.887046 
0.892784 
0.915740 
0.892784 
0.927218 
0.892784 
0.927218 
0.892784 
0.915740 
0.892784 
0.781831 
0.864274 
0.946717 
0.864274 
0.881307 
0.921110 
0.858535 
0.921110 
0.881307 
0.887046 
0.910001 
0.869829 
0.915556 
0.869829 
0.910001 
0.887046 
0.892784 
0.915740 
0.892784 
0.927218 
0.892784 
0.927218 
0.892784 
0.915740 
0.892784 
0.781831 
0.864274 
0.946717 
0.864274 
0.881307 
0.921110 
0.858535 
0.921110 
0.881307 
0.887046 
0.910001 
0.869829 
0.915556 
0.869829 
0.910001 
0.887046 
0.892784 
0.915740 
0.892784 
0.927218 
0.892784 
0.927218 
0.892784 
0.915740 
0.892784 
0.781831 
0.864274 
0.946717 
0.864274 
0.881307 
0.921110 
0.858535 
0.921110 
0.881307 
0.887046 
0.910001 
0.869829 
0.915556 
0.869829 
0.910001 
0.887046 
0.892784 
0.915740 
0.892784 
0.927218 
0.892784 
0.927218 
0.892784 
0.915740 
0.892784 
0.781831 
0.864274 
0.946717 
0.864274 
0.881307 
0.921110 
0.858535 
0.921110 
0.881307 
0.887046 
0.910001 
0.869829 
0.915556 
0.869829 
0.910001 
0.887046 
0.892784 
0.915740 
0.892784 
0.927218 
0.892784 
0.927218 
0.892784 
0.915740 
0.892784 
SCALARS MASS float 
LOOKUP_TABLE default 
0.781831 
0.864274 
0.946717 
0.864274 
0.881307 
0.921110 
0.858535 
0.921110 
0.881307 
0.887046 
0.910001 
0.869829 
0.915556 
0.869829 
0.910001 
0.887046 
0.892784 
0.915740 
0.892784 
0.927218 
0.892784 
0.927218 
0.892784 
0.915740 
0.892784 
0.781831 
0.864274 
0.946717 
0.864274 
0.881307 
0.921110 
0.858535 
0.921110 
0.881307 
0.887046 
0.910001 
0.869829 
0.915556 
0.869829 
0.910001 
0.887046 
0.892784 
0.915740 
0.892784 
0.927218 
0.892784 
0.927218 
0.892784 
0.915740 
0.892784 
0.781831 
0.864274 
0.946717 
0.864274 
0.881307 
0.921110 
0.858535 
0.921110 
0.881307 
0.887046 
0.910001 
0.869829 
0.915556 
0.869829 
0.910001 
0.887046 
0.892784 
0.915740 
0.892784 
0.927218 
0.892784 
0.927218 
0.892784 
0.915740 
0.892784 
0.781831 
0.864274 
0.946717 
0.864274 
0.881307 
0.921110 
0.858535 
0.921110 
0.881307 
0.887046 
0.910001 
0.869829 
0.915556 
0.869829 
0.910001 
0.887046 
0.892784 
0.915740 
0.892784 
0.927218 
0.892784 
0.927218 
0.892784 
0.915740 
0.892784 
0.781831 
0.864274 
0.946717 
0.864274 
0.881307 
0.921110 
0.858535 
0.921110 
0.881307 
0.887046 
0.910001 
0.869829 
0.915556 
0.869829 
0.910001 
0.887046 
0.892784 
0.915740 
0.892784 
0.927218 
0.892784 
0.927218 
0.892784 
0.915740 
0.892784 
0.781831 
0.864274 
0.946717 
0.864274 
0.881307 
0.921110 
0.858535 
0.921110 
0.881307 
0.887046 
0.910001 
0.869829 
0.915556 
0.869829 
0.910001 
0.887046 
0.892784 
0.915740 
0.892784 
0.927218 
0.892784 
0.927218 
0.892784 
0.915740 
0.892784 
0.781831 
0.864274 
0.946717 
0.864274 
0.881307 
0.921110 
0.858535 
0.921110 
0.881307 
0.887046 
0.910001 
0.869829 
0.915556 
0.869829 
0.910001 
0.887046 
0.892784 
0.915740 
0.892784 
0.927218 
0.892784 
0.927218 
0.892784 
0.915740 
0.892784 
SCALARS DENSITY float 
LOOKUP_TABLE default 
57995101.539524 
136.767080 
61.907236 
1044.047450 
81.200918 
199.665120 
294.898462 
247.937515 
191.269421 
209.225960 
977.036928 
175.097741 
154.035967 
277.565337 
146.739025 
363.799784 
519.856816 
177.502558 
641.894813 
3196.316704 
180.754503 
294.181838 
420.378617 
218.941339 
235.273524 
15376335524111.121094 
177351688010556384.000000 
3200580479.096637 
1051.008690 
3647540027901964451840.000000 
779486790087564.625000 
9449.005077 
113.259965 
2032.728577 
1405369134889868655704670208.000000 
660881253667508.625000 
21626.664999 
122.537769 
1292.702014 
125.677949 
322.399003 
220938784738695888976740352.000000 
1909043813151320.250000 
2515753.335506 
275.213154 
61617.177683 
198.346556 
1723.325856 
423.259228 
494.465764 
23438063982586188318716361657007484199501824.000000 
2367653521752848073612126896753301158719486690783127576545693589239440169012125672677191608967364608.000000 
-996916407437331876470418106196047345508098420175273455569057452308561920.000000 
122646882696347073439771795185661172966541987822960640.000000 
14231926242029782613004083372014447859071089905286071471044146984148930305059250421477475723792375050630868213170176.000000 
-312918003200141067492511117211909743878583048052220632917844321501128180999844177144190145324835364468162560.000000 
2050956518626421177361335933080937909146819404191220864092706114972333977933398040932341289339286102410297054274256896.000000 
165197837304225762097489075278102705935599445194793313474141439360448658385134461911040.000000 
-5515538521069643037241750079453517613228253356078801538571097341952.000000 
-326070937448908830544873178357162160779612836850942001092820704134272177577547535348727997146804090261647392768.000000 
-242969107468050432334534180788385885891216424473954260955825871565007159725629840714762556309093729561010710173974528.000000 
-3171150355939644156356361692063234174052617977320474339092219402626768551362063753783266880027447682630825736124160925860102144.000000 
-19580505409783347972836344169375801465311042238179160545759165133093454462906665795920604863517656207711247516389326454784.000000 
-2070761560551663149853724936738898336086547996124215362421009071034698521298766940962722169392863381717839594821081104384.000000 
-7375828367055501441421254866055597477427038877162693618976437486235151666291010157538902862410547200.000000 
-14121643071728487662629224444811822985349707085042701058840132205307875507865801002582016.000000 
163646768018949097729687425201654772662278474228912178639274606087755371613644802079304148706129578924441600.000000 
-257027838465861817252617066641914128913821745473779269525143484305389570742190027778888060062731259443496736174280540160.000000 
-81683709605336649520112133463935504305243053629807240971114403814893370333861058801242187428850963709722305603348740440064.000000 
117822080159868953866271554870920294658571900674082935064121773525449962507065002772502238722741013812515685060603193445056512.000000 
1795091676908268243813914054148655951269752055074443036392947456552122399022109594897411272841957462711108026499072.000000 
-13348357639382792128048334599231542101603835746900136215886467775488087879749271386405773538410737657472274263823089664.000000 
-2241974378015195534300596233201176335399287745295170234136316486414552823065834674684487098047133755941747802844957689532907520.000000 
-2849652969288277790610374812693433546826181011403132426594400046571828002588732921136084652129633110048691806273536.000000 
-4735583214801106278001797716360604580751567609319438252517230012111866602294350129401954304.000000 
-2632718963428428301143003588927397769316003280579468221724128968704.000000 
-87462487800080129702301654775147748259097452452322580058233383452657666736907176642495957346639937536.000000 
-21793375254464599353131534637126790035828818381705739311239822884724732269483133289814327679778816.000000 
-87462495164233629909672176781514846783132005789976297507240510349910051599022936036704946730733404160.000000 
-23548187949969401856153948279642839326981376376868730474469891478693134160810576227108884230383600435989787443200.000000 
83066789195075875872780300814112937199588089839207699176048771164782619938486515210814193364965183717376.000000 
504577895412963468934400949196977284622892867856409161450984272037160760438326203623406022251453087744.000000 
83066796453259785998037189298148961889437077892247459129552731289126298326313752035816924977878907486208.000000 
-23548176604518380500332609462492023113332478090384183806476160099136439010634852792088583197360899945185905999872.000000 
-1767338306935870778894024531710372334836436898851268802669394748659017311267855157792232134668021923840.000000 
-1372964094952830997379561497931071865340247218629019719106996438523060967543209787469462583530766477557760.000000 
-15174809930892999889447998519972556178562569556101892043514688290505226449790345620226048.000000 
51242420916980259048754293161900898290139853572041760396914139648435885402056706487348101120.000000 
-15174808775165524467913873942537299108030772356505758721207347539110291957129746189385728.000000 
-1372962599516697647091240058781313396911488100599283561562520399423610085398368092062065911450479162818560.000000 
-1767339322078318756834262844594858426955567158533347849961038614462640303806267085726266980206261567488.000000 
92275516354306606366226410156015942104362486312420080761124599983792969884893184.000000 
36018038883760273124529891642101372826236978535714076890043368103925977482272612286464.000000 
-52353779899691142902829087641787406150029781420790278609439890809552896.000000 
404818950301736462867580171983335963740338363726937217964279082624038731776.000000 
-6349633952755274666496864532751766734914820104475534439799255465984.000000 
404818930100286279668280804032581402954139353904218869155798155343406563328.000000 
-52353755649392365880953475122417190325242505413694171160252242513100800.000000 
36018013854048734984747337365265658500276521599076827509009216671595526694503146586112.000000 
92275479026915383942938343481379407836354519441412659733359261578265613251379200.000000 
23438067213624635265713132254400291067133952.000000 
122646953070672834454336471736658780358776665889832960.000000 
-996917491582614153220669418172069338670924296894075713008601595757199360.000000 
2367653412839438605970059338325685839503030000849752481861868400019353645783197347994068684187369472.000000 
-5515541385400154096676232725261274742475312319105564228306390220800.000000 
165197967830138640753127046506741860637725324579201926173849324929037883279152057942016.000000 
2050959296090183571562118385276608097425809633977274454832915109984372820747371080574914871483211695610912134379077632.000000 
-312917943225191639198449285854871170234219852942798286477147758540753618585385497013731539225407752218083328.000000 
14231977741308857304950457665531923545124053909621524464534634081138001786037118039735930955268623673765299742572544.000000 
-14121640379564837009200556790086609817526868780719272890603531637129590167593710348402688.000000 
-7375831611024937386225891886878284617936484172334799861120929668501023851186911931908178492967092224.000000 
-2070761536055714378039665182095951946555168484469865750274050903929355016179070463112704040744596995809533579097282707456.000000 
-19580509815401574395497023798003129769369900340831586820541884079386761001687278817997381946387152364116843702288113467392.000000 
-3171147105666608463866614100909229605838708333746009917509678522292596795322973064262070570617262207036060805461107210966794240.000000 
-242969168947576047368959350909399513400705019681825797485603494753363746135639882545837693744734871465370650031423488.000000 
-326071146563422698807729034108137971333509641449919990987352814618186292813923576545880809150932269303729225728.000000 
-4735658459924219688970017917335497901887364955230856425815175774378689038271450987175608320.000000 
-2849650483410956617870488152521868637683161911307107752570694694955361413599423030536075988974252537352012238422016.000000 
-2241974720845315302928025964204874169153625963887974036753007927379814184468327809782866305274519215099455638674942764527910912.000000 
-13348352152724114918499380382815272806225899267703086339122654698294176734549565958009809341934712775391589642002235392.000000 
1795090585789445149548954121830659923747418147595727303839619013576269069488794504617077783375271314188691306446848.000000 
117822137529675560481047605707401109475865764193963508985624406274632598570109901610473585383683235329858892852092430207418368.000000 
-81683729729802213223261366982947359861747567820678028661472231390200495107897981985470000282435430404666566912378769768448.000000 
-257027908082846597891257426873809150340128859569445459344638934400024455270991598677757979482974071894507930668935151616.000000 
163646814101484180666839380983808159907115955082696673152870982389765474694227216842684150277944595431030784.000000 
15376336275337.636719 
1051.008682 
3200580660.501391 
177351706528760896.000000 
2032.728524 
113.259966 
9449.004824 
779486822294446.375000 
3647540250975422382080.000000 
322.399003 
125.677947 
1292.702034 