# vtk DataFile Version 3.0 
vtk output 
ASCII 
DATASET UNSTRUCTURED_GRID 
POINTS 175 float 
-0.025998 0.002372 0.000000 
-0.106873 0.069743 0.000000 
-0.054801 0.061528 0.000000 
-0.028800 0.107145 0.000000 
-0.186195 0.134201 0.000000 
-0.136907 0.131455 0.000000 
-0.114204 0.185294 0.000000 
-0.058133 0.169440 0.000000 
-0.029340 0.209898 0.000000 
-0.265226 0.197478 0.000000 
-0.217024 0.196755 0.000000 
-0.196483 0.253817 0.000000 
-0.142984 0.245246 0.000000 
-0.116508 0.292362 0.000000 
-0.058866 0.272832 0.000000 
-0.029591 0.310586 0.000000 
-0.344542 0.260880 0.000000 
-0.296922 0.260686 0.000000 
-0.278193 0.321402 0.000000 
-0.225811 0.314916 0.000000 
-0.201567 0.367176 0.000000 
-0.145790 0.353137 0.000000 
-0.118346 0.397657 0.000000 
-0.059567 0.373932 0.000000 
-0.030072 0.412587 0.000000 
-0.058372 -0.037925 0.000000 
-0.162128 -0.059360 0.000000 
-0.123116 -0.023624 0.000000 
-0.142754 0.024989 0.000000 
-0.261912 -0.081709 0.000000 
-0.229057 -0.045082 0.000000 
-0.256754 0.006262 0.000000 
-0.209406 0.040489 0.000000 
-0.222756 0.088191 0.000000 
-0.360573 -0.103720 0.000000 
-0.329954 -0.066865 0.000000 
-0.361892 -0.015214 0.000000 
-0.321550 0.021038 0.000000 
-0.341833 0.071068 0.000000 
-0.290414 0.104135 0.000000 
-0.302049 0.150993 0.000000 
-0.459303 -0.125429 0.000000 
-0.429714 -0.088512 0.000000 
-0.464997 -0.036137 0.000000 
-0.427761 0.000072 0.000000 
-0.453200 0.051236 0.000000 
-0.407688 0.085960 0.000000 
-0.425196 0.135907 0.000000 
-0.370829 0.167403 0.000000 
-0.381575 0.213869 0.000000 
-0.046866 -0.088953 0.000000 
-0.095316 -0.183790 0.000000 
-0.098810 -0.130729 0.000000 
-0.149377 -0.115426 0.000000 
-0.140069 -0.275237 0.000000 
-0.148654 -0.226439 0.000000 
-0.206086 -0.215657 0.000000 
-0.203294 -0.157567 0.000000 
-0.248880 -0.138470 0.000000 
-0.184045 -0.366110 0.000000 
-0.193961 -0.318903 0.000000 
-0.254366 -0.311463 0.000000 
-0.257898 -0.257080 0.000000 
-0.309831 -0.241710 0.000000 
-0.303644 -0.180991 0.000000 
-0.347326 -0.161034 0.000000 
-0.228290 -0.456612 0.000000 
-0.238788 -0.410542 0.000000 
-0.301830 -0.405553 0.000000 
-0.307066 -0.353986 0.000000 
-0.363043 -0.342015 0.000000 
-0.362435 -0.284054 0.000000 
-0.412259 -0.267030 0.000000 
-0.403020 -0.204310 0.000000 
-0.445974 -0.183693 0.000000 
-0.000000 -0.111797 0.000000 
0.043370 -0.209087 0.000000 
-0.000000 -0.178870 0.000000 
-0.043370 -0.209087 0.000000 
0.087099 -0.301023 0.000000 
0.043739 -0.277434 0.000000 
-0.000000 -0.315809 0.000000 
-0.043739 -0.277434 0.000000 
-0.087099 -0.301023 0.000000 
0.130817 -0.391839 0.000000 
0.087810 -0.370413 0.000000 
0.044428 -0.413051 0.000000 
-0.000000 -0.382058 0.000000 
-0.044428 -0.413051 0.000000 
-0.087810 -0.370413 0.000000 
-0.130817 -0.391839 0.000000 
0.174651 -0.482546 0.000000 
0.131839 -0.462201 0.000000 
0.088987 -0.508880 0.000000 
0.044520 -0.480360 0.000000 
-0.000000 -0.518329 0.000000 
-0.044520 -0.480360 0.000000 
-0.088987 -0.508880 0.000000 
-0.131839 -0.462201 0.000000 
-0.174651 -0.482546 0.000000 
0.046866 -0.088953 0.000000 
0.149377 -0.115426 0.000000 
0.098810 -0.130729 0.000000 
0.095316 -0.183790 0.000000 
0.248880 -0.138470 0.000000 
0.203294 -0.157567 0.000000 
0.206086 -0.215657 0.000000 
0.148654 -0.226439 0.000000 
0.140069 -0.275237 0.000000 
0.347326 -0.161034 0.000000 
0.303644 -0.180991 0.000000 
0.309831 -0.241710 0.000000 
0.257898 -0.257080 0.000000 
0.254366 -0.311463 0.000000 
0.193961 -0.318903 0.000000 
0.184045 -0.366110 0.000000 
0.445974 -0.183693 0.000000 
0.403020 -0.204310 0.000000 
0.412259 -0.267030 0.000000 
0.362435 -0.284054 0.000000 
0.363043 -0.342015 0.000000 
0.307066 -0.353986 0.000000 
0.301830 -0.405553 0.000000 
0.238788 -0.410542 0.000000 
0.228290 -0.456612 0.000000 
0.058372 -0.037925 0.000000 
0.142754 0.024989 0.000000 
0.123116 -0.023624 0.000000 
0.162128 -0.059360 0.000000 
0.222756 0.088191 0.000000 
0.209406 0.040489 0.000000 
0.256754 0.006262 0.000000 
0.229057 -0.045082 0.000000 
0.261912 -0.081709 0.000000 
0.302049 0.150993 0.000000 
0.290414 0.104135 0.000000 
0.341833 0.071068 0.000000 
0.321550 0.021038 0.000000 
0.361892 -0.015214 0.000000 
0.329954 -0.066865 0.000000 
0.360573 -0.103720 0.000000 
0.381575 0.213869 0.000000 
0.370829 0.167403 0.000000 
0.425196 0.135907 0.000000 
0.407688 0.085960 0.000000 
0.453200 0.051236 0.000000 
0.427761 0.000072 0.000000 
0.464997 -0.036137 0.000000 
0.429714 -0.088512 0.000000 
0.459303 -0.125429 0.000000 
0.025998 0.002372 0.000000 
0.028800 0.107145 0.000000 
0.054801 0.061528 0.000000 
0.106873 0.069743 0.000000 
0.029340 0.209898 0.000000 
0.058133 0.169440 0.000000 
0.114204 0.185294 0.000000 
0.136907 0.131455 0.000000 
0.186195 0.134201 0.000000 
0.029591 0.310586 0.000000 
0.058866 0.272832 0.000000 
0.116508 0.292362 0.000000 
0.142984 0.245246 0.000000 
0.196483 0.253817 0.000000 
0.217024 0.196755 0.000000 
0.265226 0.197478 0.000000 
0.030072 0.412587 0.000000 
0.059567 0.373932 0.000000 
0.118346 0.397657 0.000000 
0.145790 0.353137 0.000000 
0.201567 0.367176 0.000000 
0.225811 0.314916 0.000000 
0.278193 0.321402 0.000000 
0.296922 0.260686 0.000000 
0.344542 0.260880 0.000000 
CELLS 175 350 
1 0 
1 1 
1 2 
1 3 
1 4 
1 5 
1 6 
1 7 
1 8 
1 9 
1 10 
1 11 
1 12 
1 13 
1 14 
1 15 
1 16 
1 17 
1 18 
1 19 
1 20 
1 21 
1 22 
1 23 
1 24 
1 25 
1 26 
1 27 
1 28 
1 29 
1 30 
1 31 
1 32 
1 33 
1 34 
1 35 
1 36 
1 37 
1 38 
1 39 
1 40 
1 41 
1 42 
1 43 
1 44 
1 45 
1 46 
1 47 
1 48 
1 49 
1 50 
1 51 
1 52 
1 53 
1 54 
1 55 
1 56 
1 57 
1 58 
1 59 
1 60 
1 61 
1 62 
1 63 
1 64 
1 65 
1 66 
1 67 
1 68 
1 69 
1 70 
1 71 
1 72 
1 73 
1 74 
1 75 
1 76 
1 77 
1 78 
1 79 
1 80 
1 81 
1 82 
1 83 
1 84 
1 85 
1 86 
1 87 
1 88 
1 89 
1 90 
1 91 
1 92 
1 93 
1 94 
1 95 
1 96 
1 97 
1 98 
1 99 
1 100 
1 101 
1 102 
1 103 
1 104 
1 105 
1 106 
1 107 
1 108 
1 109 
1 110 
1 111 
1 112 
1 113 
1 114 
1 115 
1 116 
1 117 
1 118 
1 119 
1 120 
1 121 
1 122 
1 123 
1 124 
1 125 
1 126 
1 127 
1 128 
1 129 
1 130 
1 131 
1 132 
1 133 
1 134 
1 135 
1 136 
1 137 
1 138 
1 139 
1 140 
1 141 
1 142 
1 143 
1 144 
1 145 
1 146 
1 147 
1 148 
1 149 
1 150 
1 151 
1 152 
1 153 
1 154 
1 155 
1 156 
1 157 
1 158 
1 159 
1 160 
1 161 
1 162 
1 163 
1 164 
1 165 
1 166 
1 167 
1 168 
1 169 
1 170 
1 171 
1 172 
1 173 
1 174 
CELL_TYPES 175 
1 
1 
1 
1 
1 
1 
1 
1 
1 
1 
1 
1 
1 
1 
1 
1 
1 
1 
1 
1 
1 
1 
1 
1 
1 
1 
1 
1 
1 
1 
1 
1 
1 
1 
1 
1 
1 
1 
1 
1 
1 
1 
1 
1 
1 
1 
1 
1 
1 
1 
1 
1 
1 
1 
1 
1 
1 
1 
1 
1 
1 
1 
1 
1 
1 
1 
1 
1 
1 
1 
1 
1 
1 
1 
1 
1 
1 
1 
1 
1 
1 
1 
1 
1 
1 
1 
1 
1 
1 
1 
1 
1 
1 
1 
1 
1 
1 
1 
1 
1 
1 
1 
1 
1 
1 
1 
1 
1 
1 
1 
1 
1 
1 
1 
1 
1 
1 
1 
1 
1 
1 
1 
1 
1 
1 
1 
1 
1 
1 
1 
1 
1 
1 
1 
1 
1 
1 
1 
1 
1 
1 
1 
1 
1 
1 
1 
1 
1 
1 
1 
1 
1 
1 
1 
1 
1 
1 
1 
1 
1 
1 
1 
1 
1 
1 
1 
1 
1 
1 
1 
1 
1 
1 
1 
1 
POINT_DATA 175 
VECTORS X_GC float 
-0.025998 0.002372 0.000000 
-0.106873 0.069743 0.000000 
-0.054801 0.061528 0.000000 
-0.028800 0.107145 0.000000 
-0.186195 0.134201 0.000000 
-0.136907 0.131455 0.000000 
-0.114204 0.185294 0.000000 
-0.058133 0.169440 0.000000 
-0.029340 0.209898 0.000000 
-0.265226 0.197478 0.000000 
-0.217024 0.196755 0.000000 
-0.196483 0.253817 0.000000 
-0.142984 0.245246 0.000000 
-0.116508 0.292362 0.000000 
-0.058866 0.272832 0.000000 
-0.029591 0.310586 0.000000 
-0.344542 0.260880 0.000000 
-0.296922 0.260686 0.000000 
-0.278193 0.321402 0.000000 
-0.225811 0.314916 0.000000 
-0.201567 0.367176 0.000000 
-0.145790 0.353137 0.000000 
-0.118346 0.397657 0.000000 
-0.059567 0.373932 0.000000 
-0.030072 0.412587 0.000000 
-0.058372 -0.037925 0.000000 
-0.162128 -0.059360 0.000000 
-0.123116 -0.023624 0.000000 
-0.142754 0.024989 0.000000 
-0.261912 -0.081709 0.000000 
-0.229057 -0.045082 0.000000 
-0.256754 0.006262 0.000000 
-0.209406 0.040489 0.000000 
-0.222756 0.088191 0.000000 
-0.360573 -0.103720 0.000000 
-0.329954 -0.066865 0.000000 
-0.361892 -0.015214 0.000000 
-0.321550 0.021038 0.000000 
-0.341833 0.071068 0.000000 
-0.290414 0.104135 0.000000 
-0.302049 0.150993 0.000000 
-0.459303 -0.125429 0.000000 
-0.429714 -0.088512 0.000000 
-0.464997 -0.036137 0.000000 
-0.427761 0.000072 0.000000 
-0.453200 0.051236 0.000000 
-0.407688 0.085960 0.000000 
-0.425196 0.135907 0.000000 
-0.370829 0.167403 0.000000 
-0.381575 0.213869 0.000000 
-0.046866 -0.088953 0.000000 
-0.095316 -0.183790 0.000000 
-0.098810 -0.130729 0.000000 
-0.149377 -0.115426 0.000000 
-0.140069 -0.275237 0.000000 
-0.148654 -0.226439 0.000000 
-0.206086 -0.215657 0.000000 
-0.203294 -0.157567 0.000000 
-0.248880 -0.138470 0.000000 
-0.184045 -0.366110 0.000000 
-0.193961 -0.318903 0.000000 
-0.254366 -0.311463 0.000000 
-0.257898 -0.257080 0.000000 
-0.309831 -0.241710 0.000000 
-0.303644 -0.180991 0.000000 
-0.347326 -0.161034 0.000000 
-0.228290 -0.456612 0.000000 
-0.238788 -0.410542 0.000000 
-0.301830 -0.405553 0.000000 
-0.307066 -0.353986 0.000000 
-0.363043 -0.342015 0.000000 
-0.362435 -0.284054 0.000000 
-0.412259 -0.267030 0.000000 
-0.403020 -0.204310 0.000000 
-0.445974 -0.183693 0.000000 
-0.000000 -0.111797 0.000000 
0.043370 -0.209087 0.000000 
-0.000000 -0.178870 0.000000 
-0.043370 -0.209087 0.000000 
0.087099 -0.301023 0.000000 
0.043739 -0.277434 0.000000 
-0.000000 -0.315809 0.000000 
-0.043739 -0.277434 0.000000 
-0.087099 -0.301023 0.000000 
0.130817 -0.391839 0.000000 
0.087810 -0.370413 0.000000 
0.044428 -0.413051 0.000000 
-0.000000 -0.382058 0.000000 
-0.044428 -0.413051 0.000000 
-0.087810 -0.370413 0.000000 
-0.130817 -0.391839 0.000000 
0.174651 -0.482546 0.000000 
0.131839 -0.462201 0.000000 
0.088987 -0.508880 0.000000 
0.044520 -0.480360 0.000000 
-0.000000 -0.518329 0.000000 
-0.044520 -0.480360 0.000000 
-0.088987 -0.508880 0.000000 
-0.131839 -0.462201 0.000000 
-0.174651 -0.482546 0.000000 
0.046866 -0.088953 0.000000 
0.149377 -0.115426 0.000000 
0.098810 -0.130729 0.000000 
0.095316 -0.183790 0.000000 
0.248880 -0.138470 0.000000 
0.203294 -0.157567 0.000000 
0.206086 -0.215657 0.000000 
0.148654 -0.226439 0.000000 
0.140069 -0.275237 0.000000 
0.347326 -0.161034 0.000000 
0.303644 -0.180991 0.000000 
0.309831 -0.241710 0.000000 
0.257898 -0.257080 0.000000 
0.254366 -0.311463 0.000000 
0.193961 -0.318903 0.000000 
0.184045 -0.366110 0.000000 
0.445974 -0.183693 0.000000 
0.403020 -0.204310 0.000000 
0.412259 -0.267030 0.000000 
0.362435 -0.284054 0.000000 
0.363043 -0.342015 0.000000 
0.307066 -0.353986 0.000000 
0.301830 -0.405553 0.000000 
0.238788 -0.410542 0.000000 
0.228290 -0.456612 0.000000 
0.058372 -0.037925 0.000000 
0.142754 0.024989 0.000000 
0.123116 -0.023624 0.000000 
0.162128 -0.059360 0.000000 
0.222756 0.088191 0.000000 
0.209406 0.040489 0.000000 
0.256754 0.006262 0.000000 
0.229057 -0.045082 0.000000 
0.261912 -0.081709 0.000000 
0.302049 0.150993 0.000000 
0.290414 0.104135 0.000000 
0.341833 0.071068 0.000000 
0.321550 0.021038 0.000000 
0.361892 -0.015214 0.000000 
0.329954 -0.066865 0.000000 
0.360573 -0.103720 0.000000 
0.381575 0.213869 0.000000 
0.370829 0.167403 0.000000 
0.425196 0.135907 0.000000 
0.407688 0.085960 0.000000 
0.453200 0.051236 0.000000 
0.427761 0.000072 0.000000 
0.464997 -0.036137 0.000000 
0.429714 -0.088512 0.000000 
0.459303 -0.125429 0.000000 
0.025998 0.002372 0.000000 
0.028800 0.107145 0.000000 
0.054801 0.061528 0.000000 
0.106873 0.069743 0.000000 
0.029340 0.209898 0.000000 
0.058133 0.169440 0.000000 
0.114204 0.185294 0.000000 
0.136907 0.131455 0.000000 
0.186195 0.134201 0.000000 
0.029591 0.310586 0.000000 
0.058866 0.272832 0.000000 
0.116508 0.292362 0.000000 
0.142984 0.245246 0.000000 
0.196483 0.253817 0.000000 
0.217024 0.196755 0.000000 
0.265226 0.197478 0.000000 
0.030072 0.412587 0.000000 
0.059567 0.373932 0.000000 
0.118346 0.397657 0.000000 
0.145790 0.353137 0.000000 
0.201567 0.367176 0.000000 
0.225811 0.314916 0.000000 
0.278193 0.321402 0.000000 
0.296922 0.260686 0.000000 
0.344542 0.260880 0.000000 
VECTORS X_EC float 
0.337978 0.467983 0.000000 
-0.610650 -0.441527 0.000000 
0.712408 -0.330630 0.000000 
0.374400 -0.946453 0.000000 
0.420534 0.688288 0.000000 
-0.220203 0.725364 0.000000 
-0.515352 -0.001468 0.000000 
0.755727 0.212561 0.000000 
0.381415 -0.333621 0.000000 
-0.552068 -0.165953 0.000000 
0.821308 -0.156195 0.000000 
0.554279 -0.926527 0.000000 
-0.141211 -0.810824 0.000000 
-0.485397 0.553113 0.000000 
0.765252 0.816763 0.000000 
0.384685 0.307091 0.000000 
0.479044 0.978117 0.000000 
-0.140008 0.980733 0.000000 
-0.383486 0.161078 0.000000 
0.935540 0.248640 0.000000 
0.620368 -0.456874 0.000000 
-0.104730 -0.267344 0.000000 
-0.461505 -0.868364 0.000000 
0.774365 -0.548079 0.000000 
0.390932 0.930079 0.000000 
0.758833 -0.988010 0.000000 
0.107668 -0.698644 0.000000 
-0.399497 0.818919 0.000000 
-0.144203 0.162649 0.000000 
-0.595142 -0.396935 0.000000 
0.977746 -0.891387 0.000000 
-0.662201 0.415466 0.000000 
0.722276 -0.046608 0.000000 
0.895831 -0.690573 0.000000 
0.687451 -0.099780 0.000000 
0.289407 -0.597329 0.000000 
0.704590 0.705388 0.000000 
0.180147 0.215983 0.000000 
0.443834 -0.459419 0.000000 
-0.224624 -0.905820 0.000000 
-0.073357 0.461595 0.000000 
-0.029063 0.193288 0.000000 
-0.413722 -0.305082 0.000000 
0.044966 0.987854 0.000000 
-0.439113 0.499033 0.000000 
-0.108395 -0.191688 0.000000 
-0.700058 -0.660461 0.000000 
-0.472458 0.665261 0.000000 
0.820773 0.240066 0.000000 
0.960477 -0.387238 0.000000 
0.609264 -0.299137 0.000000 
-0.760887 0.981165 0.000000 
-0.715464 0.264840 0.000000 
-0.058101 0.058253 0.000000 
-0.179109 0.215697 0.000000 
-0.067501 -0.443073 0.000000 
0.679114 -0.588633 0.000000 
0.642819 0.627153 0.000000 
-0.764566 0.369341 0.000000 
0.392585 -0.557514 0.000000 
0.521497 0.805187 0.000000 
-0.693239 0.704747 0.000000 
-0.647321 -0.029414 0.000000 
0.027801 -0.236915 0.000000 
-0.052634 0.943382 0.000000 
0.515232 0.673957 0.000000 
0.967767 0.664259 0.000000 
-0.895753 0.042318 0.000000 
-0.076214 -0.025036 0.000000 
-0.008136 -0.721185 0.000000 
0.719565 -0.882796 0.000000 
0.711657 0.334723 0.000000 
-0.640629 0.104912 0.000000 
-0.760745 -0.741809 0.000000 
-0.202340 0.979856 0.000000 
0.000000 0.009264 0.000000 
-0.563815 -0.677329 0.000000 
0.000000 0.914742 0.000000 
0.563815 -0.677329 0.000000 
0.867717 0.563805 0.000000 
-0.568610 0.245358 0.000000 
0.000000 0.763423 0.000000 
0.568610 0.245358 0.000000 
-0.867717 0.563805 0.000000 
0.299379 -0.210179 0.000000 
0.858468 -0.499426 0.000000 
-0.577560 0.076190 0.000000 
0.000000 -0.342217 0.000000 
0.577560 0.076190 0.000000 
-0.858468 -0.499426 0.000000 
-0.299379 -0.210179 0.000000 
-0.270462 -0.985636 0.000000 
0.286097 0.739714 0.000000 
0.843171 -0.630120 0.000000 
-0.578765 0.984864 0.000000 
0.000000 -0.502555 0.000000 
0.578765 0.984864 0.000000 
-0.843171 -0.630120 0.000000 
-0.286097 0.739714 0.000000 
0.270462 -0.985636 0.000000 
-0.609264 -0.299137 0.000000 
0.058101 0.058253 0.000000 
0.715464 0.264840 0.000000 
0.760887 0.981165 0.000000 
0.764566 0.369341 0.000000 
-0.642819 0.627153 0.000000 
-0.679114 -0.588633 0.000000 
0.067501 -0.443073 0.000000 
0.179109 0.215697 0.000000 
-0.515232 0.673957 0.000000 
0.052634 0.943382 0.000000 
-0.027801 -0.236915 0.000000 
0.647321 -0.029414 0.000000 
0.693239 0.704747 0.000000 
-0.521497 0.805187 0.000000 
-0.392585 -0.557514 0.000000 
0.202340 0.979856 0.000000 
0.760745 -0.741809 0.000000 
0.640629 0.104912 0.000000 
-0.711657 0.334723 0.000000 
-0.719564 -0.882796 0.000000 
0.008136 -0.721185 0.000000 
0.076214 -0.025036 0.000000 
0.895753 0.042318 0.000000 
-0.967767 0.664259 0.000000 
-0.758833 -0.988010 0.000000 
0.144203 0.162649 0.000000 
0.399497 0.818919 0.000000 
-0.107668 -0.698644 0.000000 
-0.895831 -0.690573 0.000000 
-0.722276 -0.046608 0.000000 
0.662201 0.415466 0.000000 
-0.977746 -0.891387 0.000000 
0.595142 -0.396935 0.000000 
0.073357 0.461595 0.000000 
0.224624 -0.905820 0.000000 
-0.443834 -0.459419 0.000000 
-0.180147 0.215983 0.000000 
-0.704590 0.705388 0.000000 
-0.289407 -0.597329 0.000000 
-0.687451 -0.099780 0.000000 
-0.960477 -0.387238 0.000000 
-0.820773 0.240066 0.000000 
0.472458 0.665261 0.000000 
0.700058 -0.660461 0.000000 
0.108395 -0.191688 0.000000 
0.439113 0.499033 0.000000 
-0.044966 0.987854 0.000000 
0.413722 -0.305082 0.000000 
0.029063 0.193288 0.000000 
-0.337978 0.467983 0.000000 
-0.374400 -0.946453 0.000000 
-0.712408 -0.330630 0.000000 
0.610650 -0.441527 0.000000 
-0.381415 -0.333621 0.000000 
-0.755727 0.212561 0.000000 
0.515352 -0.001468 0.000000 
0.220203 0.725364 0.000000 
-0.420534 0.688288 0.000000 
-0.384685 0.307091 0.000000 
-0.765252 0.816763 0.000000 
0.485397 0.553113 0.000000 
0.141211 -0.810824 0.000000 
-0.554279 -0.926527 0.000000 
-0.821308 -0.156195 0.000000 
0.552068 -0.165953 0.000000 
-0.390932 0.930079 0.000000 
-0.774365 -0.548079 0.000000 
0.461505 -0.868364 0.000000 
0.104730 -0.267344 0.000000 
-0.620368 -0.456874 0.000000 
-0.935540 0.248640 0.000000 
0.383486 0.161078 0.000000 
0.140008 0.980733 0.000000 
-0.479044 0.978117 0.000000 
CELL_DATA 175 
SCALARS MASS float 
LOOKUP_TABLE default 
0.781831 
0.864274 
0.946717 
0.864274 
0.881307 
0.921110 
0.858535 
0.921110 
0.881307 
0.887046 
0.910001 
0.869829 
0.915556 
0.869829 
0.910001 
0.887046 
0.892784 
0.915740 
0.892784 
0.927218 
0.892784 
0.927218 
0.892784 
0.915740 
0.892784 
0.781831 
0.864274 
0.946717 
0.864274 
0.881307 
0.921110 
0.858535 
0.921110 
0.881307 
0.887046 
0.910001 
0.869829 
0.915556 
0.869829 
0.910001 
0.887046 
0.892784 
0.915740 
0.892784 
0.927218 
0.892784 
0.927218 
0.892784 
0.915740 
0.892784 
0.781831 
0.864274 
0.946717 
0.864274 
0.881307 
0.921110 
0.858535 
0.921110 
0.881307 
0.887046 
0.910001 
0.869829 
0.915556 
0.869829 
0.910001 
0.887046 
0.892784 
0.915740 
0.892784 
0.927218 
0.892784 
0.927218 
0.892784 
0.915740 
0.892784 
0.781831 
0.864274 
0.946717 
0.864274 
0.881307 
0.921110 
0.858535 
0.921110 
0.881307 
0.887046 
0.910001 
0.869829 
0.915556 
0.869829 
0.910001 
0.887046 
0.892784 
0.915740 
0.892784 
0.927218 
0.892784 
0.927218 
0.892784 
0.915740 
0.892784 
0.781831 
0.864274 
0.946717 
0.864274 
0.881307 
0.921110 
0.858535 
0.921110 
0.881307 
0.887046 
0.910001 
0.869829 
0.915556 
0.869829 
0.910001 
0.887046 
0.892784 
0.915740 
0.892784 
0.927218 
0.892784 
0.927218 
0.892784 
0.915740 
0.892784 
0.781831 
0.864274 
0.946717 
0.864274 
0.881307 
0.921110 
0.858535 
0.921110 
0.881307 
0.887046 
0.910001 
0.869829 
0.915556 
0.869829 
0.910001 
0.887046 
0.892784 
0.915740 
0.892784 
0.927218 
0.892784 
0.927218 
0.892784 
0.915740 
0.892784 
0.781831 
0.864274 
0.946717 
0.864274 
0.881307 
0.921110 
0.858535 
0.921110 
0.881307 
0.887046 
0.910001 
0.869829 
0.915556 
0.869829 
0.910001 
0.887046 
0.892784 
0.915740 
0.892784 
0.927218 
0.892784 
0.927218 
0.892784 
0.915740 
0.892784 
SCALARS MASS float 
LOOKUP_TABLE default 
0.781831 
0.864274 
0.946717 
0.864274 
0.881307 
0.921110 
0.858535 
0.921110 
0.881307 
0.887046 
0.910001 
0.869829 
0.915556 
0.869829 
0.910001 
0.887046 
0.892784 
0.915740 
0.892784 
0.927218 
0.892784 
0.927218 
0.892784 
0.915740 
0.892784 
0.781831 
0.864274 
0.946717 
0.864274 
0.881307 
0.921110 
0.858535 
0.921110 
0.881307 
0.887046 
0.910001 
0.869829 
0.915556 
0.869829 
0.910001 
0.887046 
0.892784 
0.915740 
0.892784 
0.927218 
0.892784 
0.927218 
0.892784 
0.915740 
0.892784 
0.781831 
0.864274 
0.946717 
0.864274 
0.881307 
0.921110 
0.858535 
0.921110 
0.881307 
0.887046 
0.910001 
0.869829 
0.915556 
0.869829 
0.910001 
0.887046 
0.892784 
0.915740 
0.892784 
0.927218 
0.892784 
0.927218 
0.892784 
0.915740 
0.892784 
0.781831 
0.864274 
0.946717 
0.864274 
0.881307 
0.921110 
0.858535 
0.921110 
0.881307 
0.887046 
0.910001 
0.869829 
0.915556 
0.869829 
0.910001 
0.887046 
0.892784 
0.915740 
0.892784 
0.927218 
0.892784 
0.927218 
0.892784 
0.915740 
0.892784 
0.781831 
0.864274 
0.946717 
0.864274 
0.881307 
0.921110 
0.858535 
0.921110 
0.881307 
0.887046 
0.910001 
0.869829 
0.915556 
0.869829 
0.910001 
0.887046 
0.892784 
0.915740 
0.892784 
0.927218 
0.892784 
0.927218 
0.892784 
0.915740 
0.892784 
0.781831 
0.864274 
0.946717 
0.864274 
0.881307 
0.921110 
0.858535 
0.921110 
0.881307 
0.887046 
0.910001 
0.869829 
0.915556 
0.869829 
0.910001 
0.887046 
0.892784 
0.915740 
0.892784 
0.927218 
0.892784 
0.927218 
0.892784 
0.915740 
0.892784 
0.781831 
0.864274 
0.946717 
0.864274 
0.881307 
0.921110 
0.858535 
0.921110 
0.881307 
0.887046 
0.910001 
0.869829 
0.915556 
0.869829 
0.910001 
0.887046 
0.892784 
0.915740 
0.892784 
0.927218 
0.892784 
0.927218 
0.892784 
0.915740 
0.892784 
SCALARS DENSITY float 
LOOKUP_TABLE default 
198.633290 
198.578978 
199.079921 
199.631940 
199.101149 
199.855535 
200.739453 
200.242007 
199.657386 
199.422688 
199.265608 
198.645058 
201.240770 
198.210703 
199.589640 
202.493883 
201.235625 
200.958090 
199.718299 
199.424668 
205.277686 
198.262069 
198.480624 
195.746996 
203.394278 
198.330803 
197.842238 
199.715334 
199.322479 
199.610562 
198.647085 
202.221669 
200.475480 
199.264521 
201.202064 
199.015791 
198.106431 
199.860421 
196.062495 
203.386876 
200.347506 
201.348743 
201.389076 
200.350004 
197.662899 
197.477611 
204.490831 
200.144189 
200.090582 
198.636835 
200.925670 
202.134220 
201.969454 
200.459234 
200.135023 
201.971016 
197.068670 
198.924041 
198.383343 
196.635720 
200.478819 
198.358649 
198.737719 
201.253819 
199.211812 
200.380110 
200.588819 
201.731771 
199.993289 
199.492076 
200.522512 
203.613989 
201.423867 
198.860766 
201.191907 
201.160584 
199.353828 
201.855091 
199.353828 
201.163938 
199.670786 
200.019582 
199.670786 
201.163938 
199.923204 
203.200435 
200.153945 
198.892814 
200.153945 
203.200435 
199.923204 
197.399273 
196.744576 
205.800123 
202.922523 
192.874892 
202.922523 
205.800123 
196.744576 
197.399273 
200.925670 
200.459234 
201.969454 
202.134220 
198.383343 
198.924041 
197.068670 
201.971016 
200.135023 
200.380111 
199.211812 
201.253819 
198.737719 
198.358649 
200.478819 
196.635721 
201.191907 
198.860766 
201.423867 
203.613989 
200.522512 
199.492076 
199.993289 
201.731771 
200.588819 
198.330803 
199.322479 
199.715334 
197.842238 
199.264521 
200.475480 
202.221669 
198.647085 
199.610562 
200.347506 
203.386876 
196.062495 
199.860421 
198.106431 
199.015791 
201.202064 
198.636835 
200.090582 
200.144189 
204.490831 
197.477611 
197.662899 
200.350004 
201.389076 
201.348743 
198.633290 
199.631940 
199.079921 
198.578978 
199.657386 
200.242007 
200.739453 
199.855535 
199.101149 
202.493883 
199.589640 
198.210703 
201.240770 
198.645058 
199.265608 
199.422688 
203.394278 
195.746996 
198.480624 
198.262069 
205.277686 
199.424668 
199.718299 
200.958090 
201.235625 
SCALARS ELEM_i float 
LOOKUP_TABLE default 
182 
209 
182 
182 
210 
210 
210 
183 
183 
237 
210 
210 
210 
211 
184 
184 
238 
238 
238 
211 
211 
211 
211 
184 
185 
181 
208 
209 
209 
235 
208 
236 
209 
209 
235 
235 
236 
236 
236 
236 
237 
262 
262 
263 
263 
263 
263 
264 
237 
237 
181 
208 
208 
208 
207 
207 
207 
208 
235 
206 
207 
234 
234 
234 
235 
235 
206 
233 
233 
233 
233 
234 
261 
261 
262 
181 
180 
181 
180 
153 
180 
180 
180 
207 
152 
152 
179 
179 
179 
206 
206 
151 
152 
151 
179 
178 
179 
205 
206 
205 
181 
154 
154 
154 
127 
154 
153 
153 
153 
127 
127 
126 
126 
126 
153 
152 
100 
99 
99 
126 
125 
125 
125 
125 
152 
181 
155 
155 
154 
155 
155 
128 
154 
127 
129 
128 
128 
128 
128 
127 
127 
129 
129 
102 
101 
101 
101 
101 
100 
100 
182 
182 
182 
155 
183 
183 
156 
156 
156 
184 
184 
157 
156 
156 
156 
129 
185 
184 
157 
157 
157 
157 
130 
130 
130 
VECTORS VELOCITY float 
-0.001957 -0.751328 0.000000 
0.015658 -0.684226 0.004453 
-0.008348 -0.942082 0.019525 
-0.039849 -0.276991 0.015667 
0.160881 -1.022832 0.000000 
0.081944 -1.135273 0.000000 
0.029530 -1.021039 0.000000 
-0.011281 -1.092973 0.000000 
-0.006917 -0.667625 0.015748 
0.124827 -1.077596 0.000000 
0.160472 -1.044558 0.000000 
0.139415 -0.344659 0.017761 
0.062437 -0.251276 0.009864 
-0.038196 -1.045903 0.000000 
-0.040961 -0.868743 0.000000 
-0.044371 -1.106721 0.000000 
-0.070087 -0.973891 0.000000 
0.021852 -1.129504 0.000000 
-0.034840 -0.724087 0.000000 
0.077239 -1.101653 0.000000 
-0.055951 -0.483414 0.018466 
-0.087789 -1.175769 0.000000 
-0.196530 -0.349671 0.006055 
-0.151104 -1.080689 0.020169 
-0.135447 -0.781273 0.000000 
0.000000 -0.000000 0.020044 
0.087322 -0.391060 0.012655 
0.020887 -0.840831 0.000000 
0.058419 -1.073834 0.000000 
0.030246 -0.892885 0.004598 
-0.038250 -0.576901 0.022544 
0.120352 -1.300697 0.000000 
0.148488 -1.196099 0.000000 
0.189451 -0.294322 0.021618 
0.056018 -0.974029 0.000000 
0.109888 -0.419663 0.014670 
0.096239 -1.016563 0.000000 
0.112582 -1.170187 0.000000 
0.107481 -0.758887 0.016477 
0.043445 0.092594 0.008900 
0.115494 -1.097348 0.000000 
0.007964 -0.772348 0.000000 
0.033839 -0.765970 0.000000 
0.017419 -0.648956 0.000000 
0.072176 -0.901881 0.000000 
0.104934 -1.067095 0.000000 
0.159344 -0.483305 0.003460 
0.045868 -0.914823 0.000000 
0.002456 -1.202609 0.000000 
-0.038450 -0.749023 0.022308 
0.006718 -0.629001 0.000000 
0.017283 -1.180611 0.000000 
0.011391 -0.922706 0.000000 
0.000548 -0.979817 0.000000 
0.014832 -1.060580 0.000000 
-0.010275 -0.619829 0.010618 
-0.024602 -0.192262 0.019143 
-0.045372 -0.994902 0.000000 
-0.028717 -1.060594 0.000000 
0.107241 -0.469459 0.015885 
-0.000566 -0.957842 0.000000 
-0.008720 -1.002166 0.000000 
-0.030755 -0.935639 0.000000 
0.023697 -1.019055 0.000000 
-0.005367 -0.921625 0.000000 
0.045777 -0.967398 0.000000 
0.098791 -0.873173 0.000000 
0.025625 -0.949633 0.000000 
-0.200336 -1.189190 0.000000 
0.007606 -0.696090 0.011363 
-0.047826 -0.515112 0.019648 
0.085129 -1.323736 0.000000 
-0.021407 -1.291112 0.000000 
-0.016226 -0.399382 0.002716 
0.012719 -0.943253 0.000000 
-0.000000 -0.772228 0.000000 
-0.005300 -0.558228 0.004973 
0.000000 -1.192749 0.000000 
0.005300 -0.558228 0.017819 
-0.057679 -1.129870 0.000000 
-0.034249 -1.186144 0.000000 
0.000000 -1.122308 0.000000 
0.034249 -1.186144 0.000000 
0.057679 -1.129870 0.000000 
-0.031892 -1.011186 0.000000 
-0.033756 -0.533884 0.021187 
-0.010569 -1.029435 0.000000 
0.000000 -0.804729 0.011396 
0.010569 -1.029435 0.000000 
0.033756 -0.533884 0.001605 
0.031892 -1.011186 0.000000 
0.000000 -0.000000 0.008314 
-0.033679 -0.940737 0.000000 
0.070521 -0.451724 0.021044 
0.004390 -0.963515 0.000000 
0.000000 -1.271324 0.011396 
-0.004390 -0.963515 0.000000 
-0.070521 -0.451724 0.001748 
0.033679 -0.940737 0.000000 
0.000000 -0.000000 0.014478 
-0.006718 -0.629001 0.000000 
-0.000548 -0.979817 0.000000 
-0.011391 -0.922706 0.000000 
-0.017283 -1.180611 0.000000 
0.028717 -1.060594 0.000000 
0.045372 -0.994902 0.000000 
0.024602 -0.192262 0.003649 
0.010275 -0.619829 0.012174 
-0.014832 -1.060580 0.000000 
-0.045777 -0.967398 0.000000 
0.005367 -0.921625 0.000000 
-0.023697 -1.019055 0.000000 
0.030755 -0.935639 0.000000 
0.008720 -1.002166 0.000000 
0.000566 -0.957842 0.000000 
-0.107241 -0.469459 0.006907 
-0.012719 -0.943253 0.000000 
0.016226 -0.399382 0.020076 
0.021407 -1.291112 0.000000 
-0.085129 -1.323736 0.000000 
0.047826 -0.515112 0.003144 
-0.007606 -0.696090 0.011429 
0.200336 -1.189190 0.000000 
-0.025625 -0.949633 0.000000 
-0.098791 -0.873173 0.000000 
0.000000 -0.000000 0.002748 
-0.058419 -1.073834 0.000000 
-0.020887 -0.840831 0.000000 
-0.087322 -0.391060 0.010137 
-0.189451 -0.294322 0.001174 
-0.148488 -1.196099 0.000000 
-0.120352 -1.300697 0.000000 
0.038250 -0.576901 0.000248 
-0.030246 -0.892885 0.018194 
-0.115494 -1.097348 0.000000 
-0.043445 0.092594 0.013892 
-0.107481 -0.758887 0.006315 
-0.112582 -1.170187 0.000000 
-0.096239 -1.016563 0.000000 
-0.109888 -0.419663 0.008122 
-0.056018 -0.974029 0.000000 
0.038450 -0.749023 0.000484 
-0.002456 -1.202609 0.000000 
-0.045868 -0.914823 0.000000 
-0.159344 -0.483305 0.019332 
-0.104934 -1.067095 0.000000 
-0.072176 -0.901881 0.000000 
-0.017419 -0.648956 0.000000 
-0.033839 -0.765970 0.000000 
-0.007964 -0.772348 0.000000 
0.001957 -0.751328 0.000000 
0.039849 -0.276991 0.007125 
0.008348 -0.942082 0.003267 
-0.015658 -0.684226 0.018339 
0.006917 -0.667625 0.007044 
0.011281 -1.092973 0.000000 
-0.029530 -1.021039 0.000000 
-0.081944 -1.135273 0.000000 
-0.160881 -1.022832 0.000000 
0.044371 -1.106721 0.000000 
0.040961 -0.868743 0.000000 
0.038196 -1.045903 0.000000 
-0.062437 -0.251276 0.012928 
-0.139415 -0.344659 0.005031 
-0.160472 -1.044558 0.000000 
-0.124827 -1.077596 0.000000 
0.135447 -0.781273 0.000000 
0.151104 -1.080689 0.002623 
0.196530 -0.349671 0.016737 
0.087789 -1.175769 0.000000 
0.055951 -0.483414 0.004326 
-0.077239 -1.101653 0.000000 
0.034840 -0.724087 0.000000 
-0.021852 -1.129504 0.000000 
0.070087 -0.973891 0.000000 
TENSORS STRESS float 
0.805132 -0.116320 0.000000 
0.000000 2.311312 0.000000 
0.000000 0.000000 0.000000 

11.866395 -0.414418 0.000000 
0.000000 11.846247 0.000000 
0.000000 0.000000 0.000000 

5.122177 -0.297327 0.000000 
0.000000 6.622726 0.000000 
0.000000 0.000000 0.000000 

4.383040 0.126198 0.000000 
0.000000 5.133202 0.000000 
0.000000 0.000000 0.000000 

14.485652 0.037810 0.000000 
0.000000 14.791737 0.000000 
0.000000 0.000000 0.000000 

6.564903 0.195144 0.000000 
0.000000 6.186275 0.000000 
0.000000 0.000000 0.000000 

4.108933 -0.470499 0.000000 
0.000000 3.333813 0.000000 
0.000000 0.000000 0.000000 

-14.866589 0.205422 0.000000 
0.000000 -15.238159 0.000000 
0.000000 0.000000 0.000000 

-16.013853 0.098688 0.000000 
0.000000 -16.235942 0.000000 
0.000000 0.000000 0.000000 

12.622954 0.214978 0.000000 
0.000000 13.922556 0.000000 
0.000000 0.000000 0.000000 

22.122678 -0.919662 0.000000 
0.000000 22.720220 0.000000 
0.000000 0.000000 0.000000 

15.599820 -0.332350 0.000000 
0.000000 15.294745 0.000000 
0.000000 0.000000 0.000000 
