# vtk DataFile Version 3.0 
vtk output 
ASCII 
DATASET UNSTRUCTURED_GRID 
POINTS 4 float 
1.000000 1.000000 0.000000 
-1.000000 1.000000 0.000000 
-1.000000 -1.000000 0.000000 
1.000000 -1.000000 0.000000 
CELLS 1 5 
4 0  1  2  3 
CELL_TYPES 1 
9 
POINT_DATA 4 
VECTORS X_GC float 
1.000000 1.000000 0.000000 
-1.000000 1.000000 0.000000 
-1.000000 -1.000000 0.000000 
1.000000 -1.000000 0.000000 
SCALARS Active_Nod_Active int 
LOOKUP_TABLE default 
4
4
4
4
VECTORS MOMENTUM float 
0.000000 0.000000 0.000000 
0.000000 0.000000 0.000000 
0.000000 0.000000 0.000000 
0.000000 0.000000 0.000000 
CELL_DATA 1 
