# vtk DataFile Version 3.0 
vtk output 
ASCII 
DATASET UNSTRUCTURED_GRID 
POINTS 121 float 
1.000000 0.000000 0.000000 
1.000000 0.100000 0.000000 
0.900000 0.000000 0.000000 
0.900000 0.100000 0.000000 
1.000000 0.200000 0.000000 
0.800000 0.000000 0.000000 
0.900000 0.200000 0.000000 
0.800000 0.100000 0.000000 
0.800000 0.200000 0.000000 
1.000000 0.300000 0.000000 
0.700000 0.000000 0.000000 
0.900000 0.300000 0.000000 
0.700000 0.100000 0.000000 
0.700000 0.200000 0.000000 
0.800000 0.300000 0.000000 
1.000000 0.400000 0.000000 
0.600000 0.000000 0.000000 
0.900000 0.400000 0.000000 
0.600000 0.100000 0.000000 
0.700000 0.300000 0.000000 
0.600000 0.200000 0.000000 
0.800000 0.400000 0.000000 
0.700000 0.400000 0.000000 
1.000000 0.500000 0.000000 
0.500000 0.000000 0.000000 
0.600000 0.300000 0.000000 
0.900000 0.500000 0.000000 
0.500000 0.100000 0.000000 
0.500000 0.200000 0.000000 
0.800000 0.500000 0.000000 
0.600000 0.400000 0.000000 
0.700000 0.500000 0.000000 
0.500000 0.300000 0.000000 
1.000000 0.600000 0.000000 
0.400000 0.000000 0.000000 
0.900000 0.600000 0.000000 
0.400000 0.100000 0.000000 
0.800000 0.600000 0.000000 
0.400000 0.200000 0.000000 
0.500000 0.400000 0.000000 
0.600000 0.500000 0.000000 
0.700000 0.600000 0.000000 
0.400000 0.300000 0.000000 
1.000000 0.700000 0.000000 
0.300000 0.000000 0.000000 
0.300000 0.100000 0.000000 
0.900000 0.700000 0.000000 
0.500000 0.500000 0.000000 
0.600000 0.600000 0.000000 
0.400000 0.400000 0.000000 
0.800000 0.700000 0.000000 
0.300000 0.200000 0.000000 
0.700000 0.700000 0.000000 
0.300000 0.300000 0.000000 
0.500000 0.600000 0.000000 
0.400000 0.500000 0.000000 
1.000000 0.800000 0.000000 
0.200000 0.000000 0.000000 
0.600000 0.700000 0.000000 
0.300000 0.400000 0.000000 
0.900000 0.800000 0.000000 
0.200000 0.100000 0.000000 
0.800000 0.800000 0.000000 
0.200000 0.200000 0.000000 
0.400000 0.600000 0.000000 
0.700000 0.800000 0.000000 
0.200000 0.300000 0.000000 
0.500000 0.700000 0.000000 
0.300000 0.500000 0.000000 
0.600000 0.800000 0.000000 
0.200000 0.400000 0.000000 
1.000000 0.900000 0.000000 
0.100000 0.000000 0.000000 
0.100000 0.100000 0.000000 
0.900000 0.900000 0.000000 
0.100000 0.200000 0.000000 
0.300000 0.600000 0.000000 
0.800000 0.900000 0.000000 
0.400000 0.700000 0.000000 
0.500000 0.800000 0.000000 
0.200000 0.500000 0.000000 
0.700000 0.900000 0.000000 
0.100000 0.300000 0.000000 
0.100000 0.400000 0.000000 
0.600000 0.900000 0.000000 
0.300000 0.700000 0.000000 
0.000000 0.000000 0.000000 
1.000000 1.000000 0.000000 
0.400000 0.800000 0.000000 
0.200000 0.600000 0.000000 
0.900000 1.000000 0.000000 
0.000000 0.100000 0.000000 
0.800000 1.000000 0.000000 
0.000000 0.200000 0.000000 
0.100000 0.500000 0.000000 
0.500000 0.900000 0.000000 
0.700000 1.000000 0.000000 
0.000000 0.300000 0.000000 
0.300000 0.800000 0.000000 
0.200000 0.700000 0.000000 
0.600000 1.000000 0.000000 
0.000000 0.400000 0.000000 
0.400000 0.900000 0.000000 
0.100000 0.600000 0.000000 
0.500000 1.000000 0.000000 
0.000000 0.500000 0.000000 
0.200000 0.800000 0.000000 
0.100000 0.700000 0.000000 
0.300000 0.900000 0.000000 
0.400000 1.000000 0.000000 
0.000000 0.600000 0.000000 
0.100000 0.800000 0.000000 
0.200000 0.900000 0.000000 
0.300000 1.000000 0.000000 
0.000000 0.700000 0.000000 
0.100000 0.900000 0.000000 
0.200000 1.000000 0.000000 
0.000000 0.800000 0.000000 
0.100000 1.000000 0.000000 
0.000000 0.900000 0.000000 
0.000000 1.000000 0.000000 
CELLS 100 500 
4 90  74  71  87 
4 92  77  74  90 
4 96  81  77  92 
4 100  84  81  96 
4 104  95  84  100 
4 109  102  95  104 
4 113  108  102  109 
4 116  112  108  113 
4 118  115  112  116 
4 120  119  115  118 
4 74  60  56  71 
4 77  62  60  74 
4 81  65  62  77 
4 84  69  65  81 
4 95  79  69  84 
4 102  88  79  95 
4 108  98  88  102 
4 112  106  98  108 
4 115  111  106  112 
4 119  117  111  115 
4 60  46  43  56 
4 62  50  46  60 
4 65  52  50  62 
4 69  58  52  65 
4 79  67  58  69 
4 88  78  67  79 
4 98  85  78  88 
4 106  99  85  98 
4 111  107  99  106 
4 117  114  107  111 
4 46  35  33  43 
4 50  37  35  46 
4 52  41  37  50 
4 58  48  41  52 
4 67  54  48  58 
4 78  64  54  67 
4 85  76  64  78 
4 99  89  76  85 
4 107  103  89  99 
4 114  110  103  107 
4 35  26  23  33 
4 37  29  26  35 
4 41  31  29  37 
4 48  40  31  41 
4 54  47  40  48 
4 64  55  47  54 
4 76  68  55  64 
4 89  80  68  76 
4 103  94  80  89 
4 110  105  94  103 
4 26  17  15  23 
4 29  21  17  26 
4 31  22  21  29 
4 40  30  22  31 
4 47  39  30  40 
4 55  49  39  47 
4 68  59  49  55 
4 80  70  59  68 
4 94  83  70  80 
4 105  101  83  94 
4 17  11  9  15 
4 21  14  11  17 
4 22  19  14  21 
4 30  25  19  22 
4 39  32  25  30 
4 49  42  32  39 
4 59  53  42  49 
4 70  66  53  59 
4 83  82  66  70 
4 101  97  82  83 
4 11  6  4  9 
4 14  8  6  11 
4 19  13  8  14 
4 25  20  13  19 
4 32  28  20  25 
4 42  38  28  32 
4 53  51  38  42 
4 66  63  51  53 
4 82  75  63  66 
4 97  93  75  82 
4 6  3  1  4 
4 8  7  3  6 
4 13  12  7  8 
4 20  18  12  13 
4 28  27  18  20 
4 38  36  27  28 
4 51  45  36  38 
4 63  61  45  51 
4 75  73  61  63 
4 93  91  73  75 
4 3  2  0  1 
4 7  5  2  3 
4 12  10  5  7 
4 18  16  10  12 
4 27  24  16  18 
4 36  34  24  27 
4 45  44  34  36 
4 61  57  44  45 
4 73  72  57  61 
4 91  86  72  73 
CELL_TYPES 100 
9 
9 
9 
9 
9 
9 
9 
9 
9 
9 
9 
9 
9 
9 
9 
9 
9 
9 
9 
9 
9 
9 
9 
9 
9 
9 
9 
9 
9 
9 
9 
9 
9 
9 
9 
9 
9 
9 
9 
9 
9 
9 
9 
9 
9 
9 
9 
9 
9 
9 
9 
9 
9 
9 
9 
9 
9 
9 
9 
9 
9 
9 
9 
9 
9 
9 
9 
9 
9 
9 
9 
9 
9 
9 
9 
9 
9 
9 
9 
9 
9 
9 
9 
9 
9 
9 
9 
9 
9 
9 
9 
9 
9 
9 
9 
9 
9 
9 
9 
9 
POINT_DATA 121 
VECTORS X_GC float 
1.000000 0.000000 0.000000 
1.000000 0.100000 0.000000 
0.900000 0.000000 0.000000 
0.900000 0.100000 0.000000 
1.000000 0.200000 0.000000 
0.800000 0.000000 0.000000 
0.900000 0.200000 0.000000 
0.800000 0.100000 0.000000 
0.800000 0.200000 0.000000 
1.000000 0.300000 0.000000 
0.700000 0.000000 0.000000 
0.900000 0.300000 0.000000 
0.700000 0.100000 0.000000 
0.700000 0.200000 0.000000 
0.800000 0.300000 0.000000 
1.000000 0.400000 0.000000 
0.600000 0.000000 0.000000 
0.900000 0.400000 0.000000 
0.600000 0.100000 0.000000 
0.700000 0.300000 0.000000 
0.600000 0.200000 0.000000 
0.800000 0.400000 0.000000 
0.700000 0.400000 0.000000 
1.000000 0.500000 0.000000 
0.500000 0.000000 0.000000 
0.600000 0.300000 0.000000 
0.900000 0.500000 0.000000 
0.500000 0.100000 0.000000 
0.500000 0.200000 0.000000 
0.800000 0.500000 0.000000 
0.600000 0.400000 0.000000 
0.700000 0.500000 0.000000 
0.500000 0.300000 0.000000 
1.000000 0.600000 0.000000 
0.400000 0.000000 0.000000 
0.900000 0.600000 0.000000 
0.400000 0.100000 0.000000 
0.800000 0.600000 0.000000 
0.400000 0.200000 0.000000 
0.500000 0.400000 0.000000 
0.600000 0.500000 0.000000 
0.700000 0.600000 0.000000 
0.400000 0.300000 0.000000 
1.000000 0.700000 0.000000 
0.300000 0.000000 0.000000 
0.300000 0.100000 0.000000 
0.900000 0.700000 0.000000 
0.500000 0.500000 0.000000 
0.600000 0.600000 0.000000 
0.400000 0.400000 0.000000 
0.800000 0.700000 0.000000 
0.300000 0.200000 0.000000 
0.700000 0.700000 0.000000 
0.300000 0.300000 0.000000 
0.500000 0.600000 0.000000 
0.400000 0.500000 0.000000 
1.000000 0.800000 0.000000 
0.200000 0.000000 0.000000 
0.600000 0.700000 0.000000 
0.300000 0.400000 0.000000 
0.900000 0.800000 0.000000 
0.200000 0.100000 0.000000 
0.800000 0.800000 0.000000 
0.200000 0.200000 0.000000 
0.400000 0.600000 0.000000 
0.700000 0.800000 0.000000 
0.200000 0.300000 0.000000 
0.500000 0.700000 0.000000 
0.300000 0.500000 0.000000 
0.600000 0.800000 0.000000 
0.200000 0.400000 0.000000 
1.000000 0.900000 0.000000 
0.100000 0.000000 0.000000 
0.100000 0.100000 0.000000 
0.900000 0.900000 0.000000 
0.100000 0.200000 0.000000 
0.300000 0.600000 0.000000 
0.800000 0.900000 0.000000 
0.400000 0.700000 0.000000 
0.500000 0.800000 0.000000 
0.200000 0.500000 0.000000 
0.700000 0.900000 0.000000 
0.100000 0.300000 0.000000 
0.100000 0.400000 0.000000 
0.600000 0.900000 0.000000 
0.300000 0.700000 0.000000 
0.000000 0.000000 0.000000 
1.000000 1.000000 0.000000 
0.400000 0.800000 0.000000 
0.200000 0.600000 0.000000 
0.900000 1.000000 0.000000 
0.000000 0.100000 0.000000 
0.800000 1.000000 0.000000 
0.000000 0.200000 0.000000 
0.100000 0.500000 0.000000 
0.500000 0.900000 0.000000 
0.700000 1.000000 0.000000 
0.000000 0.300000 0.000000 
0.300000 0.800000 0.000000 
0.200000 0.700000 0.000000 
0.600000 1.000000 0.000000 
0.000000 0.400000 0.000000 
0.400000 0.900000 0.000000 
0.100000 0.600000 0.000000 
0.500000 1.000000 0.000000 
0.000000 0.500000 0.000000 
0.200000 0.800000 0.000000 
0.100000 0.700000 0.000000 
0.300000 0.900000 0.000000 
0.400000 1.000000 0.000000 
0.000000 0.600000 0.000000 
0.100000 0.800000 0.000000 
0.200000 0.900000 0.000000 
0.300000 1.000000 0.000000 
0.000000 0.700000 0.000000 
0.100000 0.900000 0.000000 
0.200000 1.000000 0.000000 
0.000000 0.800000 0.000000 
0.100000 1.000000 0.000000 
0.000000 0.900000 0.000000 
0.000000 1.000000 0.000000 
SCALARS Active_Nod_Active int 
LOOKUP_TABLE default 
0
0
0
0
0
0
0
0
0
0
0
0
0
0
0
0
0
0
0
0
0
0
0
0
0
0
6
5
21
21
0
23
24
3
6
35
37
68
70
8
8
69
71
15
16
61
64
0
41
40
96
96
90
100
8
8
16
13
66
72
63
56
97
89
0
91
96
23
23
64
71
4
3
31
31
57
0
61
0
23
21
63
58
35
37
0
0
0
0
0
3
4
13
15
6
8
16
15
0
0
6
4
0
0
0
0
0
0
0
0
0
0
0
0
0
0
0
0
0
0
0
VECTORS MOMENTUM float 
0.000000 0.000000 0.000000 
0.000000 0.000000 0.000000 
0.000000 0.000000 0.000000 
0.000000 0.000000 0.000000 
0.000000 0.000000 0.000000 
0.000000 0.000000 0.000000 
0.000000 0.000000 0.000000 
0.000000 0.000000 0.000000 
0.000000 0.000000 0.000000 
0.000000 0.000000 0.000000 
0.000000 0.000000 0.000000 
0.000000 0.000000 0.000000 
0.000000 0.000000 0.000000 
0.000000 0.000000 0.000000 
0.000000 0.000000 0.000000 
0.000000 0.000000 0.000000 
0.000000 0.000000 0.000000 
0.000000 0.000000 0.000000 
0.000000 0.000000 0.000000 
0.000000 0.000000 0.000000 
0.000000 0.000000 0.000000 
0.000000 0.000000 0.000000 
0.000000 0.000000 0.000000 
0.000000 0.000000 0.000000 
0.000000 0.000000 0.000000 
0.000000 0.000000 0.000000 
0.001851 0.001864 0.000000 
-0.001602 -0.001752 0.000000 
-0.021186 -0.020986 0.000000 
0.019751 0.019829 0.000000 
0.000000 0.000000 0.000000 
0.023349 0.023547 0.000000 
-0.024468 -0.023764 0.000000 
0.000845 0.000834 0.000000 
-0.001015 -0.001001 0.000000 
0.065653 0.067762 0.000000 
-0.067071 -0.069360 0.000000 
0.165258 0.163532 0.000000 
-0.164976 -0.170826 0.000000 
-0.003297 -0.003665 0.000000 
0.003684 0.003494 0.000000 
0.175877 0.168045 0.000000 
-0.172468 -0.176477 0.000000 
0.010814 0.010755 0.000000 
-0.011139 -0.011100 0.000000 
-0.155119 -0.155732 0.000000 
0.152568 0.154440 0.000000 
0.000000 0.000000 0.000000 
0.093067 0.093852 0.000000 
-0.092908 -0.094308 0.000000 
0.197231 0.197447 0.000000 
-0.198682 -0.203541 0.000000 
0.199755 0.198862 0.000000 
-0.198599 -0.197140 0.000000 
0.003329 0.003805 0.000000 
-0.003799 -0.003576 0.000000 
0.009351 0.009475 0.000000 
-0.009210 -0.009376 0.000000 
0.172254 0.178354 0.000000 
-0.174772 -0.171871 0.000000 
0.145449 0.147710 0.000000 
-0.146562 -0.143859 0.000000 
0.199634 0.201547 0.000000 
-0.198981 -0.200202 0.000000 
0.000000 0.000000 0.000000 
0.198875 0.204199 0.000000 
-0.199800 -0.198164 0.000000 
0.024426 0.024435 0.000000 
-0.023270 -0.024171 0.000000 
0.165451 0.171891 0.000000 
-0.163468 -0.162380 0.000000 
0.000348 0.000350 0.000000 
-0.000461 -0.000471 0.000000 
-0.050447 -0.049682 0.000000 
0.050567 0.050282 0.000000 
-0.145700 -0.147995 0.000000 
0.000000 0.000000 0.000000 
0.146995 0.143109 0.000000 
0.000000 0.000000 0.000000 
0.021014 0.020890 0.000000 
-0.020106 -0.020419 0.000000 
0.153784 0.152002 0.000000 
-0.151822 -0.153162 0.000000 
-0.067099 -0.067673 0.000000 
0.066311 0.070047 0.000000 
0.000000 0.000000 0.000000 
0.000000 0.000000 0.000000 
0.000000 0.000000 0.000000 
0.000000 0.000000 0.000000 
0.000000 0.000000 0.000000 
0.000497 0.000516 0.000000 
-0.000362 -0.000375 0.000000 
0.009534 0.009362 0.000000 
-0.009164 -0.009245 0.000000 
-0.001935 -0.001905 0.000000 
0.001629 0.001758 0.000000 
0.011186 0.010707 0.000000 
-0.010921 -0.010629 0.000000 
0.000000 0.000000 0.000000 
0.000000 0.000000 0.000000 
0.000914 0.000895 0.000000 
-0.000839 -0.000791 0.000000 
0.000000 0.000000 0.000000 
0.000000 0.000000 0.000000 
0.000000 0.000000 0.000000 
0.000000 0.000000 0.000000 
0.000000 0.000000 0.000000 
0.000000 0.000000 0.000000 
0.000000 0.000000 0.000000 
0.000000 0.000000 0.000000 
0.000000 0.000000 0.000000 
0.000000 0.000000 0.000000 
0.000000 0.000000 0.000000 
0.000000 0.000000 0.000000 
0.000000 0.000000 0.000000 
0.000000 0.000000 0.000000 
0.000000 0.000000 0.000000 
0.000000 0.000000 0.000000 
0.000000 0.000000 0.000000 
0.000000 0.000000 0.000000 
0.000000 0.000000 0.000000 
CELL_DATA 100 
