# vtk DataFile Version 3.0 
vtk output 
ASCII 
DATASET UNSTRUCTURED_GRID 
POINTS 121 float 
1.000000 0.000000 0.000000 
1.000000 0.100000 0.000000 
0.900000 0.000000 0.000000 
0.900000 0.100000 0.000000 
1.000000 0.200000 0.000000 
0.800000 0.000000 0.000000 
0.900000 0.200000 0.000000 
0.800000 0.100000 0.000000 
0.800000 0.200000 0.000000 
1.000000 0.300000 0.000000 
0.700000 0.000000 0.000000 
0.900000 0.300000 0.000000 
0.700000 0.100000 0.000000 
0.700000 0.200000 0.000000 
0.800000 0.300000 0.000000 
1.000000 0.400000 0.000000 
0.600000 0.000000 0.000000 
0.900000 0.400000 0.000000 
0.600000 0.100000 0.000000 
0.700000 0.300000 0.000000 
0.600000 0.200000 0.000000 
0.800000 0.400000 0.000000 
0.700000 0.400000 0.000000 
1.000000 0.500000 0.000000 
0.500000 0.000000 0.000000 
0.600000 0.300000 0.000000 
0.900000 0.500000 0.000000 
0.500000 0.100000 0.000000 
0.500000 0.200000 0.000000 
0.800000 0.500000 0.000000 
0.600000 0.400000 0.000000 
0.700000 0.500000 0.000000 
0.500000 0.300000 0.000000 
1.000000 0.600000 0.000000 
0.400000 0.000000 0.000000 
0.900000 0.600000 0.000000 
0.400000 0.100000 0.000000 
0.800000 0.600000 0.000000 
0.400000 0.200000 0.000000 
0.500000 0.400000 0.000000 
0.600000 0.500000 0.000000 
0.700000 0.600000 0.000000 
0.400000 0.300000 0.000000 
1.000000 0.700000 0.000000 
0.300000 0.000000 0.000000 
0.300000 0.100000 0.000000 
0.900000 0.700000 0.000000 
0.500000 0.500000 0.000000 
0.600000 0.600000 0.000000 
0.400000 0.400000 0.000000 
0.800000 0.700000 0.000000 
0.300000 0.200000 0.000000 
0.700000 0.700000 0.000000 
0.300000 0.300000 0.000000 
0.500000 0.600000 0.000000 
0.400000 0.500000 0.000000 
1.000000 0.800000 0.000000 
0.200000 0.000000 0.000000 
0.600000 0.700000 0.000000 
0.300000 0.400000 0.000000 
0.900000 0.800000 0.000000 
0.200000 0.100000 0.000000 
0.800000 0.800000 0.000000 
0.200000 0.200000 0.000000 
0.400000 0.600000 0.000000 
0.700000 0.800000 0.000000 
0.200000 0.300000 0.000000 
0.500000 0.700000 0.000000 
0.300000 0.500000 0.000000 
0.600000 0.800000 0.000000 
0.200000 0.400000 0.000000 
1.000000 0.900000 0.000000 
0.100000 0.000000 0.000000 
0.100000 0.100000 0.000000 
0.900000 0.900000 0.000000 
0.100000 0.200000 0.000000 
0.300000 0.600000 0.000000 
0.800000 0.900000 0.000000 
0.400000 0.700000 0.000000 
0.500000 0.800000 0.000000 
0.200000 0.500000 0.000000 
0.700000 0.900000 0.000000 
0.100000 0.300000 0.000000 
0.100000 0.400000 0.000000 
0.600000 0.900000 0.000000 
0.300000 0.700000 0.000000 
0.000000 0.000000 0.000000 
1.000000 1.000000 0.000000 
0.400000 0.800000 0.000000 
0.200000 0.600000 0.000000 
0.900000 1.000000 0.000000 
0.000000 0.100000 0.000000 
0.800000 1.000000 0.000000 
0.000000 0.200000 0.000000 
0.100000 0.500000 0.000000 
0.500000 0.900000 0.000000 
0.700000 1.000000 0.000000 
0.000000 0.300000 0.000000 
0.300000 0.800000 0.000000 
0.200000 0.700000 0.000000 
0.600000 1.000000 0.000000 
0.000000 0.400000 0.000000 
0.400000 0.900000 0.000000 
0.100000 0.600000 0.000000 
0.500000 1.000000 0.000000 
0.000000 0.500000 0.000000 
0.200000 0.800000 0.000000 
0.100000 0.700000 0.000000 
0.300000 0.900000 0.000000 
0.400000 1.000000 0.000000 
0.000000 0.600000 0.000000 
0.100000 0.800000 0.000000 
0.200000 0.900000 0.000000 
0.300000 1.000000 0.000000 
0.000000 0.700000 0.000000 
0.100000 0.900000 0.000000 
0.200000 1.000000 0.000000 
0.000000 0.800000 0.000000 
0.100000 1.000000 0.000000 
0.000000 0.900000 0.000000 
0.000000 1.000000 0.000000 
CELLS 100 500 
4 90  74  71  87 
4 92  77  74  90 
4 96  81  77  92 
4 100  84  81  96 
4 104  95  84  100 
4 109  102  95  104 
4 113  108  102  109 
4 116  112  108  113 
4 118  115  112  116 
4 120  119  115  118 
4 74  60  56  71 
4 77  62  60  74 
4 81  65  62  77 
4 84  69  65  81 
4 95  79  69  84 
4 102  88  79  95 
4 108  98  88  102 
4 112  106  98  108 
4 115  111  106  112 
4 119  117  111  115 
4 60  46  43  56 
4 62  50  46  60 
4 65  52  50  62 
4 69  58  52  65 
4 79  67  58  69 
4 88  78  67  79 
4 98  85  78  88 
4 106  99  85  98 
4 111  107  99  106 
4 117  114  107  111 
4 46  35  33  43 
4 50  37  35  46 
4 52  41  37  50 
4 58  48  41  52 
4 67  54  48  58 
4 78  64  54  67 
4 85  76  64  78 
4 99  89  76  85 
4 107  103  89  99 
4 114  110  103  107 
4 35  26  23  33 
4 37  29  26  35 
4 41  31  29  37 
4 48  40  31  41 
4 54  47  40  48 
4 64  55  47  54 
4 76  68  55  64 
4 89  80  68  76 
4 103  94  80  89 
4 110  105  94  103 
4 26  17  15  23 
4 29  21  17  26 
4 31  22  21  29 
4 40  30  22  31 
4 47  39  30  40 
4 55  49  39  47 
4 68  59  49  55 
4 80  70  59  68 
4 94  83  70  80 
4 105  101  83  94 
4 17  11  9  15 
4 21  14  11  17 
4 22  19  14  21 
4 30  25  19  22 
4 39  32  25  30 
4 49  42  32  39 
4 59  53  42  49 
4 70  66  53  59 
4 83  82  66  70 
4 101  97  82  83 
4 11  6  4  9 
4 14  8  6  11 
4 19  13  8  14 
4 25  20  13  19 
4 32  28  20  25 
4 42  38  28  32 
4 53  51  38  42 
4 66  63  51  53 
4 82  75  63  66 
4 97  93  75  82 
4 6  3  1  4 
4 8  7  3  6 
4 13  12  7  8 
4 20  18  12  13 
4 28  27  18  20 
4 38  36  27  28 
4 51  45  36  38 
4 63  61  45  51 
4 75  73  61  63 
4 93  91  73  75 
4 3  2  0  1 
4 7  5  2  3 
4 12  10  5  7 
4 18  16  10  12 
4 27  24  16  18 
4 36  34  24  27 
4 45  44  34  36 
4 61  57  44  45 
4 73  72  57  61 
4 91  86  72  73 
CELL_TYPES 100 
9 
9 
9 
9 
9 
9 
9 
9 
9 
9 
9 
9 
9 
9 
9 
9 
9 
9 
9 
9 
9 
9 
9 
9 
9 
9 
9 
9 
9 
9 
9 
9 
9 
9 
9 
9 
9 
9 
9 
9 
9 
9 
9 
9 
9 
9 
9 
9 
9 
9 
9 
9 
9 
9 
9 
9 
9 
9 
9 
9 
9 
9 
9 
9 
9 
9 
9 
9 
9 
9 
9 
9 
9 
9 
9 
9 
9 
9 
9 
9 
9 
9 
9 
9 
9 
9 
9 
9 
9 
9 
9 
9 
9 
9 
9 
9 
9 
9 
9 
9 
POINT_DATA 121 
VECTORS X_GC float 
1.000000 0.000000 0.000000 
1.000000 0.100000 0.000000 
0.900000 0.000000 0.000000 
0.900000 0.100000 0.000000 
1.000000 0.200000 0.000000 
0.800000 0.000000 0.000000 
0.900000 0.200000 0.000000 
0.800000 0.100000 0.000000 
0.800000 0.200000 0.000000 
1.000000 0.300000 0.000000 
0.700000 0.000000 0.000000 
0.900000 0.300000 0.000000 
0.700000 0.100000 0.000000 
0.700000 0.200000 0.000000 
0.800000 0.300000 0.000000 
1.000000 0.400000 0.000000 
0.600000 0.000000 0.000000 
0.900000 0.400000 0.000000 
0.600000 0.100000 0.000000 
0.700000 0.300000 0.000000 
0.600000 0.200000 0.000000 
0.800000 0.400000 0.000000 
0.700000 0.400000 0.000000 
1.000000 0.500000 0.000000 
0.500000 0.000000 0.000000 
0.600000 0.300000 0.000000 
0.900000 0.500000 0.000000 
0.500000 0.100000 0.000000 
0.500000 0.200000 0.000000 
0.800000 0.500000 0.000000 
0.600000 0.400000 0.000000 
0.700000 0.500000 0.000000 
0.500000 0.300000 0.000000 
1.000000 0.600000 0.000000 
0.400000 0.000000 0.000000 
0.900000 0.600000 0.000000 
0.400000 0.100000 0.000000 
0.800000 0.600000 0.000000 
0.400000 0.200000 0.000000 
0.500000 0.400000 0.000000 
0.600000 0.500000 0.000000 
0.700000 0.600000 0.000000 
0.400000 0.300000 0.000000 
1.000000 0.700000 0.000000 
0.300000 0.000000 0.000000 
0.300000 0.100000 0.000000 
0.900000 0.700000 0.000000 
0.500000 0.500000 0.000000 
0.600000 0.600000 0.000000 
0.400000 0.400000 0.000000 
0.800000 0.700000 0.000000 
0.300000 0.200000 0.000000 
0.700000 0.700000 0.000000 
0.300000 0.300000 0.000000 
0.500000 0.600000 0.000000 
0.400000 0.500000 0.000000 
1.000000 0.800000 0.000000 
0.200000 0.000000 0.000000 
0.600000 0.700000 0.000000 
0.300000 0.400000 0.000000 
0.900000 0.800000 0.000000 
0.200000 0.100000 0.000000 
0.800000 0.800000 0.000000 
0.200000 0.200000 0.000000 
0.400000 0.600000 0.000000 
0.700000 0.800000 0.000000 
0.200000 0.300000 0.000000 
0.500000 0.700000 0.000000 
0.300000 0.500000 0.000000 
0.600000 0.800000 0.000000 
0.200000 0.400000 0.000000 
1.000000 0.900000 0.000000 
0.100000 0.000000 0.000000 
0.100000 0.100000 0.000000 
0.900000 0.900000 0.000000 
0.100000 0.200000 0.000000 
0.300000 0.600000 0.000000 
0.800000 0.900000 0.000000 
0.400000 0.700000 0.000000 
0.500000 0.800000 0.000000 
0.200000 0.500000 0.000000 
0.700000 0.900000 0.000000 
0.100000 0.300000 0.000000 
0.100000 0.400000 0.000000 
0.600000 0.900000 0.000000 
0.300000 0.700000 0.000000 
0.000000 0.000000 0.000000 
1.000000 1.000000 0.000000 
0.400000 0.800000 0.000000 
0.200000 0.600000 0.000000 
0.900000 1.000000 0.000000 
0.000000 0.100000 0.000000 
0.800000 1.000000 0.000000 
0.000000 0.200000 0.000000 
0.100000 0.500000 0.000000 
0.500000 0.900000 0.000000 
0.700000 1.000000 0.000000 
0.000000 0.300000 0.000000 
0.300000 0.800000 0.000000 
0.200000 0.700000 0.000000 
0.600000 1.000000 0.000000 
0.000000 0.400000 0.000000 
0.400000 0.900000 0.000000 
0.100000 0.600000 0.000000 
0.500000 1.000000 0.000000 
0.000000 0.500000 0.000000 
0.200000 0.800000 0.000000 
0.100000 0.700000 0.000000 
0.300000 0.900000 0.000000 
0.400000 1.000000 0.000000 
0.000000 0.600000 0.000000 
0.100000 0.800000 0.000000 
0.200000 0.900000 0.000000 
0.300000 1.000000 0.000000 
0.000000 0.700000 0.000000 
0.100000 0.900000 0.000000 
0.200000 1.000000 0.000000 
0.000000 0.800000 0.000000 
0.100000 1.000000 0.000000 
0.000000 0.900000 0.000000 
0.000000 1.000000 0.000000 
SCALARS Active_Nod_Active int 
LOOKUP_TABLE default 
0
0
0
0
0
0
0
0
0
0
0
0
0
0
0
0
0
0
0
0
0
0
0
0
0
0
8
9
30
28
0
37
39
1
1
33
33
76
78
21
20
84
88
3
4
49
52
6
61
63
97
94
91
96
21
21
2
3
81
87
43
41
91
85
0
95
93
38
40
74
75
0
0
16
16
41
0
44
0
29
29
54
49
31
35
0
0
0
0
0
0
0
2
2
7
9
3
3
0
0
1
1
0
0
0
0
0
0
0
0
0
0
0
0
0
0
0
0
0
0
0
VECTORS MOMENTUM float 
0.000000 0.000000 0.000000 
0.000000 0.000000 0.000000 
0.000000 0.000000 0.000000 
0.000000 0.000000 0.000000 
0.000000 0.000000 0.000000 
0.000000 0.000000 0.000000 
0.000000 0.000000 0.000000 
0.000000 0.000000 0.000000 
0.000000 0.000000 0.000000 
0.000000 0.000000 0.000000 
0.000000 0.000000 0.000000 
0.000000 0.000000 0.000000 
0.000000 0.000000 0.000000 
0.000000 0.000000 0.000000 
0.000000 0.000000 0.000000 
0.000000 0.000000 0.000000 
0.000000 0.000000 0.000000 
0.000000 0.000000 0.000000 
0.000000 0.000000 0.000000 
0.000000 0.000000 0.000000 
0.000000 0.000000 0.000000 
0.000000 0.000000 0.000000 
0.000000 0.000000 0.000000 
0.000000 0.000000 0.000000 
0.000000 0.000000 0.000000 
0.000000 0.000000 0.000000 
-0.003081 -0.003058 0.000000 
0.002983 0.002984 0.000000 
0.039653 0.039658 0.000000 
-0.039747 -0.039681 0.000000 
0.000000 0.000000 0.000000 
-0.063627 -0.063294 0.000000 
0.062956 0.063004 0.000000 
-0.000038 -0.000038 0.000000 
0.000022 0.000022 0.000000 
-0.059250 -0.059430 0.000000 
0.058832 0.058646 0.000000 
-0.177422 -0.177540 0.000000 
0.178553 0.177876 0.000000 
0.025973 0.025501 0.000000 
-0.025725 -0.025277 0.000000 
-0.194311 -0.194539 0.000000 
0.195139 0.194446 0.000000 
-0.000811 -0.000815 0.000000 
0.000807 0.000807 0.000000 
0.118142 0.118069 0.000000 
-0.118124 -0.118365 0.000000 
0.000001 0.000003 0.000000 
-0.147535 -0.147741 0.000000 
0.149515 0.149825 0.000000 
-0.197438 -0.197747 0.000000 
0.199639 0.199292 0.000000 
-0.197867 -0.197524 0.000000 
0.195697 0.195200 0.000000 
-0.026184 -0.025725 0.000000 
0.025691 0.025266 0.000000 
-0.000208 -0.000210 0.000000 
0.000168 0.000168 0.000000 
-0.197409 -0.196578 0.000000 
0.193875 0.194205 0.000000 
-0.083683 -0.083725 0.000000 
0.083632 0.083601 0.000000 
-0.193523 -0.193507 0.000000 
0.192889 0.192896 0.000000 
0.000000 0.000000 0.000000 
-0.198012 -0.197759 0.000000 
0.198736 0.198964 0.000000 
-0.063166 -0.063177 0.000000 
0.063604 0.063235 0.000000 
-0.177388 -0.176794 0.000000 
0.178013 0.178222 0.000000 
0.000000 0.000000 0.000000 
0.000000 0.000000 0.000000 
0.011222 0.011230 0.000000 
-0.011216 -0.011216 0.000000 
0.083871 0.083929 0.000000 
0.000000 0.000000 0.000000 
-0.083753 -0.083697 0.000000 
0.000000 0.000000 0.000000 
-0.039812 -0.039825 0.000000 
0.039663 0.039609 0.000000 
-0.118407 -0.118314 0.000000 
0.117904 0.118084 0.000000 
0.059283 0.059425 0.000000 
-0.058669 -0.058513 0.000000 
0.000000 0.000000 0.000000 
0.000000 0.000000 0.000000 
0.000000 0.000000 0.000000 
0.000000 0.000000 0.000000 
0.000000 0.000000 0.000000 
0.000000 0.000000 0.000000 
0.000000 0.000000 0.000000 
-0.000129 -0.000128 0.000000 
0.000190 0.000191 0.000000 
0.003018 0.002998 0.000000 
-0.003029 -0.003031 0.000000 
-0.000769 -0.000767 0.000000 
0.000662 0.000665 0.000000 
0.000000 0.000000 0.000000 
0.000000 0.000000 0.000000 
-0.000022 -0.000022 0.000000 
0.000018 0.000018 0.000000 
0.000000 0.000000 0.000000 
0.000000 0.000000 0.000000 
0.000000 0.000000 0.000000 
0.000000 0.000000 0.000000 
0.000000 0.000000 0.000000 
0.000000 0.000000 0.000000 
0.000000 0.000000 0.000000 
0.000000 0.000000 0.000000 
0.000000 0.000000 0.000000 
0.000000 0.000000 0.000000 
0.000000 0.000000 0.000000 
0.000000 0.000000 0.000000 
0.000000 0.000000 0.000000 
0.000000 0.000000 0.000000 
0.000000 0.000000 0.000000 
0.000000 0.000000 0.000000 
0.000000 0.000000 0.000000 
0.000000 0.000000 0.000000 
0.000000 0.000000 0.000000 
CELL_DATA 100 
