# vtk DataFile Version 3.0 
vtk output 
ASCII 
DATASET UNSTRUCTURED_GRID 
POINTS 121 float 
1.000000 0.000000 0.000000 
1.000000 0.100000 0.000000 
0.900000 0.000000 0.000000 
0.900000 0.100000 0.000000 
1.000000 0.200000 0.000000 
0.800000 0.000000 0.000000 
0.900000 0.200000 0.000000 
0.800000 0.100000 0.000000 
0.800000 0.200000 0.000000 
1.000000 0.300000 0.000000 
0.700000 0.000000 0.000000 
0.900000 0.300000 0.000000 
0.700000 0.100000 0.000000 
0.700000 0.200000 0.000000 
0.800000 0.300000 0.000000 
1.000000 0.400000 0.000000 
0.600000 0.000000 0.000000 
0.900000 0.400000 0.000000 
0.600000 0.100000 0.000000 
0.700000 0.300000 0.000000 
0.600000 0.200000 0.000000 
0.800000 0.400000 0.000000 
0.700000 0.400000 0.000000 
1.000000 0.500000 0.000000 
0.500000 0.000000 0.000000 
0.600000 0.300000 0.000000 
0.900000 0.500000 0.000000 
0.500000 0.100000 0.000000 
0.500000 0.200000 0.000000 
0.800000 0.500000 0.000000 
0.600000 0.400000 0.000000 
0.700000 0.500000 0.000000 
0.500000 0.300000 0.000000 
1.000000 0.600000 0.000000 
0.400000 0.000000 0.000000 
0.900000 0.600000 0.000000 
0.400000 0.100000 0.000000 
0.800000 0.600000 0.000000 
0.400000 0.200000 0.000000 
0.500000 0.400000 0.000000 
0.600000 0.500000 0.000000 
0.700000 0.600000 0.000000 
0.400000 0.300000 0.000000 
1.000000 0.700000 0.000000 
0.300000 0.000000 0.000000 
0.300000 0.100000 0.000000 
0.900000 0.700000 0.000000 
0.500000 0.500000 0.000000 
0.600000 0.600000 0.000000 
0.400000 0.400000 0.000000 
0.800000 0.700000 0.000000 
0.300000 0.200000 0.000000 
0.700000 0.700000 0.000000 
0.300000 0.300000 0.000000 
0.500000 0.600000 0.000000 
0.400000 0.500000 0.000000 
1.000000 0.800000 0.000000 
0.200000 0.000000 0.000000 
0.600000 0.700000 0.000000 
0.300000 0.400000 0.000000 
0.900000 0.800000 0.000000 
0.200000 0.100000 0.000000 
0.800000 0.800000 0.000000 
0.200000 0.200000 0.000000 
0.400000 0.600000 0.000000 
0.700000 0.800000 0.000000 
0.200000 0.300000 0.000000 
0.500000 0.700000 0.000000 
0.300000 0.500000 0.000000 
0.600000 0.800000 0.000000 
0.200000 0.400000 0.000000 
1.000000 0.900000 0.000000 
0.100000 0.000000 0.000000 
0.100000 0.100000 0.000000 
0.900000 0.900000 0.000000 
0.100000 0.200000 0.000000 
0.300000 0.600000 0.000000 
0.800000 0.900000 0.000000 
0.400000 0.700000 0.000000 
0.500000 0.800000 0.000000 
0.200000 0.500000 0.000000 
0.700000 0.900000 0.000000 
0.100000 0.300000 0.000000 
0.100000 0.400000 0.000000 
0.600000 0.900000 0.000000 
0.300000 0.700000 0.000000 
0.000000 0.000000 0.000000 
1.000000 1.000000 0.000000 
0.400000 0.800000 0.000000 
0.200000 0.600000 0.000000 
0.900000 1.000000 0.000000 
0.000000 0.100000 0.000000 
0.800000 1.000000 0.000000 
0.000000 0.200000 0.000000 
0.100000 0.500000 0.000000 
0.500000 0.900000 0.000000 
0.700000 1.000000 0.000000 
0.000000 0.300000 0.000000 
0.300000 0.800000 0.000000 
0.200000 0.700000 0.000000 
0.600000 1.000000 0.000000 
0.000000 0.400000 0.000000 
0.400000 0.900000 0.000000 
0.100000 0.600000 0.000000 
0.500000 1.000000 0.000000 
0.000000 0.500000 0.000000 
0.200000 0.800000 0.000000 
0.100000 0.700000 0.000000 
0.300000 0.900000 0.000000 
0.400000 1.000000 0.000000 
0.000000 0.600000 0.000000 
0.100000 0.800000 0.000000 
0.200000 0.900000 0.000000 
0.300000 1.000000 0.000000 
0.000000 0.700000 0.000000 
0.100000 0.900000 0.000000 
0.200000 1.000000 0.000000 
0.000000 0.800000 0.000000 
0.100000 1.000000 0.000000 
0.000000 0.900000 0.000000 
0.000000 1.000000 0.000000 
CELLS 100 500 
4 90  74  71  87 
4 92  77  74  90 
4 96  81  77  92 
4 100  84  81  96 
4 104  95  84  100 
4 109  102  95  104 
4 113  108  102  109 
4 116  112  108  113 
4 118  115  112  116 
4 120  119  115  118 
4 74  60  56  71 
4 77  62  60  74 
4 81  65  62  77 
4 84  69  65  81 
4 95  79  69  84 
4 102  88  79  95 
4 108  98  88  102 
4 112  106  98  108 
4 115  111  106  112 
4 119  117  111  115 
4 60  46  43  56 
4 62  50  46  60 
4 65  52  50  62 
4 69  58  52  65 
4 79  67  58  69 
4 88  78  67  79 
4 98  85  78  88 
4 106  99  85  98 
4 111  107  99  106 
4 117  114  107  111 
4 46  35  33  43 
4 50  37  35  46 
4 52  41  37  50 
4 58  48  41  52 
4 67  54  48  58 
4 78  64  54  67 
4 85  76  64  78 
4 99  89  76  85 
4 107  103  89  99 
4 114  110  103  107 
4 35  26  23  33 
4 37  29  26  35 
4 41  31  29  37 
4 48  40  31  41 
4 54  47  40  48 
4 64  55  47  54 
4 76  68  55  64 
4 89  80  68  76 
4 103  94  80  89 
4 110  105  94  103 
4 26  17  15  23 
4 29  21  17  26 
4 31  22  21  29 
4 40  30  22  31 
4 47  39  30  40 
4 55  49  39  47 
4 68  59  49  55 
4 80  70  59  68 
4 94  83  70  80 
4 105  101  83  94 
4 17  11  9  15 
4 21  14  11  17 
4 22  19  14  21 
4 30  25  19  22 
4 39  32  25  30 
4 49  42  32  39 
4 59  53  42  49 
4 70  66  53  59 
4 83  82  66  70 
4 101  97  82  83 
4 11  6  4  9 
4 14  8  6  11 
4 19  13  8  14 
4 25  20  13  19 
4 32  28  20  25 
4 42  38  28  32 
4 53  51  38  42 
4 66  63  51  53 
4 82  75  63  66 
4 97  93  75  82 
4 6  3  1  4 
4 8  7  3  6 
4 13  12  7  8 
4 20  18  12  13 
4 28  27  18  20 
4 38  36  27  28 
4 51  45  36  38 
4 63  61  45  51 
4 75  73  61  63 
4 93  91  73  75 
4 3  2  0  1 
4 7  5  2  3 
4 12  10  5  7 
4 18  16  10  12 
4 27  24  16  18 
4 36  34  24  27 
4 45  44  34  36 
4 61  57  44  45 
4 73  72  57  61 
4 91  86  72  73 
CELL_TYPES 100 
9 
9 
9 
9 
9 
9 
9 
9 
9 
9 
9 
9 
9 
9 
9 
9 
9 
9 
9 
9 
9 
9 
9 
9 
9 
9 
9 
9 
9 
9 
9 
9 
9 
9 
9 
9 
9 
9 
9 
9 
9 
9 
9 
9 
9 
9 
9 
9 
9 
9 
9 
9 
9 
9 
9 
9 
9 
9 
9 
9 
9 
9 
9 
9 
9 
9 
9 
9 
9 
9 
9 
9 
9 
9 
9 
9 
9 
9 
9 
9 
9 
9 
9 
9 
9 
9 
9 
9 
9 
9 
9 
9 
9 
9 
9 
9 
9 
9 
9 
9 
POINT_DATA 121 
VECTORS X_GC float 
1.000000 0.000000 0.000000 
1.000000 0.100000 0.000000 
0.900000 0.000000 0.000000 
0.900000 0.100000 0.000000 
1.000000 0.200000 0.000000 
0.800000 0.000000 0.000000 
0.900000 0.200000 0.000000 
0.800000 0.100000 0.000000 
0.800000 0.200000 0.000000 
1.000000 0.300000 0.000000 
0.700000 0.000000 0.000000 
0.900000 0.300000 0.000000 
0.700000 0.100000 0.000000 
0.700000 0.200000 0.000000 
0.800000 0.300000 0.000000 
1.000000 0.400000 0.000000 
0.600000 0.000000 0.000000 
0.900000 0.400000 0.000000 
0.600000 0.100000 0.000000 
0.700000 0.300000 0.000000 
0.600000 0.200000 0.000000 
0.800000 0.400000 0.000000 
0.700000 0.400000 0.000000 
1.000000 0.500000 0.000000 
0.500000 0.000000 0.000000 
0.600000 0.300000 0.000000 
0.900000 0.500000 0.000000 
0.500000 0.100000 0.000000 
0.500000 0.200000 0.000000 
0.800000 0.500000 0.000000 
0.600000 0.400000 0.000000 
0.700000 0.500000 0.000000 
0.500000 0.300000 0.000000 
1.000000 0.600000 0.000000 
0.400000 0.000000 0.000000 
0.900000 0.600000 0.000000 
0.400000 0.100000 0.000000 
0.800000 0.600000 0.000000 
0.400000 0.200000 0.000000 
0.500000 0.400000 0.000000 
0.600000 0.500000 0.000000 
0.700000 0.600000 0.000000 
0.400000 0.300000 0.000000 
1.000000 0.700000 0.000000 
0.300000 0.000000 0.000000 
0.300000 0.100000 0.000000 
0.900000 0.700000 0.000000 
0.500000 0.500000 0.000000 
0.600000 0.600000 0.000000 
0.400000 0.400000 0.000000 
0.800000 0.700000 0.000000 
0.300000 0.200000 0.000000 
0.700000 0.700000 0.000000 
0.300000 0.300000 0.000000 
0.500000 0.600000 0.000000 
0.400000 0.500000 0.000000 
1.000000 0.800000 0.000000 
0.200000 0.000000 0.000000 
0.600000 0.700000 0.000000 
0.300000 0.400000 0.000000 
0.900000 0.800000 0.000000 
0.200000 0.100000 0.000000 
0.800000 0.800000 0.000000 
0.200000 0.200000 0.000000 
0.400000 0.600000 0.000000 
0.700000 0.800000 0.000000 
0.200000 0.300000 0.000000 
0.500000 0.700000 0.000000 
0.300000 0.500000 0.000000 
0.600000 0.800000 0.000000 
0.200000 0.400000 0.000000 
1.000000 0.900000 0.000000 
0.100000 0.000000 0.000000 
0.100000 0.100000 0.000000 
0.900000 0.900000 0.000000 
0.100000 0.200000 0.000000 
0.300000 0.600000 0.000000 
0.800000 0.900000 0.000000 
0.400000 0.700000 0.000000 
0.500000 0.800000 0.000000 
0.200000 0.500000 0.000000 
0.700000 0.900000 0.000000 
0.100000 0.300000 0.000000 
0.100000 0.400000 0.000000 
0.600000 0.900000 0.000000 
0.300000 0.700000 0.000000 
0.000000 0.000000 0.000000 
1.000000 1.000000 0.000000 
0.400000 0.800000 0.000000 
0.200000 0.600000 0.000000 
0.900000 1.000000 0.000000 
0.000000 0.100000 0.000000 
0.800000 1.000000 0.000000 
0.000000 0.200000 0.000000 
0.100000 0.500000 0.000000 
0.500000 0.900000 0.000000 
0.700000 1.000000 0.000000 
0.000000 0.300000 0.000000 
0.300000 0.800000 0.000000 
0.200000 0.700000 0.000000 
0.600000 1.000000 0.000000 
0.000000 0.400000 0.000000 
0.400000 0.900000 0.000000 
0.100000 0.600000 0.000000 
0.500000 1.000000 0.000000 
0.000000 0.500000 0.000000 
0.200000 0.800000 0.000000 
0.100000 0.700000 0.000000 
0.300000 0.900000 0.000000 
0.400000 1.000000 0.000000 
0.000000 0.600000 0.000000 
0.100000 0.800000 0.000000 
0.200000 0.900000 0.000000 
0.300000 1.000000 0.000000 
0.000000 0.700000 0.000000 
0.100000 0.900000 0.000000 
0.200000 1.000000 0.000000 
0.000000 0.800000 0.000000 
0.100000 1.000000 0.000000 
0.000000 0.900000 0.000000 
0.000000 1.000000 0.000000 
SCALARS Active_Nod_Active int 
LOOKUP_TABLE default 
0
0
0
0
0
0
0
0
0
0
0
0
0
0
0
0
0
0
0
0
0
0
0
0
0
0
8
6
25
26
0
32
34
3
4
35
35
73
71
16
15
76
80
9
10
56
56
2
51
54
95
91
87
93
16
14
6
6
73
82
52
50
96
86
0
92
92
34
34
69
78
0
0
23
23
47
0
54
0
27
28
59
54
37
36
0
0
0
0
0
0
0
6
6
7
8
10
9
0
0
4
3
0
0
0
0
0
0
0
0
0
0
0
0
0
0
0
0
0
0
0
VECTORS MOMENTUM float 
0.000000 0.000000 0.000000 
0.000000 0.000000 0.000000 
0.000000 0.000000 0.000000 
0.000000 0.000000 0.000000 
0.000000 0.000000 0.000000 
0.000000 0.000000 0.000000 
0.000000 0.000000 0.000000 
0.000000 0.000000 0.000000 
0.000000 0.000000 0.000000 
0.000000 0.000000 0.000000 
0.000000 0.000000 0.000000 
0.000000 0.000000 0.000000 
0.000000 0.000000 0.000000 
0.000000 0.000000 0.000000 
0.000000 0.000000 0.000000 
0.000000 0.000000 0.000000 
0.000000 0.000000 0.000000 
0.000000 0.000000 0.000000 
0.000000 0.000000 0.000000 
0.000000 0.000000 0.000000 
0.000000 0.000000 0.000000 
0.000000 0.000000 0.000000 
0.000000 0.000000 0.000000 
0.000000 0.000000 0.000000 
0.000000 0.000000 0.000000 
0.000000 0.000000 0.000000 
0.002578 0.002484 0.000000 
-0.002669 -0.002668 0.000000 
-0.030989 -0.031087 0.000000 
0.030283 0.029552 0.000000 
0.000000 0.000000 0.000000 
0.042776 0.043530 0.000000 
-0.044633 -0.044891 0.000000 
0.000262 0.000259 0.000000 
-0.000303 -0.000333 0.000000 
0.062052 0.063617 0.000000 
-0.063021 -0.062973 0.000000 
0.170625 0.170542 0.000000 
-0.172171 -0.171424 0.000000 
-0.012327 -0.012799 0.000000 
0.012717 0.012380 0.000000 
0.189302 0.189151 0.000000 
-0.189172 -0.191275 0.000000 
0.004457 0.004219 0.000000 
-0.004013 -0.004582 0.000000 
-0.129516 -0.134038 0.000000 
0.134079 0.132457 0.000000 
-0.000003 0.000001 0.000000 
0.128441 0.131195 0.000000 
-0.131848 -0.132369 0.000000 
0.197676 0.203299 0.000000 
-0.201776 -0.200984 0.000000 
0.204158 0.206250 0.000000 
-0.205480 -0.206745 0.000000 
0.012128 0.013437 0.000000 
-0.012274 -0.012384 0.000000 
0.002048 0.001968 0.000000 
-0.002000 -0.002126 0.000000 
0.189730 0.193253 0.000000 
-0.187765 -0.188736 0.000000 
0.114882 0.113997 0.000000 
-0.116720 -0.114281 0.000000 
0.200230 0.200729 0.000000 
-0.200279 -0.202634 0.000000 
0.000000 0.000000 0.000000 
0.201681 0.199986 0.000000 
-0.198146 -0.204028 0.000000 
0.044177 0.045490 0.000000 
-0.041865 -0.043091 0.000000 
0.171458 0.171437 0.000000 
-0.170351 -0.171041 0.000000 
0.000000 0.000000 0.000000 
0.000000 0.000000 0.000000 
-0.025101 -0.024674 0.000000 
0.025417 0.025026 0.000000 
-0.115435 -0.113996 0.000000 
0.000000 0.000000 0.000000 
0.117927 0.113144 0.000000 
0.000000 0.000000 0.000000 
0.030426 0.031164 0.000000 
-0.030027 -0.029866 0.000000 
0.130882 0.133975 0.000000 
-0.131234 -0.130611 0.000000 
-0.062831 -0.063087 0.000000 
0.061607 0.063322 0.000000 
0.000000 0.000000 0.000000 
0.000000 0.000000 0.000000 
0.000000 0.000000 0.000000 
0.000000 0.000000 0.000000 
0.000000 0.000000 0.000000 
0.000000 0.000000 0.000000 
0.000000 0.000000 0.000000 
0.002034 0.002070 0.000000 
-0.002129 -0.002007 0.000000 
-0.002512 -0.002465 0.000000 
0.002611 0.002766 0.000000 
0.004022 0.004353 0.000000 
-0.004137 -0.003957 0.000000 
0.000000 0.000000 0.000000 
0.000000 0.000000 0.000000 
0.000306 0.000327 0.000000 
-0.000244 -0.000229 0.000000 
0.000000 0.000000 0.000000 
0.000000 0.000000 0.000000 
0.000000 0.000000 0.000000 
0.000000 0.000000 0.000000 
0.000000 0.000000 0.000000 
0.000000 0.000000 0.000000 
0.000000 0.000000 0.000000 
0.000000 0.000000 0.000000 
0.000000 0.000000 0.000000 
0.000000 0.000000 0.000000 
0.000000 0.000000 0.000000 
0.000000 0.000000 0.000000 
0.000000 0.000000 0.000000 
0.000000 0.000000 0.000000 
0.000000 0.000000 0.000000 
0.000000 0.000000 0.000000 
0.000000 0.000000 0.000000 
0.000000 0.000000 0.000000 
0.000000 0.000000 0.000000 
CELL_DATA 100 
