# vtk DataFile Version 3.0 
vtk output 
ASCII 
DATASET UNSTRUCTURED_GRID 
POINTS 121 float 
1.000000 0.000000 0.000000 
1.000000 0.100000 0.000000 
0.900000 0.000000 0.000000 
0.900000 0.100000 0.000000 
1.000000 0.200000 0.000000 
0.800000 0.000000 0.000000 
0.900000 0.200000 0.000000 
0.800000 0.100000 0.000000 
0.800000 0.200000 0.000000 
1.000000 0.300000 0.000000 
0.700000 0.000000 0.000000 
0.900000 0.300000 0.000000 
0.700000 0.100000 0.000000 
0.700000 0.200000 0.000000 
0.800000 0.300000 0.000000 
1.000000 0.400000 0.000000 
0.600000 0.000000 0.000000 
0.900000 0.400000 0.000000 
0.600000 0.100000 0.000000 
0.700000 0.300000 0.000000 
0.600000 0.200000 0.000000 
0.800000 0.400000 0.000000 
0.700000 0.400000 0.000000 
1.000000 0.500000 0.000000 
0.500000 0.000000 0.000000 
0.600000 0.300000 0.000000 
0.900000 0.500000 0.000000 
0.500000 0.100000 0.000000 
0.500000 0.200000 0.000000 
0.800000 0.500000 0.000000 
0.600000 0.400000 0.000000 
0.700000 0.500000 0.000000 
0.500000 0.300000 0.000000 
1.000000 0.600000 0.000000 
0.400000 0.000000 0.000000 
0.900000 0.600000 0.000000 
0.400000 0.100000 0.000000 
0.800000 0.600000 0.000000 
0.400000 0.200000 0.000000 
0.500000 0.400000 0.000000 
0.600000 0.500000 0.000000 
0.700000 0.600000 0.000000 
0.400000 0.300000 0.000000 
1.000000 0.700000 0.000000 
0.300000 0.000000 0.000000 
0.300000 0.100000 0.000000 
0.900000 0.700000 0.000000 
0.500000 0.500000 0.000000 
0.600000 0.600000 0.000000 
0.400000 0.400000 0.000000 
0.800000 0.700000 0.000000 
0.300000 0.200000 0.000000 
0.700000 0.700000 0.000000 
0.300000 0.300000 0.000000 
0.500000 0.600000 0.000000 
0.400000 0.500000 0.000000 
1.000000 0.800000 0.000000 
0.200000 0.000000 0.000000 
0.600000 0.700000 0.000000 
0.300000 0.400000 0.000000 
0.900000 0.800000 0.000000 
0.200000 0.100000 0.000000 
0.800000 0.800000 0.000000 
0.200000 0.200000 0.000000 
0.400000 0.600000 0.000000 
0.700000 0.800000 0.000000 
0.200000 0.300000 0.000000 
0.500000 0.700000 0.000000 
0.300000 0.500000 0.000000 
0.600000 0.800000 0.000000 
0.200000 0.400000 0.000000 
1.000000 0.900000 0.000000 
0.100000 0.000000 0.000000 
0.100000 0.100000 0.000000 
0.900000 0.900000 0.000000 
0.100000 0.200000 0.000000 
0.300000 0.600000 0.000000 
0.800000 0.900000 0.000000 
0.400000 0.700000 0.000000 
0.500000 0.800000 0.000000 
0.200000 0.500000 0.000000 
0.700000 0.900000 0.000000 
0.100000 0.300000 0.000000 
0.100000 0.400000 0.000000 
0.600000 0.900000 0.000000 
0.300000 0.700000 0.000000 
0.000000 0.000000 0.000000 
1.000000 1.000000 0.000000 
0.400000 0.800000 0.000000 
0.200000 0.600000 0.000000 
0.900000 1.000000 0.000000 
0.000000 0.100000 0.000000 
0.800000 1.000000 0.000000 
0.000000 0.200000 0.000000 
0.100000 0.500000 0.000000 
0.500000 0.900000 0.000000 
0.700000 1.000000 0.000000 
0.000000 0.300000 0.000000 
0.300000 0.800000 0.000000 
0.200000 0.700000 0.000000 
0.600000 1.000000 0.000000 
0.000000 0.400000 0.000000 
0.400000 0.900000 0.000000 
0.100000 0.600000 0.000000 
0.500000 1.000000 0.000000 
0.000000 0.500000 0.000000 
0.200000 0.800000 0.000000 
0.100000 0.700000 0.000000 
0.300000 0.900000 0.000000 
0.400000 1.000000 0.000000 
0.000000 0.600000 0.000000 
0.100000 0.800000 0.000000 
0.200000 0.900000 0.000000 
0.300000 1.000000 0.000000 
0.000000 0.700000 0.000000 
0.100000 0.900000 0.000000 
0.200000 1.000000 0.000000 
0.000000 0.800000 0.000000 
0.100000 1.000000 0.000000 
0.000000 0.900000 0.000000 
0.000000 1.000000 0.000000 
CELLS 100 500 
4 90  74  71  87 
4 92  77  74  90 
4 96  81  77  92 
4 100  84  81  96 
4 104  95  84  100 
4 109  102  95  104 
4 113  108  102  109 
4 116  112  108  113 
4 118  115  112  116 
4 120  119  115  118 
4 74  60  56  71 
4 77  62  60  74 
4 81  65  62  77 
4 84  69  65  81 
4 95  79  69  84 
4 102  88  79  95 
4 108  98  88  102 
4 112  106  98  108 
4 115  111  106  112 
4 119  117  111  115 
4 60  46  43  56 
4 62  50  46  60 
4 65  52  50  62 
4 69  58  52  65 
4 79  67  58  69 
4 88  78  67  79 
4 98  85  78  88 
4 106  99  85  98 
4 111  107  99  106 
4 117  114  107  111 
4 46  35  33  43 
4 50  37  35  46 
4 52  41  37  50 
4 58  48  41  52 
4 67  54  48  58 
4 78  64  54  67 
4 85  76  64  78 
4 99  89  76  85 
4 107  103  89  99 
4 114  110  103  107 
4 35  26  23  33 
4 37  29  26  35 
4 41  31  29  37 
4 48  40  31  41 
4 54  47  40  48 
4 64  55  47  54 
4 76  68  55  64 
4 89  80  68  76 
4 103  94  80  89 
4 110  105  94  103 
4 26  17  15  23 
4 29  21  17  26 
4 31  22  21  29 
4 40  30  22  31 
4 47  39  30  40 
4 55  49  39  47 
4 68  59  49  55 
4 80  70  59  68 
4 94  83  70  80 
4 105  101  83  94 
4 17  11  9  15 
4 21  14  11  17 
4 22  19  14  21 
4 30  25  19  22 
4 39  32  25  30 
4 49  42  32  39 
4 59  53  42  49 
4 70  66  53  59 
4 83  82  66  70 
4 101  97  82  83 
4 11  6  4  9 
4 14  8  6  11 
4 19  13  8  14 
4 25  20  13  19 
4 32  28  20  25 
4 42  38  28  32 
4 53  51  38  42 
4 66  63  51  53 
4 82  75  63  66 
4 97  93  75  82 
4 6  3  1  4 
4 8  7  3  6 
4 13  12  7  8 
4 20  18  12  13 
4 28  27  18  20 
4 38  36  27  28 
4 51  45  36  38 
4 63  61  45  51 
4 75  73  61  63 
4 93  91  73  75 
4 3  2  0  1 
4 7  5  2  3 
4 12  10  5  7 
4 18  16  10  12 
4 27  24  16  18 
4 36  34  24  27 
4 45  44  34  36 
4 61  57  44  45 
4 73  72  57  61 
4 91  86  72  73 
CELL_TYPES 100 
9 
9 
9 
9 
9 
9 
9 
9 
9 
9 
9 
9 
9 
9 
9 
9 
9 
9 
9 
9 
9 
9 
9 
9 
9 
9 
9 
9 
9 
9 
9 
9 
9 
9 
9 
9 
9 
9 
9 
9 
9 
9 
9 
9 
9 
9 
9 
9 
9 
9 
9 
9 
9 
9 
9 
9 
9 
9 
9 
9 
9 
9 
9 
9 
9 
9 
9 
9 
9 
9 
9 
9 
9 
9 
9 
9 
9 
9 
9 
9 
9 
9 
9 
9 
9 
9 
9 
9 
9 
9 
9 
9 
9 
9 
9 
9 
9 
9 
9 
9 
POINT_DATA 121 
VECTORS X_GC float 
1.000000 0.000000 0.000000 
1.000000 0.100000 0.000000 
0.900000 0.000000 0.000000 
0.900000 0.100000 0.000000 
1.000000 0.200000 0.000000 
0.800000 0.000000 0.000000 
0.900000 0.200000 0.000000 
0.800000 0.100000 0.000000 
0.800000 0.200000 0.000000 
1.000000 0.300000 0.000000 
0.700000 0.000000 0.000000 
0.900000 0.300000 0.000000 
0.700000 0.100000 0.000000 
0.700000 0.200000 0.000000 
0.800000 0.300000 0.000000 
1.000000 0.400000 0.000000 
0.600000 0.000000 0.000000 
0.900000 0.400000 0.000000 
0.600000 0.100000 0.000000 
0.700000 0.300000 0.000000 
0.600000 0.200000 0.000000 
0.800000 0.400000 0.000000 
0.700000 0.400000 0.000000 
1.000000 0.500000 0.000000 
0.500000 0.000000 0.000000 
0.600000 0.300000 0.000000 
0.900000 0.500000 0.000000 
0.500000 0.100000 0.000000 
0.500000 0.200000 0.000000 
0.800000 0.500000 0.000000 
0.600000 0.400000 0.000000 
0.700000 0.500000 0.000000 
0.500000 0.300000 0.000000 
1.000000 0.600000 0.000000 
0.400000 0.000000 0.000000 
0.900000 0.600000 0.000000 
0.400000 0.100000 0.000000 
0.800000 0.600000 0.000000 
0.400000 0.200000 0.000000 
0.500000 0.400000 0.000000 
0.600000 0.500000 0.000000 
0.700000 0.600000 0.000000 
0.400000 0.300000 0.000000 
1.000000 0.700000 0.000000 
0.300000 0.000000 0.000000 
0.300000 0.100000 0.000000 
0.900000 0.700000 0.000000 
0.500000 0.500000 0.000000 
0.600000 0.600000 0.000000 
0.400000 0.400000 0.000000 
0.800000 0.700000 0.000000 
0.300000 0.200000 0.000000 
0.700000 0.700000 0.000000 
0.300000 0.300000 0.000000 
0.500000 0.600000 0.000000 
0.400000 0.500000 0.000000 
1.000000 0.800000 0.000000 
0.200000 0.000000 0.000000 
0.600000 0.700000 0.000000 
0.300000 0.400000 0.000000 
0.900000 0.800000 0.000000 
0.200000 0.100000 0.000000 
0.800000 0.800000 0.000000 
0.200000 0.200000 0.000000 
0.400000 0.600000 0.000000 
0.700000 0.800000 0.000000 
0.200000 0.300000 0.000000 
0.500000 0.700000 0.000000 
0.300000 0.500000 0.000000 
0.600000 0.800000 0.000000 
0.200000 0.400000 0.000000 
1.000000 0.900000 0.000000 
0.100000 0.000000 0.000000 
0.100000 0.100000 0.000000 
0.900000 0.900000 0.000000 
0.100000 0.200000 0.000000 
0.300000 0.600000 0.000000 
0.800000 0.900000 0.000000 
0.400000 0.700000 0.000000 
0.500000 0.800000 0.000000 
0.200000 0.500000 0.000000 
0.700000 0.900000 0.000000 
0.100000 0.300000 0.000000 
0.100000 0.400000 0.000000 
0.600000 0.900000 0.000000 
0.300000 0.700000 0.000000 
0.000000 0.000000 0.000000 
1.000000 1.000000 0.000000 
0.400000 0.800000 0.000000 
0.200000 0.600000 0.000000 
0.900000 1.000000 0.000000 
0.000000 0.100000 0.000000 
0.800000 1.000000 0.000000 
0.000000 0.200000 0.000000 
0.100000 0.500000 0.000000 
0.500000 0.900000 0.000000 
0.700000 1.000000 0.000000 
0.000000 0.300000 0.000000 
0.300000 0.800000 0.000000 
0.200000 0.700000 0.000000 
0.600000 1.000000 0.000000 
0.000000 0.400000 0.000000 
0.400000 0.900000 0.000000 
0.100000 0.600000 0.000000 
0.500000 1.000000 0.000000 
0.000000 0.500000 0.000000 
0.200000 0.800000 0.000000 
0.100000 0.700000 0.000000 
0.300000 0.900000 0.000000 
0.400000 1.000000 0.000000 
0.000000 0.600000 0.000000 
0.100000 0.800000 0.000000 
0.200000 0.900000 0.000000 
0.300000 1.000000 0.000000 
0.000000 0.700000 0.000000 
0.100000 0.900000 0.000000 
0.200000 1.000000 0.000000 
0.000000 0.800000 0.000000 
0.100000 1.000000 0.000000 
0.000000 0.900000 0.000000 
0.000000 1.000000 0.000000 
SCALARS Active_Nod_Active int 
LOOKUP_TABLE default 
0
0
0
0
0
0
0
0
0
0
0
0
0
0
0
0
0
0
0
0
0
0
0
0
0
0
9
6
25
25
0
29
33
4
3
36
35
69
74
14
13
70
78
11
10
59
60
0
47
49
96
93
88
90
14
13
8
8
73
78
56
53
100
88
0
97
91
32
32
69
73
1
1
24
24
53
0
56
0
24
25
60
58
34
33
0
0
0
0
0
1
1
8
9
6
6
10
12
0
0
3
4
0
0
0
0
0
0
0
0
0
0
0
0
0
0
0
0
0
0
0
VECTORS MOMENTUM float 
0.000000 0.000000 0.000000 
0.000000 0.000000 0.000000 
0.000000 0.000000 0.000000 
0.000000 0.000000 0.000000 
0.000000 0.000000 0.000000 
0.000000 0.000000 0.000000 
0.000000 0.000000 0.000000 
0.000000 0.000000 0.000000 
0.000000 0.000000 0.000000 
0.000000 0.000000 0.000000 
0.000000 0.000000 0.000000 
0.000000 0.000000 0.000000 
0.000000 0.000000 0.000000 
0.000000 0.000000 0.000000 
0.000000 0.000000 0.000000 
0.000000 0.000000 0.000000 
0.000000 0.000000 0.000000 
0.000000 0.000000 0.000000 
0.000000 0.000000 0.000000 
0.000000 0.000000 0.000000 
0.000000 0.000000 0.000000 
0.000000 0.000000 0.000000 
0.000000 0.000000 0.000000 
0.000000 0.000000 0.000000 
0.000000 0.000000 0.000000 
0.000000 0.000000 0.000000 
0.002512 0.002428 0.000000 
-0.002674 -0.002653 0.000000 
-0.028556 -0.030054 0.000000 
0.028824 0.028833 0.000000 
0.000000 0.000000 0.000000 
0.037554 0.036203 0.000000 
-0.036545 -0.039098 0.000000 
0.000550 0.000539 0.000000 
-0.000533 -0.000536 0.000000 
0.066364 0.066028 0.000000 
-0.066650 -0.069561 0.000000 
0.174562 0.174797 0.000000 
-0.173660 -0.180038 0.000000 
-0.008836 -0.008374 0.000000 
0.008345 0.008611 0.000000 
0.183702 0.183309 0.000000 
-0.180945 -0.188014 0.000000 
0.006676 0.006729 0.000000 
-0.006928 -0.006550 0.000000 
-0.145922 -0.144901 0.000000 
0.142500 0.144096 0.000000 
0.000000 0.000000 0.000000 
0.113868 0.114353 0.000000 
-0.112083 -0.113624 0.000000 
0.196609 0.196586 0.000000 
-0.192511 -0.195733 0.000000 
0.192624 0.195754 0.000000 
-0.192161 -0.195365 0.000000 
0.008829 0.008142 0.000000 
-0.008087 -0.008601 0.000000 
0.003894 0.003895 0.000000 
-0.004142 -0.003959 0.000000 
0.182220 0.186368 0.000000 
-0.182924 -0.181645 0.000000 
0.126062 0.126307 0.000000 
-0.128171 -0.125869 0.000000 
0.196210 0.193625 0.000000 
-0.196637 -0.191844 0.000000 
0.000000 0.000000 0.000000 
0.192643 0.197172 0.000000 
-0.197726 -0.195483 0.000000 
0.036343 0.037191 0.000000 
-0.038192 -0.036540 0.000000 
0.172969 0.178344 0.000000 
-0.176581 -0.175503 0.000000 
0.000042 0.000042 0.000000 
-0.000003 -0.000004 0.000000 
-0.031905 -0.030951 0.000000 
0.031688 0.030924 0.000000 
-0.124747 -0.126006 0.000000 
0.000000 0.000000 0.000000 
0.127836 0.127016 0.000000 
0.000000 0.000000 0.000000 
0.028423 0.029315 0.000000 
-0.028834 -0.028215 0.000000 
0.146770 0.145208 0.000000 
-0.144000 -0.144972 0.000000 
-0.067320 -0.067367 0.000000 
0.068130 0.069612 0.000000 
0.000000 0.000000 0.000000 
0.000000 0.000000 0.000000 
0.000000 0.000000 0.000000 
0.000000 0.000000 0.000000 
0.000000 0.000000 0.000000 
0.000012 0.000012 0.000000 
-0.000039 -0.000042 0.000000 
0.004197 0.004110 0.000000 
-0.004111 -0.004180 0.000000 
-0.002390 -0.002329 0.000000 
0.002635 0.002662 0.000000 
0.007106 0.006833 0.000000 
-0.006903 -0.007036 0.000000 
0.000000 0.000000 0.000000 
0.000000 0.000000 0.000000 
0.000552 0.000554 0.000000 
-0.000533 -0.000551 0.000000 
0.000000 0.000000 0.000000 
0.000000 0.000000 0.000000 
0.000000 0.000000 0.000000 
0.000000 0.000000 0.000000 
0.000000 0.000000 0.000000 
0.000000 0.000000 0.000000 
0.000000 0.000000 0.000000 
0.000000 0.000000 0.000000 
0.000000 0.000000 0.000000 
0.000000 0.000000 0.000000 
0.000000 0.000000 0.000000 
0.000000 0.000000 0.000000 
0.000000 0.000000 0.000000 
0.000000 0.000000 0.000000 
0.000000 0.000000 0.000000 
0.000000 0.000000 0.000000 
0.000000 0.000000 0.000000 
0.000000 0.000000 0.000000 
0.000000 0.000000 0.000000 
CELL_DATA 100 
