# vtk DataFile Version 3.0 
vtk output 
ASCII 
DATASET UNSTRUCTURED_GRID 
POINTS 121 float 
1.000000 0.000000 0.000000 
1.000000 0.100000 0.000000 
0.900000 0.000000 0.000000 
0.900000 0.100000 0.000000 
1.000000 0.200000 0.000000 
0.800000 0.000000 0.000000 
0.900000 0.200000 0.000000 
0.800000 0.100000 0.000000 
0.800000 0.200000 0.000000 
1.000000 0.300000 0.000000 
0.700000 0.000000 0.000000 
0.900000 0.300000 0.000000 
0.700000 0.100000 0.000000 
0.700000 0.200000 0.000000 
0.800000 0.300000 0.000000 
1.000000 0.400000 0.000000 
0.600000 0.000000 0.000000 
0.900000 0.400000 0.000000 
0.600000 0.100000 0.000000 
0.700000 0.300000 0.000000 
0.600000 0.200000 0.000000 
0.800000 0.400000 0.000000 
0.700000 0.400000 0.000000 
1.000000 0.500000 0.000000 
0.500000 0.000000 0.000000 
0.600000 0.300000 0.000000 
0.900000 0.500000 0.000000 
0.500000 0.100000 0.000000 
0.500000 0.200000 0.000000 
0.800000 0.500000 0.000000 
0.600000 0.400000 0.000000 
0.700000 0.500000 0.000000 
0.500000 0.300000 0.000000 
1.000000 0.600000 0.000000 
0.400000 0.000000 0.000000 
0.900000 0.600000 0.000000 
0.400000 0.100000 0.000000 
0.800000 0.600000 0.000000 
0.400000 0.200000 0.000000 
0.500000 0.400000 0.000000 
0.600000 0.500000 0.000000 
0.700000 0.600000 0.000000 
0.400000 0.300000 0.000000 
1.000000 0.700000 0.000000 
0.300000 0.000000 0.000000 
0.300000 0.100000 0.000000 
0.900000 0.700000 0.000000 
0.500000 0.500000 0.000000 
0.600000 0.600000 0.000000 
0.400000 0.400000 0.000000 
0.800000 0.700000 0.000000 
0.300000 0.200000 0.000000 
0.700000 0.700000 0.000000 
0.300000 0.300000 0.000000 
0.500000 0.600000 0.000000 
0.400000 0.500000 0.000000 
1.000000 0.800000 0.000000 
0.200000 0.000000 0.000000 
0.600000 0.700000 0.000000 
0.300000 0.400000 0.000000 
0.900000 0.800000 0.000000 
0.200000 0.100000 0.000000 
0.800000 0.800000 0.000000 
0.200000 0.200000 0.000000 
0.400000 0.600000 0.000000 
0.700000 0.800000 0.000000 
0.200000 0.300000 0.000000 
0.500000 0.700000 0.000000 
0.300000 0.500000 0.000000 
0.600000 0.800000 0.000000 
0.200000 0.400000 0.000000 
1.000000 0.900000 0.000000 
0.100000 0.000000 0.000000 
0.100000 0.100000 0.000000 
0.900000 0.900000 0.000000 
0.100000 0.200000 0.000000 
0.300000 0.600000 0.000000 
0.800000 0.900000 0.000000 
0.400000 0.700000 0.000000 
0.500000 0.800000 0.000000 
0.200000 0.500000 0.000000 
0.700000 0.900000 0.000000 
0.100000 0.300000 0.000000 
0.100000 0.400000 0.000000 
0.600000 0.900000 0.000000 
0.300000 0.700000 0.000000 
0.000000 0.000000 0.000000 
1.000000 1.000000 0.000000 
0.400000 0.800000 0.000000 
0.200000 0.600000 0.000000 
0.900000 1.000000 0.000000 
0.000000 0.100000 0.000000 
0.800000 1.000000 0.000000 
0.000000 0.200000 0.000000 
0.100000 0.500000 0.000000 
0.500000 0.900000 0.000000 
0.700000 1.000000 0.000000 
0.000000 0.300000 0.000000 
0.300000 0.800000 0.000000 
0.200000 0.700000 0.000000 
0.600000 1.000000 0.000000 
0.000000 0.400000 0.000000 
0.400000 0.900000 0.000000 
0.100000 0.600000 0.000000 
0.500000 1.000000 0.000000 
0.000000 0.500000 0.000000 
0.200000 0.800000 0.000000 
0.100000 0.700000 0.000000 
0.300000 0.900000 0.000000 
0.400000 1.000000 0.000000 
0.000000 0.600000 0.000000 
0.100000 0.800000 0.000000 
0.200000 0.900000 0.000000 
0.300000 1.000000 0.000000 
0.000000 0.700000 0.000000 
0.100000 0.900000 0.000000 
0.200000 1.000000 0.000000 
0.000000 0.800000 0.000000 
0.100000 1.000000 0.000000 
0.000000 0.900000 0.000000 
0.000000 1.000000 0.000000 
CELLS 100 500 
4 90  74  71  87 
4 92  77  74  90 
4 96  81  77  92 
4 100  84  81  96 
4 104  95  84  100 
4 109  102  95  104 
4 113  108  102  109 
4 116  112  108  113 
4 118  115  112  116 
4 120  119  115  118 
4 74  60  56  71 
4 77  62  60  74 
4 81  65  62  77 
4 84  69  65  81 
4 95  79  69  84 
4 102  88  79  95 
4 108  98  88  102 
4 112  106  98  108 
4 115  111  106  112 
4 119  117  111  115 
4 60  46  43  56 
4 62  50  46  60 
4 65  52  50  62 
4 69  58  52  65 
4 79  67  58  69 
4 88  78  67  79 
4 98  85  78  88 
4 106  99  85  98 
4 111  107  99  106 
4 117  114  107  111 
4 46  35  33  43 
4 50  37  35  46 
4 52  41  37  50 
4 58  48  41  52 
4 67  54  48  58 
4 78  64  54  67 
4 85  76  64  78 
4 99  89  76  85 
4 107  103  89  99 
4 114  110  103  107 
4 35  26  23  33 
4 37  29  26  35 
4 41  31  29  37 
4 48  40  31  41 
4 54  47  40  48 
4 64  55  47  54 
4 76  68  55  64 
4 89  80  68  76 
4 103  94  80  89 
4 110  105  94  103 
4 26  17  15  23 
4 29  21  17  26 
4 31  22  21  29 
4 40  30  22  31 
4 47  39  30  40 
4 55  49  39  47 
4 68  59  49  55 
4 80  70  59  68 
4 94  83  70  80 
4 105  101  83  94 
4 17  11  9  15 
4 21  14  11  17 
4 22  19  14  21 
4 30  25  19  22 
4 39  32  25  30 
4 49  42  32  39 
4 59  53  42  49 
4 70  66  53  59 
4 83  82  66  70 
4 101  97  82  83 
4 11  6  4  9 
4 14  8  6  11 
4 19  13  8  14 
4 25  20  13  19 
4 32  28  20  25 
4 42  38  28  32 
4 53  51  38  42 
4 66  63  51  53 
4 82  75  63  66 
4 97  93  75  82 
4 6  3  1  4 
4 8  7  3  6 
4 13  12  7  8 
4 20  18  12  13 
4 28  27  18  20 
4 38  36  27  28 
4 51  45  36  38 
4 63  61  45  51 
4 75  73  61  63 
4 93  91  73  75 
4 3  2  0  1 
4 7  5  2  3 
4 12  10  5  7 
4 18  16  10  12 
4 27  24  16  18 
4 36  34  24  27 
4 45  44  34  36 
4 61  57  44  45 
4 73  72  57  61 
4 91  86  72  73 
CELL_TYPES 100 
9 
9 
9 
9 
9 
9 
9 
9 
9 
9 
9 
9 
9 
9 
9 
9 
9 
9 
9 
9 
9 
9 
9 
9 
9 
9 
9 
9 
9 
9 
9 
9 
9 
9 
9 
9 
9 
9 
9 
9 
9 
9 
9 
9 
9 
9 
9 
9 
9 
9 
9 
9 
9 
9 
9 
9 
9 
9 
9 
9 
9 
9 
9 
9 
9 
9 
9 
9 
9 
9 
9 
9 
9 
9 
9 
9 
9 
9 
9 
9 
9 
9 
9 
9 
9 
9 
9 
9 
9 
9 
9 
9 
9 
9 
9 
9 
9 
9 
9 
9 
POINT_DATA 121 
VECTORS X_GC float 
1.000000 0.000000 0.000000 
1.000000 0.100000 0.000000 
0.900000 0.000000 0.000000 
0.900000 0.100000 0.000000 
1.000000 0.200000 0.000000 
0.800000 0.000000 0.000000 
0.900000 0.200000 0.000000 
0.800000 0.100000 0.000000 
0.800000 0.200000 0.000000 
1.000000 0.300000 0.000000 
0.700000 0.000000 0.000000 
0.900000 0.300000 0.000000 
0.700000 0.100000 0.000000 
0.700000 0.200000 0.000000 
0.800000 0.300000 0.000000 
1.000000 0.400000 0.000000 
0.600000 0.000000 0.000000 
0.900000 0.400000 0.000000 
0.600000 0.100000 0.000000 
0.700000 0.300000 0.000000 
0.600000 0.200000 0.000000 
0.800000 0.400000 0.000000 
0.700000 0.400000 0.000000 
1.000000 0.500000 0.000000 
0.500000 0.000000 0.000000 
0.600000 0.300000 0.000000 
0.900000 0.500000 0.000000 
0.500000 0.100000 0.000000 
0.500000 0.200000 0.000000 
0.800000 0.500000 0.000000 
0.600000 0.400000 0.000000 
0.700000 0.500000 0.000000 
0.500000 0.300000 0.000000 
1.000000 0.600000 0.000000 
0.400000 0.000000 0.000000 
0.900000 0.600000 0.000000 
0.400000 0.100000 0.000000 
0.800000 0.600000 0.000000 
0.400000 0.200000 0.000000 
0.500000 0.400000 0.000000 
0.600000 0.500000 0.000000 
0.700000 0.600000 0.000000 
0.400000 0.300000 0.000000 
1.000000 0.700000 0.000000 
0.300000 0.000000 0.000000 
0.300000 0.100000 0.000000 
0.900000 0.700000 0.000000 
0.500000 0.500000 0.000000 
0.600000 0.600000 0.000000 
0.400000 0.400000 0.000000 
0.800000 0.700000 0.000000 
0.300000 0.200000 0.000000 
0.700000 0.700000 0.000000 
0.300000 0.300000 0.000000 
0.500000 0.600000 0.000000 
0.400000 0.500000 0.000000 
1.000000 0.800000 0.000000 
0.200000 0.000000 0.000000 
0.600000 0.700000 0.000000 
0.300000 0.400000 0.000000 
0.900000 0.800000 0.000000 
0.200000 0.100000 0.000000 
0.800000 0.800000 0.000000 
0.200000 0.200000 0.000000 
0.400000 0.600000 0.000000 
0.700000 0.800000 0.000000 
0.200000 0.300000 0.000000 
0.500000 0.700000 0.000000 
0.300000 0.500000 0.000000 
0.600000 0.800000 0.000000 
0.200000 0.400000 0.000000 
1.000000 0.900000 0.000000 
0.100000 0.000000 0.000000 
0.100000 0.100000 0.000000 
0.900000 0.900000 0.000000 
0.100000 0.200000 0.000000 
0.300000 0.600000 0.000000 
0.800000 0.900000 0.000000 
0.400000 0.700000 0.000000 
0.500000 0.800000 0.000000 
0.200000 0.500000 0.000000 
0.700000 0.900000 0.000000 
0.100000 0.300000 0.000000 
0.100000 0.400000 0.000000 
0.600000 0.900000 0.000000 
0.300000 0.700000 0.000000 
0.000000 0.000000 0.000000 
1.000000 1.000000 0.000000 
0.400000 0.800000 0.000000 
0.200000 0.600000 0.000000 
0.900000 1.000000 0.000000 
0.000000 0.100000 0.000000 
0.800000 1.000000 0.000000 
0.000000 0.200000 0.000000 
0.100000 0.500000 0.000000 
0.500000 0.900000 0.000000 
0.700000 1.000000 0.000000 
0.000000 0.300000 0.000000 
0.300000 0.800000 0.000000 
0.200000 0.700000 0.000000 
0.600000 1.000000 0.000000 
0.000000 0.400000 0.000000 
0.400000 0.900000 0.000000 
0.100000 0.600000 0.000000 
0.500000 1.000000 0.000000 
0.000000 0.500000 0.000000 
0.200000 0.800000 0.000000 
0.100000 0.700000 0.000000 
0.300000 0.900000 0.000000 
0.400000 1.000000 0.000000 
0.000000 0.600000 0.000000 
0.100000 0.800000 0.000000 
0.200000 0.900000 0.000000 
0.300000 1.000000 0.000000 
0.000000 0.700000 0.000000 
0.100000 0.900000 0.000000 
0.200000 1.000000 0.000000 
0.000000 0.800000 0.000000 
0.100000 1.000000 0.000000 
0.000000 0.900000 0.000000 
0.000000 1.000000 0.000000 
SCALARS Active_Nod_Active int 
LOOKUP_TABLE default 
0
0
0
0
0
0
0
0
0
0
0
0
0
0
0
0
0
0
0
0
0
0
0
0
0
0
6
7
24
20
0
24
25
4
5
38
34
69
71
8
10
71
74
15
15
57
64
0
45
41
95
95
89
103
9
9
13
13
67
73
59
57
96
91
0
90
98
24
23
63
71
2
3
29
30
55
0
63
0
23
20
63
58
35
36
0
0
0
0
0
3
2
13
12
6
8
15
14
0
0
5
4
0
0
0
0
0
0
0
0
0
0
0
0
0
0
0
0
0
0
0
VECTORS MOMENTUM float 
0.000000 0.000000 0.000000 
0.000000 0.000000 0.000000 
0.000000 0.000000 0.000000 
0.000000 0.000000 0.000000 
0.000000 0.000000 0.000000 
0.000000 0.000000 0.000000 
0.000000 0.000000 0.000000 
0.000000 0.000000 0.000000 
0.000000 0.000000 0.000000 
0.000000 0.000000 0.000000 
0.000000 0.000000 0.000000 
0.000000 0.000000 0.000000 
0.000000 0.000000 0.000000 
0.000000 0.000000 0.000000 
0.000000 0.000000 0.000000 
0.000000 0.000000 0.000000 
0.000000 0.000000 0.000000 
0.000000 0.000000 0.000000 
0.000000 0.000000 0.000000 
0.000000 0.000000 0.000000 
0.000000 0.000000 0.000000 
0.000000 0.000000 0.000000 
0.000000 0.000000 0.000000 
0.000000 0.000000 0.000000 
0.000000 0.000000 0.000000 
0.000000 0.000000 0.000000 
-0.002076 -0.002076 0.000000 
0.001842 0.001842 0.000000 
0.022402 0.022402 0.000000 
-0.022395 -0.022395 0.000000 
0.000000 0.000000 0.000000 
-0.026598 -0.026598 0.000000 
0.026433 0.026433 0.000000 
-0.000849 -0.000849 0.000000 
0.000922 0.000922 0.000000 
-0.067765 -0.067765 0.000000 
0.067786 0.067786 0.000000 
-0.168257 -0.168257 0.000000 
0.169458 0.169458 0.000000 
0.004061 0.004061 0.000000 
-0.004240 -0.004240 0.000000 
-0.176395 -0.176395 0.000000 
0.175535 0.175535 0.000000 
-0.010241 -0.010241 0.000000 
0.010362 0.010362 0.000000 
0.152094 0.152094 0.000000 
-0.152773 -0.152773 0.000000 
0.000000 0.000000 0.000000 
-0.094120 -0.094120 0.000000 
0.094660 0.094660 0.000000 
-0.198746 -0.198746 0.000000 
0.199782 0.199782 0.000000 
-0.199197 -0.199197 0.000000 
0.198622 0.198622 0.000000 
-0.003999 -0.003999 0.000000 
0.004205 0.004205 0.000000 
-0.008248 -0.008248 0.000000 
0.008227 0.008227 0.000000 
-0.176363 -0.176363 0.000000 
0.176426 0.176426 0.000000 
-0.142687 -0.142687 0.000000 
0.142626 0.142626 0.000000 
-0.200519 -0.200519 0.000000 
0.199497 0.199497 0.000000 
0.000000 0.000000 0.000000 
-0.200690 -0.200690 0.000000 
0.200988 0.200988 0.000000 
-0.026406 -0.026406 0.000000 
0.026427 0.026427 0.000000 
-0.168554 -0.168554 0.000000 
0.167880 0.167880 0.000000 
-0.000242 -0.000242 0.000000 
0.000323 0.000323 0.000000 
0.046274 0.046274 0.000000 
-0.046404 -0.046404 0.000000 
0.143204 0.143204 0.000000 
0.000000 0.000000 0.000000 
-0.142123 -0.142123 0.000000 
0.000000 0.000000 0.000000 
-0.022507 -0.022507 0.000000 
0.022581 0.022581 0.000000 
-0.151921 -0.151921 0.000000 
0.151859 0.151859 0.000000 
0.067728 0.067728 0.000000 
-0.067840 -0.067840 0.000000 
0.000000 0.000000 0.000000 
0.000000 0.000000 0.000000 
0.000000 0.000000 0.000000 
0.000000 0.000000 0.000000 
0.000000 0.000000 0.000000 
-0.000353 -0.000353 0.000000 
0.000260 0.000260 0.000000 
-0.008356 -0.008356 0.000000 
0.008163 0.008163 0.000000 
0.002090 0.002090 0.000000 
-0.001962 -0.001962 0.000000 
-0.010266 -0.010266 0.000000 
0.010347 0.010347 0.000000 
0.000000 0.000000 0.000000 
0.000000 0.000000 0.000000 
-0.000819 -0.000819 0.000000 
0.000846 0.000846 0.000000 
0.000000 0.000000 0.000000 
0.000000 0.000000 0.000000 
0.000000 0.000000 0.000000 
0.000000 0.000000 0.000000 
0.000000 0.000000 0.000000 
0.000000 0.000000 0.000000 
0.000000 0.000000 0.000000 
0.000000 0.000000 0.000000 
0.000000 0.000000 0.000000 
0.000000 0.000000 0.000000 
0.000000 0.000000 0.000000 
0.000000 0.000000 0.000000 
0.000000 0.000000 0.000000 
0.000000 0.000000 0.000000 
0.000000 0.000000 0.000000 
0.000000 0.000000 0.000000 
0.000000 0.000000 0.000000 
0.000000 0.000000 0.000000 
0.000000 0.000000 0.000000 
CELL_DATA 100 
