# vtk DataFile Version 3.0 
vtk output 
ASCII 
DATASET UNSTRUCTURED_GRID 
POINTS 616 float 
0.291955 0.496289 0.000000 
0.187019 0.156852 0.000000 
0.496012 0.334262 0.000000 
0.122700 0.363100 0.000000 
0.401530 0.140755 0.000000 
0.347470 0.489389 0.000000 
0.187233 0.455358 0.000000 
0.291785 0.115756 0.000000 
0.443411 0.433211 0.000000 
0.121977 0.249650 0.000000 
0.478059 0.223193 0.000000 
0.236416 0.485044 0.000000 
0.237328 0.130478 0.000000 
0.477793 0.388648 0.000000 
0.115277 0.306168 0.000000 
0.446649 0.175071 0.000000 
0.148535 0.413688 0.000000 
0.348544 0.119997 0.000000 
0.402460 0.472285 0.000000 
0.147065 0.197408 0.000000 
0.494764 0.277564 0.000000 
0.263753 0.492099 0.000000 
0.209705 0.139824 0.000000 
0.486001 0.361224 0.000000 
0.119695 0.334088 0.000000 
0.425100 0.156812 0.000000 
0.320107 0.497483 0.000000 
0.164873 0.436946 0.000000 
0.320184 0.114012 0.000000 
0.423271 0.453269 0.000000 
0.134101 0.223328 0.000000 
0.490182 0.249497 0.000000 
0.212286 0.469361 0.000000 
0.263573 0.120000 0.000000 
0.463974 0.413703 0.000000 
0.117384 0.277718 0.000000 
0.461575 0.199702 0.000000 
0.134260 0.388993 0.000000 
0.376699 0.126884 0.000000 
0.375894 0.483526 0.000000 
0.166110 0.176277 0.000000 
0.496862 0.306012 0.000000 
0.279060 0.486013 0.000000 
0.281639 0.468523 0.000000 
0.268772 0.458317 0.000000 
0.296899 0.462501 0.000000 
0.254899 0.465020 0.000000 
0.252460 0.481311 0.000000 
0.240339 0.456696 0.000000 
0.228620 0.469364 0.000000 
0.270241 0.441257 0.000000 
0.300409 0.445746 0.000000 
0.308169 0.472917 0.000000 
0.324095 0.468972 0.000000 
0.305805 0.489216 0.000000 
0.331698 0.484541 0.000000 
0.256248 0.431155 0.000000 
0.286618 0.434708 0.000000 
0.315069 0.441569 0.000000 
0.148542 0.397201 0.000000 
0.163819 0.388342 0.000000 
0.163782 0.371903 0.000000 
0.178030 0.396562 0.000000 
0.149848 0.365116 0.000000 
0.135603 0.373347 0.000000 
0.147003 0.348101 0.000000 
0.129812 0.346807 0.000000 
0.178029 0.362438 0.000000 
0.193317 0.388897 0.000000 
0.176652 0.412381 0.000000 
0.188382 0.425011 0.000000 
0.162431 0.420649 0.000000 
0.180940 0.440578 0.000000 
0.177201 0.345170 0.000000 
0.193353 0.371212 0.000000 
0.205908 0.400607 0.000000 
0.205147 0.454501 0.000000 
0.212822 0.435605 0.000000 
0.427999 0.437460 0.000000 
0.416550 0.425090 0.000000 
0.400916 0.429133 0.000000 
0.421491 0.409513 0.000000 
0.397920 0.444936 0.000000 
0.409066 0.456942 0.000000 
0.383228 0.453787 0.000000 
0.386051 0.471076 0.000000 
0.388478 0.417311 0.000000 
0.410728 0.396353 0.000000 
0.437444 0.407623 0.000000 
0.447502 0.393731 0.000000 
0.448165 0.419198 0.000000 
0.464564 0.397822 0.000000 
0.372067 0.422182 0.000000 
0.393548 0.400322 0.000000 
0.419579 0.381690 0.000000 
0.126846 0.319231 0.000000 
0.157578 0.318917 0.000000 
0.182186 0.172614 0.000000 
0.194204 0.185549 0.000000 
0.210215 0.181862 0.000000 
0.189344 0.201244 0.000000 
0.213747 0.166761 0.000000 
0.202572 0.154683 0.000000 
0.229706 0.160220 0.000000 
0.227165 0.143160 0.000000 
0.222593 0.193665 0.000000 
0.200196 0.214456 0.000000 
0.173626 0.203420 0.000000 
0.163924 0.217682 0.000000 
0.162411 0.191389 0.000000 
0.147100 0.213892 0.000000 
0.239243 0.189034 0.000000 
0.217433 0.210563 0.000000 
0.194347 0.230720 0.000000 
0.408658 0.155607 0.000000 
0.398696 0.170193 0.000000 
0.405842 0.184976 0.000000 
0.382302 0.168949 0.000000 
0.421273 0.185008 0.000000 
0.430570 0.171431 0.000000 
0.430772 0.198845 0.000000 
0.446852 0.192572 0.000000 
0.397068 0.199659 0.000000 
0.371809 0.182465 0.000000 
0.376703 0.154111 0.000000 
0.360644 0.147819 0.000000 
0.385965 0.140505 0.000000 
0.360623 0.130577 0.000000 
0.405274 0.214833 0.000000 
0.379427 0.198395 0.000000 
0.354648 0.180371 0.000000 
0.487562 0.292379 0.000000 
0.469924 0.293641 0.000000 
0.462783 0.308403 0.000000 
0.460697 0.280044 0.000000 
0.472354 0.320490 0.000000 
0.488808 0.319368 0.000000 
0.467387 0.336476 0.000000 
0.482381 0.345236 0.000000 
0.445799 0.310641 0.000000 
0.443571 0.280236 0.000000 
0.468843 0.266443 0.000000 
0.463781 0.249974 0.000000 
0.485272 0.265226 0.000000 
0.477283 0.239225 0.000000 
0.438929 0.326417 0.000000 
0.435824 0.296076 0.000000 
0.437328 0.264230 0.000000 
0.461539 0.216172 0.000000 
0.446374 0.229800 0.000000 
0.253394 0.134171 0.000000 
0.261911 0.165234 0.000000 
0.333060 0.124300 0.000000 
0.325538 0.139823 0.000000 
0.124565 0.292548 0.000000 
0.140735 0.294969 0.000000 
0.149957 0.281371 0.000000 
0.143003 0.311681 0.000000 
0.143272 0.266619 0.000000 
0.126869 0.265387 0.000000 
0.148340 0.250134 0.000000 
0.134865 0.239373 0.000000 
0.167055 0.281587 0.000000 
0.178158 0.264429 0.000000 
0.172405 0.302418 0.000000 
0.278908 0.126044 0.000000 
0.281536 0.143503 0.000000 
0.296836 0.149481 0.000000 
0.265743 0.149416 0.000000 
0.308334 0.138537 0.000000 
0.305911 0.122271 0.000000 
0.331818 0.156630 0.000000 
0.298840 0.167920 0.000000 
0.316617 0.173781 0.000000 
0.279708 0.177760 0.000000 
0.472955 0.371313 0.000000 
0.452644 0.367747 0.000000 
0.358534 0.477186 0.000000 
0.355313 0.453838 0.000000 
0.240219 0.439891 0.000000 
0.369821 0.442859 0.000000 
0.423546 0.213991 0.000000 
0.160110 0.337621 0.000000 
0.242822 0.170689 0.000000 
0.450932 0.340155 0.000000 
0.318402 0.424551 0.000000 
0.408553 0.368492 0.000000 
0.344177 0.194152 0.000000 
0.221276 0.392672 0.000000 
0.205468 0.243974 0.000000 
0.420007 0.264613 0.000000 
0.257919 0.413912 0.000000 
0.359706 0.410173 0.000000 
0.396218 0.229564 0.000000 
0.191713 0.335746 0.000000 
0.251640 0.201104 0.000000 
0.421678 0.328455 0.000000 
0.327478 0.454363 0.000000 
0.440398 0.380971 0.000000 
0.349083 0.160564 0.000000 
0.202355 0.420904 0.000000 
0.173792 0.231767 0.000000 
0.449392 0.247569 0.000000 
0.307063 0.411724 0.000000 
0.222514 0.240932 0.000000 
0.400185 0.246875 0.000000 
0.385983 0.259633 0.000000 
0.385973 0.275918 0.000000 
0.371849 0.251474 0.000000 
0.404407 0.280032 0.000000 
0.371738 0.285419 0.000000 
0.356468 0.258987 0.000000 
0.377524 0.233513 0.000000 
0.372601 0.302616 0.000000 
0.356367 0.276647 0.000000 
0.341985 0.249613 0.000000 
0.388373 0.314529 0.000000 
0.358057 0.312066 0.000000 
0.326497 0.257401 0.000000 
0.339556 0.229986 0.000000 
0.289918 0.417681 0.000000 
0.311380 0.395019 0.000000 
0.228630 0.223784 0.000000 
0.342608 0.304272 0.000000 
0.296725 0.385149 0.000000 
0.329159 0.394316 0.000000 
0.342090 0.410429 0.000000 
0.328054 0.313726 0.000000 
0.341769 0.286045 0.000000 
0.277696 0.391132 0.000000 
0.328972 0.331011 0.000000 
0.312605 0.305926 0.000000 
0.344388 0.338782 0.000000 
0.314488 0.340540 0.000000 
0.298115 0.315434 0.000000 
0.311772 0.286605 0.000000 
0.358918 0.329293 0.000000 
0.315532 0.359020 0.000000 
0.299071 0.332754 0.000000 
0.284608 0.342285 0.000000 
0.283188 0.359455 0.000000 
0.298709 0.368416 0.000000 
0.262704 0.370200 0.000000 
0.269182 0.334491 0.000000 
0.250747 0.344014 0.000000 
0.268222 0.317173 0.000000 
0.245689 0.362553 0.000000 
0.225202 0.372255 0.000000 
0.229449 0.335522 0.000000 
0.252801 0.309389 0.000000 
0.282698 0.307653 0.000000 
0.232459 0.318211 0.000000 
0.251867 0.292103 0.000000 
0.281780 0.290383 0.000000 
0.234977 0.277888 0.000000 
0.266361 0.282604 0.000000 
0.265435 0.265326 0.000000 
0.251672 0.253586 0.000000 
0.256036 0.233041 0.000000 
0.279943 0.255841 0.000000 
0.274336 0.235870 0.000000 
0.295441 0.261564 0.000000 
0.310979 0.250572 0.000000 
0.350858 0.215371 0.000000 
0.246789 0.400012 0.000000 
0.259195 0.385144 0.000000 
0.273016 0.195284 0.000000 
0.388805 0.370252 0.000000 
0.382578 0.387317 0.000000 
0.375486 0.357995 0.000000 
0.357942 0.363583 0.000000 
0.353831 0.380813 0.000000 
0.335459 0.382585 0.000000 
0.329593 0.365931 0.000000 
0.343961 0.355219 0.000000 
0.189445 0.311697 0.000000 
0.410392 0.342201 0.000000 
0.390927 0.334816 0.000000 
0.296352 0.278827 0.000000 
0.335679 0.423983 0.000000 
0.341589 0.444376 0.000000 
0.196943 0.261721 0.000000 
0.235705 0.256646 0.000000 
0.326383 0.276173 0.000000 
0.323412 0.191496 0.000000 
0.275216 0.406983 0.000000 
0.246185 0.218953 0.000000 
0.419340 0.354819 0.000000 
0.442653 0.354847 0.000000 
0.415776 0.247729 0.000000 
0.430080 0.229576 0.000000 
0.209061 0.344311 0.000000 
0.232440 0.406057 0.000000 
0.227545 0.428688 0.000000 
0.365149 0.392291 0.000000 
0.406735 0.312111 0.000000 
0.376045 0.340150 0.000000 
0.368944 0.217516 0.000000 
0.209874 0.362508 0.000000 
0.413986 0.295478 0.000000 
0.322088 0.222439 0.000000 
0.308997 0.235237 0.000000 
0.312621 0.205164 0.000000 
0.287854 0.226259 0.000000 
0.166127 0.247728 0.000000 
0.289398 0.206914 0.000000 
0.220073 0.295052 0.000000 
0.202877 0.288156 0.000000 
0.679650 0.884250 0.000000 
0.576743 0.546773 0.000000 
0.883900 0.722061 0.000000 
0.510410 0.750887 0.000000 
0.789199 0.528543 0.000000 
0.735202 0.877403 0.000000 
0.574875 0.843183 0.000000 
0.679472 0.503745 0.000000 
0.833887 0.823737 0.000000 
0.509912 0.637466 0.000000 
0.865729 0.610981 0.000000 
0.624071 0.872902 0.000000 
0.625139 0.518623 0.000000 
0.865898 0.776683 0.000000 
0.503122 0.693967 0.000000 
0.834313 0.562866 0.000000 
0.536177 0.801479 0.000000 
0.736223 0.507877 0.000000 
0.790503 0.860598 0.000000 
0.536056 0.586302 0.000000 
0.882557 0.665353 0.000000 
0.651427 0.880005 0.000000 
0.597743 0.528199 0.000000 
0.873964 0.749113 0.000000 
0.507475 0.721888 0.000000 
0.812768 0.544603 0.000000 
0.707811 0.885469 0.000000 
0.552517 0.824762 0.000000 
0.707855 0.501952 0.000000 
0.812982 0.843157 0.000000 
0.522232 0.611343 0.000000 
0.877905 0.637283 0.000000 
0.599931 0.857193 0.000000 
0.651254 0.508015 0.000000 
0.852931 0.802609 0.000000 
0.505273 0.665521 0.000000 
0.849228 0.587489 0.000000 
0.521924 0.776783 0.000000 
0.764374 0.514706 0.000000 
0.763690 0.871606 0.000000 
0.556616 0.566811 0.000000 
0.884727 0.693809 0.000000 
0.666776 0.873963 0.000000 
0.669423 0.856507 0.000000 
0.656564 0.846290 0.000000 
[...]
POINT_DATA 616 
VECTORS X_GC float 
0.291955 0.496289 0.000000 
0.187019 0.156852 0.000000 
0.496012 0.334262 0.000000 
0.122700 0.363100 0.000000 
0.401530 0.140755 0.000000 
0.347470 0.489389 0.000000 
0.187233 0.455358 0.000000 
0.291785 0.115756 0.000000 
0.443411 0.433211 0.000000 
0.121977 0.249650 0.000000 
0.478059 0.223193 0.000000 
0.236416 0.485044 0.000000 
0.237328 0.130478 0.000000 
0.477793 0.388648 0.000000 
0.115277 0.306168 0.000000 
0.446649 0.175071 0.000000 
0.148535 0.413688 0.000000 
0.348544 0.119997 0.000000 
0.402460 0.472285 0.000000 
0.147065 0.197408 0.000000 
0.494764 0.277564 0.000000 
0.263753 0.492099 0.000000 
0.209705 0.139824 0.000000 
0.486001 0.361224 0.000000 
0.119695 0.334088 0.000000 
0.425100 0.156812 0.000000 
0.320107 0.497483 0.000000 
0.164873 0.436946 0.000000 
0.320184 0.114012 0.000000 
0.423271 0.453269 0.000000 
0.134101 0.223328 0.000000 
0.490182 0.249497 0.000000 
0.212286 0.469361 0.000000 
0.263573 0.120000 0.000000 
0.463974 0.413703 0.000000 
0.117384 0.277718 0.000000 
0.461575 0.199702 0.000000 
0.134260 0.388993 0.000000 
0.376699 0.126884 0.000000 
0.375894 0.483526 0.000000 
0.166110 0.176277 0.000000 
0.496862 0.306012 0.000000 
0.279060 0.486013 0.000000 
0.281639 0.468523 0.000000 
0.268772 0.458317 0.000000 
0.296899 0.462501 0.000000 
0.254899 0.465020 0.000000 
0.252460 0.481311 0.000000 
0.240339 0.456696 0.000000 
0.228620 0.469364 0.000000 
0.270241 0.441257 0.000000 
0.300409 0.445746 0.000000 
0.308169 0.472917 0.000000 
0.324095 0.468972 0.000000 
0.305805 0.489216 0.000000 
0.331698 0.484541 0.000000 
0.256248 0.431155 0.000000 
0.286618 0.434708 0.000000 
0.315069 0.441569 0.000000 
0.148542 0.397201 0.000000 
0.163819 0.388342 0.000000 
0.163782 0.371903 0.000000 
0.178030 0.396562 0.000000 
0.149848 0.365116 0.000000 
0.135603 0.373347 0.000000 
0.147003 0.348101 0.000000 
0.129812 0.346807 0.000000 
0.178029 0.362438 0.000000 
0.193317 0.388897 0.000000 
0.176652 0.412381 0.000000 
0.188382 0.425011 0.000000 
0.162431 0.420649 0.000000 
0.180940 0.440578 0.000000 
0.177201 0.345170 0.000000 
0.193353 0.371212 0.000000 
0.205908 0.400607 0.000000 
0.205147 0.454501 0.000000 
0.212822 0.435605 0.000000 
0.427999 0.437460 0.000000 
0.416550 0.425090 0.000000 
0.400916 0.429133 0.000000 
0.421491 0.409513 0.000000 
0.397920 0.444936 0.000000 
0.409066 0.456942 0.000000 
0.383228 0.453787 0.000000 
0.386051 0.471076 0.000000 
0.388478 0.417311 0.000000 
0.410728 0.396353 0.000000 
0.437444 0.407623 0.000000 
0.447502 0.393731 0.000000 
0.448165 0.419198 0.000000 
0.464564 0.397822 0.000000 
0.372067 0.422182 0.000000 
0.393548 0.400322 0.000000 
0.419579 0.381690 0.000000 
0.126846 0.319231 0.000000 
0.157578 0.318917 0.000000 
0.182186 0.172614 0.000000 
0.194204 0.185549 0.000000 
0.210215 0.181862 0.000000 
0.189344 0.201244 0.000000 
0.213747 0.166761 0.000000 
0.202572 0.154683 0.000000 
0.229706 0.160220 0.000000 
0.227165 0.143160 0.000000 
0.222593 0.193665 0.000000 
0.200196 0.214456 0.000000 
0.173626 0.203420 0.000000 
0.163924 0.217682 0.000000 
0.162411 0.191389 0.000000 
0.147100 0.213892 0.000000 
0.239243 0.189034 0.000000 
0.217433 0.210563 0.000000 
0.194347 0.230720 0.000000 
0.408658 0.155607 0.000000 
0.398696 0.170193 0.000000 
0.405842 0.184976 0.000000 
0.382302 0.168949 0.000000 
0.421273 0.185008 0.000000 
0.430570 0.171431 0.000000 
0.430772 0.198845 0.000000 
0.446852 0.192572 0.000000 
0.397068 0.199659 0.000000 
0.371809 0.182465 0.000000 
0.376703 0.154111 0.000000 
0.360644 0.147819 0.000000 
0.385965 0.140505 0.000000 
0.360623 0.130577 0.000000 
0.405274 0.214833 0.000000 
0.379427 0.198395 0.000000 
0.354648 0.180371 0.000000 
0.487562 0.292379 0.000000 
0.469924 0.293641 0.000000 
0.462783 0.308403 0.000000 
0.460697 0.280044 0.000000 
0.472354 0.320490 0.000000 
0.488808 0.319368 0.000000 
0.467387 0.336476 0.000000 
0.482381 0.345236 0.000000 
0.445799 0.310641 0.000000 
0.443571 0.280236 0.000000 
0.468843 0.266443 0.000000 
0.463781 0.249974 0.000000 
0.485272 0.265226 0.000000 
0.477283 0.239225 0.000000 
0.438929 0.326417 0.000000 
0.435824 0.296076 0.000000 
0.437328 0.264230 0.000000 
0.461539 0.216172 0.000000 
0.446374 0.229800 0.000000 
0.253394 0.134171 0.000000 
0.261911 0.165234 0.000000 
0.333060 0.124300 0.000000 
0.325538 0.139823 0.000000 
0.124565 0.292548 0.000000 
0.140735 0.294969 0.000000 
0.149957 0.281371 0.000000 
0.143003 0.311681 0.000000 
0.143272 0.266619 0.000000 
0.126869 0.265387 0.000000 
0.148340 0.250134 0.000000 
0.134865 0.239373 0.000000 
0.167055 0.281587 0.000000 
0.178158 0.264429 0.000000 
0.172405 0.302418 0.000000 
0.278908 0.126044 0.000000 
0.281536 0.143503 0.000000 
0.296836 0.149481 0.000000 
0.265743 0.149416 0.000000 
0.308334 0.138537 0.000000 
0.305911 0.122271 0.000000 
0.331818 0.156630 0.000000 
0.298840 0.167920 0.000000 
0.316617 0.173781 0.000000 
0.279708 0.177760 0.000000 
0.472955 0.371313 0.000000 
0.452644 0.367747 0.000000 
0.358534 0.477186 0.000000 
0.355313 0.453838 0.000000 
0.240219 0.439891 0.000000 
0.369821 0.442859 0.000000 
0.423546 0.213991 0.000000 
0.160110 0.337621 0.000000 
0.242822 0.170689 0.000000 
0.450932 0.340155 0.000000 
0.318402 0.424551 0.000000 
0.408553 0.368492 0.000000 
0.344177 0.194152 0.000000 
0.221276 0.392672 0.000000 
0.205468 0.243974 0.000000 
0.420007 0.264613 0.000000 
0.257919 0.413912 0.000000 
0.359706 0.410173 0.000000 
0.396218 0.229564 0.000000 
0.191713 0.335746 0.000000 
0.251640 0.201104 0.000000 
0.421678 0.328455 0.000000 
0.327478 0.454363 0.000000 
0.440398 0.380971 0.000000 
0.349083 0.160564 0.000000 
0.202355 0.420904 0.000000 
0.173792 0.231767 0.000000 
0.449392 0.247569 0.000000 
0.307063 0.411724 0.000000 
0.222514 0.240932 0.000000 
0.400185 0.246875 0.000000 
0.385983 0.259633 0.000000 
0.385973 0.275918 0.000000 
0.371849 0.251474 0.000000 
0.404407 0.280032 0.000000 
0.371738 0.285419 0.000000 
0.356468 0.258987 0.000000 
0.377524 0.233513 0.000000 
0.372601 0.302616 0.000000 
0.356367 0.276647 0.000000 
0.341985 0.249613 0.000000 
0.388373 0.314529 0.000000 
0.358057 0.312066 0.000000 
0.326497 0.257401 0.000000 
0.339556 0.229986 0.000000 
0.289918 0.417681 0.000000 
0.311380 0.395019 0.000000 
0.228630 0.223784 0.000000 
0.342608 0.304272 0.000000 
0.296725 0.385149 0.000000 
0.329159 0.394316 0.000000 
0.342090 0.410429 0.000000 
0.328054 0.313726 0.000000 
0.341769 0.286045 0.000000 
0.277696 0.391132 0.000000 
0.328972 0.331011 0.000000 
0.312605 0.305926 0.000000 
0.344388 0.338782 0.000000 
0.314488 0.340540 0.000000 
0.298115 0.315434 0.000000 
0.311772 0.286605 0.000000 
0.358918 0.329293 0.000000 
0.315532 0.359020 0.000000 
0.299071 0.332754 0.000000 
0.284608 0.342285 0.000000 
0.283188 0.359455 0.000000 
0.298709 0.368416 0.000000 
0.262704 0.370200 0.000000 
0.269182 0.334491 0.000000 
0.250747 0.344014 0.000000 
0.268222 0.317173 0.000000 
0.245689 0.362553 0.000000 
0.225202 0.372255 0.000000 
0.229449 0.335522 0.000000 
0.252801 0.309389 0.000000 
0.282698 0.307653 0.000000 
0.232459 0.318211 0.000000 
0.251867 0.292103 0.000000 
0.281780 0.290383 0.000000 
0.234977 0.277888 0.000000 
0.266361 0.282604 0.000000 
0.265435 0.265326 0.000000 
0.251672 0.253586 0.000000 
0.256036 0.233041 0.000000 
0.279943 0.255841 0.000000 
0.274336 0.235870 0.000000 
0.295441 0.261564 0.000000 
0.310979 0.250572 0.000000 
0.350858 0.215371 0.000000 
0.246789 0.400012 0.000000 
0.259195 0.385144 0.000000 
0.273016 0.195284 0.000000 
0.388805 0.370252 0.000000 
0.382578 0.387317 0.000000 
0.375486 0.357995 0.000000 
0.357942 0.363583 0.000000 
0.353831 0.380813 0.000000 
0.335459 0.382585 0.000000 
0.329593 0.365931 0.000000 
0.343961 0.355219 0.000000 
0.189445 0.311697 0.000000 
0.410392 0.342201 0.000000 
0.390927 0.334816 0.000000 
0.296352 0.278827 0.000000 
0.335679 0.423983 0.000000 
0.341589 0.444376 0.000000 
0.196943 0.261721 0.000000 
0.235705 0.256646 0.000000 
0.326383 0.276173 0.000000 
0.323412 0.191496 0.000000 
0.275216 0.406983 0.000000 
0.246185 0.218953 0.000000 
0.419340 0.354819 0.000000 
0.442653 0.354847 0.000000 
0.415776 0.247729 0.000000 
0.430080 0.229576 0.000000 
0.209061 0.344311 0.000000 
0.232440 0.406057 0.000000 
0.227545 0.428688 0.000000 
0.365149 0.392291 0.000000 
0.406735 0.312111 0.000000 
0.376045 0.340150 0.000000 
0.368944 0.217516 0.000000 
0.209874 0.362508 0.000000 
0.413986 0.295478 0.000000 
0.322088 0.222439 0.000000 
0.308997 0.235237 0.000000 
0.312621 0.205164 0.000000 
0.287854 0.226259 0.000000 
0.166127 0.247728 0.000000 
0.289398 0.206914 0.000000 
0.220073 0.295052 0.000000 
0.202877 0.288156 0.000000 
0.679650 0.884250 0.000000 
0.576743 0.546773 0.000000 
0.883900 0.722061 0.000000 
0.510410 0.750887 0.000000 
0.789199 0.528543 0.000000 
0.735202 0.877403 0.000000 
0.574875 0.843183 0.000000 
0.679472 0.503745 0.000000 
0.833887 0.823737 0.000000 
0.509912 0.637466 0.000000 
0.865729 0.610981 0.000000 
0.624071 0.872902 0.000000 
0.625139 0.518623 0.000000 
0.865898 0.776683 0.000000 
0.503122 0.693967 0.000000 
0.834313 0.562866 0.000000 
0.536177 0.801479 0.000000 
0.736223 0.507877 0.000000 
0.790503 0.860598 0.000000 
0.536056 0.586302 0.000000 
0.882557 0.665353 0.000000 
0.651427 0.880005 0.000000 
0.597743 0.528199 0.000000 
0.873964 0.749113 0.000000 
0.507475 0.721888 0.000000 
0.812768 0.544603 0.000000 
0.707811 0.885469 0.000000 
0.552517 0.824762 0.000000 
0.707855 0.501952 0.000000 
0.812982 0.843157 0.000000 
0.522232 0.611343 0.000000 
0.877905 0.637283 0.000000 
0.599931 0.857193 0.000000 
0.651254 0.508015 0.000000 
0.852931 0.802609 0.000000 
0.505273 0.665521 0.000000 
0.849228 0.587489 0.000000 
0.521924 0.776783 0.000000 
0.764374 0.514706 0.000000 
0.763690 0.871606 0.000000 
0.556616 0.566811 0.000000 
0.884727 0.693809 0.000000 
0.666776 0.873963 0.000000 
0.669423 0.856507 0.000000 
0.656564 0.846290 0.000000 
0.684737 0.850530 0.000000 
0.642640 0.852951 0.000000 
0.640150 0.869211 0.000000 
0.628070 0.844607 0.000000 
0.616297 0.857230 0.000000 
0.658093 0.829261 0.000000 
0.688325 0.833812 0.000000 
0.695985 0.860948 0.000000 
0.711974 0.857057 0.000000 
0.693545 0.877213 0.000000 
0.719480 0.872580 0.000000 
0.644091 0.819143 0.000000 
0.674540 0.822761 0.000000 
0.703063 0.829689 0.000000 
0.536212 0.785009 0.000000 
0.551540 0.776202 0.000000 
0.551548 0.759801 0.000000 
0.565754 0.784431 0.000000 
0.537605 0.752986 0.000000 
0.523311 0.761161 0.000000 
0.534801 0.735992 0.000000 
0.517578 0.734635 0.000000 
0.565848 0.750404 0.000000 
0.581092 0.776825 0.000000 
0.564339 0.800219 0.000000 
0.576067 0.812859 0.000000 
0.550087 0.808462 0.000000 
0.568596 0.828407 0.000000 
0.565066 0.733183 0.000000 
0.581179 0.759200 0.000000 
0.593671 0.788527 0.000000 
0.592806 0.842340 0.000000 
0.600529 0.823486 0.000000 
0.817814 0.827396 0.000000 
0.805797 0.814458 0.000000 
0.789786 0.818143 0.000000 
0.810655 0.798763 0.000000 
0.786458 0.833659 0.000000 
0.797637 0.845737 0.000000 
0.771518 0.842279 0.000000 
0.774060 0.859340 0.000000 
0.777406 0.806340 0.000000 
0.799805 0.785548 0.000000 
0.826372 0.796590 0.000000 
0.836076 0.782327 0.000000 
0.837587 0.808625 0.000000 
0.852898 0.786120 0.000000 
0.760755 0.810972 0.000000 
0.782567 0.789442 0.000000 
0.808417 0.770647 0.000000 
0.514679 0.707077 0.000000 
0.545475 0.706911 0.000000 
0.572023 0.562573 0.000000 
0.583473 0.574945 0.000000 
0.599103 0.570916 0.000000 
0.578538 0.590513 0.000000 
0.602300 0.555537 0.000000 
0.591139 0.543522 0.000000 
0.618035 0.548778 0.000000 
0.615206 0.531500 0.000000 
0.611547 0.582727 0.000000 
0.589305 0.603676 0.000000 
0.562586 0.592395 0.000000 
0.552528 0.606276 0.000000 
0.551863 0.580818 0.000000 
0.535466 0.602177 0.000000 
0.627954 0.577849 0.000000 
0.606490 0.599714 0.000000 
0.583218 0.619708 0.000000 
0.796336 0.543405 0.000000 
0.786407 0.558034 0.000000 
0.793556 0.572822 0.000000 
0.770054 0.556829 0.000000 
0.808966 0.572832 0.000000 
0.818245 0.559233 0.000000 
0.818465 0.586672 0.000000 
0.834521 0.580374 0.000000 
0.784827 0.587552 0.000000 
0.759620 0.570394 0.000000 
0.764437 0.541979 0.000000 
0.748392 0.535717 0.000000 
0.773656 0.528328 0.000000 
0.748323 0.518445 0.000000 
0.793042 0.602743 0.000000 
0.767249 0.586333 0.000000 
0.742507 0.568340 0.000000 
0.875409 0.680212 0.000000 
0.857807 0.681561 0.000000 
0.850723 0.696391 0.000000 
0.848558 0.667982 0.000000 
0.860318 0.708458 0.000000 
0.876721 0.707226 0.000000 
0.855429 0.724528 0.000000 
0.870355 0.733160 0.000000 
0.833786 0.698734 0.000000 
0.831464 0.668248 0.000000 
0.856651 0.654323 0.000000 
0.851551 0.637842 0.000000 
0.873047 0.653042 0.000000 
0.864999 0.627037 0.000000 
0.827040 0.714649 0.000000 
0.823777 0.684171 0.000000 
0.825186 0.652222 0.000000 
0.849217 0.603981 0.000000 
0.834116 0.617670 0.000000 
0.641246 0.522318 0.000000 
0.650110 0.553600 0.000000 
0.720765 0.512224 0.000000 
0.713315 0.527793 0.000000 
0.512469 0.680414 0.000000 
0.528678 0.682933 0.000000 
0.537996 0.669445 0.000000 
0.530889 0.699616 0.000000 
0.531345 0.654679 0.000000 
0.514828 0.653272 0.000000 
0.536535 0.638309 0.000000 
0.522959 0.627380 0.000000 
0.555171 0.669797 0.000000 
0.566499 0.652880 0.000000 
0.560388 0.690538 0.000000 
0.666662 0.514085 0.000000 
0.669431 0.531618 0.000000 
0.684720 0.537546 0.000000 
0.653745 0.537639 0.000000 
0.696130 0.526545 0.000000 
0.693628 0.510257 0.000000 
0.719652 0.544615 0.000000 
0.686821 0.556018 0.000000 
0.704563 0.561834 0.000000 
0.667892 0.566044 0.000000 
0.861076 0.759394 0.000000 
0.840972 0.756105 0.000000 
0.746405 0.865311 0.000000 
0.743454 0.842163 0.000000 
0.627992 0.827828 0.000000 
0.758196 0.831396 0.000000 
0.811278 0.601860 0.000000 
0.547961 0.725585 0.000000 
0.631230 0.559268 0.000000 
0.839090 0.728377 0.000000 
0.706511 0.812739 0.000000 
0.797298 0.757392 0.000000 
0.732117 0.582174 0.000000 
0.609110 0.780663 0.000000 
0.594220 0.632880 0.000000 
0.807899 0.652672 0.000000 
0.645820 0.801936 0.000000 
0.748358 0.798903 0.000000 
0.784063 0.617558 0.000000 
0.579635 0.723848 0.000000 
0.640323 0.589850 0.000000 
0.809881 0.716836 0.000000 
0.715465 0.842517 0.000000 
0.828971 0.769601 0.000000 
0.736894 0.548512 0.000000 
0.590067 0.808778 0.000000 
0.562412 0.620436 0.000000 
0.837180 0.635476 0.000000 
0.695151 0.799875 0.000000 
0.611223 0.629772 0.000000 
0.788073 0.634929 0.000000 
0.773965 0.647779 0.000000 
0.774008 0.664130 0.000000 
0.759861 0.639629 0.000000 
0.792388 0.668210 0.000000 
0.759861 0.673716 0.000000 
0.744566 0.647221 0.000000 
0.765455 0.621576 0.000000 
0.760772 0.690978 0.000000 
0.744524 0.664957 0.000000 
0.730110 0.637851 0.000000 
0.776548 0.702907 0.000000 
0.746315 0.700503 0.000000 
0.714710 0.645721 0.000000 
0.727626 0.618146 0.000000 
0.677917 0.805775 0.000000 
0.699550 0.783259 0.000000 
0.617454 0.612710 0.000000 
0.730901 0.692732 0.000000 
0.684855 0.773377 0.000000 
0.717484 0.782715 0.000000 
0.730537 0.798944 0.000000 
0.716411 0.702237 0.000000 
0.730016 0.674441 0.000000 
0.665736 0.779283 0.000000 
0.717325 0.719505 0.000000 
0.701003 0.694470 0.000000 
0.732747 0.727284 0.000000 
0.702818 0.728992 0.000000 
0.686490 0.703953 0.000000 
0.700131 0.675092 0.000000 
0.747244 0.717783 0.000000 
0.703819 0.747411 0.000000 
0.687394 0.721209 0.000000 
0.672848 0.730661 0.000000 
0.671361 0.747755 0.000000 
0.686904 0.756720 0.000000 
0.650762 0.758395 0.000000 
0.657389 0.722851 0.000000 
0.638849 0.732278 0.000000 
0.656483 0.705598 0.000000 
0.633709 0.750728 0.000000 
0.613115 0.760332 0.000000 
0.617496 0.723752 0.000000 
0.641020 0.697791 0.000000 
0.671040 0.696153 0.000000 
0.620573 0.706517 0.000000 
0.640149 0.680557 0.000000 
0.670136 0.678883 0.000000 
0.623325 0.666406 0.000000 
0.654704 0.671095 0.000000 
0.653825 0.653841 0.000000 
0.640146 0.642181 0.000000 
0.644582 0.621676 0.000000 
0.668310 0.644306 0.000000 
0.662748 0.624356 0.000000 
0.683766 0.649982 0.000000 
0.699226 0.638903 0.000000 
0.738837 0.603438 0.000000 
0.634692 0.788046 0.000000 
0.647189 0.773268 0.000000 
0.661417 0.583736 0.000000 
0.777490 0.759073 0.000000 
0.771372 0.776222 0.000000 
0.764003 0.746655 0.000000 
0.746416 0.752182 0.000000 
0.742349 0.769433 0.000000 
0.723838 0.771053 0.000000 
0.717932 0.754374 0.000000 
0.732352 0.743734 0.000000 
0.577427 0.699868 0.000000 
0.798812 0.730807 0.000000 
0.779276 0.723349 0.000000 
0.684710 0.667302 0.000000 
0.723960 0.812350 0.000000 
0.729744 0.832678 0.000000 
0.585445 0.650390 0.000000 
0.624216 0.645298 0.000000 
0.714658 0.664576 0.000000 
0.711415 0.579565 0.000000 
0.663200 0.795068 0.000000 
0.634885 0.607732 0.000000 
0.807864 0.743496 0.000000 
0.830983 0.743255 0.000000 
0.803625 0.635739 0.000000 
0.817848 0.617482 0.000000 
0.597006 0.732449 0.000000 
0.620272 0.794034 0.000000 
0.615307 0.816614 0.000000 
0.753817 0.781054 0.000000 
0.794836 0.700433 0.000000 
0.764434 0.728704 0.000000 
0.756857 0.605540 0.000000 
0.597764 0.750580 0.000000 
0.801986 0.683680 0.000000 
0.710203 0.610616 0.000000 
0.697203 0.623505 0.000000 
0.700722 0.593298 0.000000 
0.676167 0.614621 0.000000 
0.554517 0.636160 0.000000 
0.677677 0.595214 0.000000 
0.608252 0.683436 0.000000 
0.591079 0.676568 0.000000 
VECTORS X_EC float 
-0.925788 0.839099 0.000000 
-0.137045 0.740390 0.000000 
0.314751 0.920250 0.000000 
-0.262006 -0.546003 0.000000 
0.184905 -0.969405 0.000000 
-0.787787 -0.050595 0.000000 
-0.107159 0.744667 0.000000 
0.684889 0.835691 0.000000 
0.335785 -0.131772 0.000000 
0.007009 -0.560468 0.000000 
0.536146 0.561186 0.000000 
-0.700880 -0.271671 0.000000 
0.390440 -0.253446 0.000000 
-0.772955 0.555863 0.000000 
0.876632 -0.694454 0.000000 
-0.501429 -0.067012 0.000000 
0.726236 -0.029307 0.000000 
0.600057 -0.029110 0.000000 
-0.445703 -0.950797 0.000000 
-0.948165 -0.058700 0.000000 
-0.551282 0.895280 0.000000 
-0.841972 0.275064 0.000000 
0.203516 -0.805896 0.000000 
-0.224480 0.720016 0.000000 
0.318236 -0.606093 0.000000 
-0.136232 -0.497995 0.000000 
-0.949655 -0.597855 0.000000 
0.261072 0.297460 0.000000 
0.719764 -0.596315 0.000000 
-0.065382 -0.534579 0.000000 
0.533430 -0.317989 0.000000 
0.010056 0.803635 0.000000 
-0.387225 -0.754272 0.000000 
0.599997 0.271455 0.000000 
0.725949 0.279472 0.000000 
-0.554367 -0.652327 0.000000 
-0.994048 0.231504 0.000000 
-0.779868 -0.314802 0.000000 
0.462313 0.533973 0.000000 
-0.670521 0.517884 0.000000 
-0.525545 0.322199 0.000000 
0.879762 0.937250 0.000000 
-0.720269 0.581205 0.000000 
-0.370454 0.632782 0.000000 
-0.166337 0.375441 0.000000 
-0.250012 0.937975 0.000000 
-0.300408 0.097980 0.000000 
-0.626228 0.049199 0.000000 
-0.133923 -0.193230 0.000000 
-0.387290 -0.427608 0.000000 
0.174864 0.404828 0.000000 
0.085074 -0.991821 0.000000 
-0.458338 -0.836610 0.000000 
-0.379450 -0.518095 0.000000 
-0.784315 -0.883892 0.000000 
-0.690829 -0.366045 0.000000 
0.376899 0.124964 0.000000 
0.305832 0.732368 0.000000 
0.168627 -0.698617 0.000000 
-0.944022 -0.029155 0.000000 
-0.766841 0.276377 0.000000 
-0.438062 0.275634 0.000000 
-0.931231 0.560593 0.000000 
-0.302315 -0.003043 0.000000 
-0.466939 -0.287947 0.000000 
0.037982 -0.059932 0.000000 
0.063863 -0.403766 0.000000 
-0.248751 0.560580 0.000000 
-0.777942 0.866336 0.000000 
0.752378 0.533043 0.000000 
0.499787 0.767631 0.000000 
0.587019 0.248623 0.000000 
0.188441 0.618797 0.000000 
0.096600 0.544027 0.000000 
-0.424238 0.867067 0.000000 
0.987859 -0.881835 0.000000 
-0.090024 -0.897069 0.000000 
0.287896 -0.743552 0.000000 
0.250791 -0.440030 0.000000 
0.498190 -0.668996 0.000000 
0.417344 -0.981679 0.000000 
0.809737 -0.570171 0.000000 
0.101281 0.958403 0.000000 
-0.138844 -0.818672 0.000000 
-0.075741 0.664554 0.000000 
-0.421516 0.721011 0.000000 
0.653777 0.769565 0.000000 
-0.927056 -0.785438 0.000000 
0.847544 -0.251126 0.000000 
-0.874628 -0.049964 0.000000 
0.616050 -0.036696 0.000000 
-0.956437 0.291288 0.000000 