# vtk DataFile Version 3.0 
vtk output 
ASCII 
DATASET UNSTRUCTURED_GRID 
POINTS 616 float 
0.268841 0.473441 0.000000 
0.164199 0.133914 0.000000 
0.473034 0.311575 0.000000 
0.099739 0.340069 0.000000 
0.378589 0.118055 0.000000 
0.324369 0.466605 0.000000 
0.164143 0.432358 0.000000 
0.268974 0.092895 0.000000 
0.422707 0.412789 0.000000 
0.099075 0.226700 0.000000 
0.455052 0.200521 0.000000 
0.213299 0.462097 0.000000 
0.214524 0.107544 0.000000 
0.454926 0.366133 0.000000 
0.092368 0.283187 0.000000 
0.423666 0.152403 0.000000 
0.125516 0.390647 0.000000 
0.325689 0.097241 0.000000 
0.379608 0.449805 0.000000 
0.124194 0.174473 0.000000 
0.471790 0.254884 0.000000 
0.240635 0.469199 0.000000 
0.186902 0.116877 0.000000 
0.463050 0.338603 0.000000 
0.096776 0.311085 0.000000 
0.402137 0.134137 0.000000 
0.296982 0.474650 0.000000 
0.141815 0.413930 0.000000 
0.297372 0.091213 0.000000 
0.401995 0.432290 0.000000 
0.111198 0.200394 0.000000 
0.467186 0.226817 0.000000 
0.189184 0.446376 0.000000 
0.240774 0.097109 0.000000 
0.441927 0.391963 0.000000 
0.094479 0.254750 0.000000 
0.438571 0.177036 0.000000 
0.111269 0.365948 0.000000 
0.353797 0.104154 0.000000 
0.352846 0.460830 0.000000 
0.143268 0.153341 0.000000 
0.473911 0.283336 0.000000 
0.255972 0.463151 0.000000 
0.258610 0.445685 0.000000 
0.245763 0.435464 0.000000 
0.273906 0.439702 0.000000 
0.231855 0.442132 0.000000 
0.229366 0.458401 0.000000 
0.217302 0.433786 0.000000 
0.205537 0.446418 0.000000 
0.247287 0.418426 0.000000 
0.277479 0.422974 0.000000 
0.285147 0.450124 0.000000 
0.301119 0.446228 0.000000 
0.282721 0.466397 0.000000 
0.308637 0.461761 0.000000 
0.233305 0.408306 0.000000 
0.263708 0.411920 0.000000 
0.292196 0.418850 0.000000 
0.125549 0.374166 0.000000 
0.140844 0.365333 0.000000 
0.140827 0.348906 0.000000 
0.155054 0.373566 0.000000 
0.126895 0.342109 0.000000 
0.112633 0.350318 0.000000 
0.124072 0.325106 0.000000 
0.106876 0.323799 0.000000 
0.155091 0.339461 0.000000 
0.170358 0.365924 0.000000 
0.153650 0.389378 0.000000 
0.165370 0.402024 0.000000 
0.139415 0.397627 0.000000 
0.157883 0.417578 0.000000 
0.154282 0.322203 0.000000 
0.170412 0.348247 0.000000 
0.182944 0.377650 0.000000 
0.182074 0.431518 0.000000 
0.189802 0.412651 0.000000 
0.406721 0.416472 0.000000 
0.394669 0.403503 0.000000 
0.378697 0.407220 0.000000 
0.399531 0.387844 0.000000 
0.375444 0.422786 0.000000 
0.386670 0.434888 0.000000 
0.360564 0.431436 0.000000 
0.363168 0.448542 0.000000 
0.366327 0.395421 0.000000 
0.388714 0.374658 0.000000 
0.415280 0.385764 0.000000 
0.425029 0.371592 0.000000 
0.426528 0.397858 0.000000 
0.441881 0.375486 0.000000 
0.349726 0.400072 0.000000 
0.371500 0.378540 0.000000 
0.397359 0.359793 0.000000 
0.103947 0.296250 0.000000 
0.134684 0.295955 0.000000 
0.159349 0.149682 0.000000 
0.171355 0.162628 0.000000 
0.187370 0.158936 0.000000 
0.166479 0.178329 0.000000 
0.190916 0.143832 0.000000 
0.179753 0.131749 0.000000 
0.206874 0.137290 0.000000 
0.204351 0.120215 0.000000 
0.199731 0.170743 0.000000 
0.177323 0.191546 0.000000 
0.150757 0.180499 0.000000 
0.141035 0.194759 0.000000 
0.139550 0.168458 0.000000 
0.124215 0.190963 0.000000 
0.216380 0.166136 0.000000 
0.194556 0.187651 0.000000 
0.171460 0.207807 0.000000 
0.385706 0.132928 0.000000 
0.375747 0.147517 0.000000 
0.382883 0.162319 0.000000 
0.359369 0.146252 0.000000 
0.398308 0.162363 0.000000 
0.407600 0.148768 0.000000 
0.407796 0.176206 0.000000 
0.423863 0.169914 0.000000 
0.374108 0.177003 0.000000 
0.348876 0.159763 0.000000 
0.353784 0.131398 0.000000 
0.337748 0.125085 0.000000 
0.363044 0.117793 0.000000 
0.337741 0.107834 0.000000 
0.382317 0.192211 0.000000 
0.356479 0.175714 0.000000 
0.331731 0.157646 0.000000 
0.464611 0.269722 0.000000 
0.446994 0.271030 0.000000 
0.439878 0.285825 0.000000 
0.437763 0.257446 0.000000 
0.449460 0.297903 0.000000 
0.465875 0.296717 0.000000 
0.444538 0.313949 0.000000 
0.459461 0.322632 0.000000 
0.422924 0.288120 0.000000 
0.420657 0.257678 0.000000 
0.445887 0.243816 0.000000 
0.440815 0.227345 0.000000 
0.462297 0.242562 0.000000 
0.454292 0.216564 0.000000 
0.416152 0.303994 0.000000 
0.412934 0.273555 0.000000 
0.414406 0.241669 0.000000 
0.438542 0.193518 0.000000 
0.423408 0.207185 0.000000 
0.230583 0.111266 0.000000 
0.239064 0.142361 0.000000 
0.310222 0.101529 0.000000 
0.302693 0.117049 0.000000 
0.101670 0.269583 0.000000 
0.117843 0.272011 0.000000 
0.127066 0.258423 0.000000 
0.120110 0.288713 0.000000 
0.120378 0.243673 0.000000 
0.103971 0.242433 0.000000 
0.125444 0.227196 0.000000 
0.111964 0.216432 0.000000 
0.144167 0.258648 0.000000 
0.155270 0.241500 0.000000 
0.149519 0.279475 0.000000 
0.256100 0.103180 0.000000 
0.258708 0.120652 0.000000 
0.273997 0.126659 0.000000 
0.242912 0.126541 0.000000 
0.285503 0.115734 0.000000 
0.283099 0.099455 0.000000 
0.308945 0.133868 0.000000 
0.275979 0.145109 0.000000 
0.293738 0.151003 0.000000 
0.256842 0.154923 0.000000 
0.450125 0.348821 0.000000 
0.429996 0.345435 0.000000 
0.335546 0.454508 0.000000 
0.332541 0.431324 0.000000 
0.217228 0.416998 0.000000 
0.347228 0.420532 0.000000 
0.400586 0.191381 0.000000 
0.137194 0.314645 0.000000 
0.219976 0.147786 0.000000 
0.428177 0.317738 0.000000 
0.295625 0.401894 0.000000 
0.386276 0.346557 0.000000 
0.321255 0.171419 0.000000 
0.198341 0.369754 0.000000 
0.182584 0.221062 0.000000 
0.397103 0.242087 0.000000 
0.235020 0.391075 0.000000 
0.337361 0.388013 0.000000 
0.373283 0.206963 0.000000 
0.168808 0.312795 0.000000 
0.228759 0.178233 0.000000 
0.398975 0.306127 0.000000 
0.304593 0.431683 0.000000 
0.417941 0.358846 0.000000 
0.326189 0.137823 0.000000 
0.179361 0.397940 0.000000 
0.150900 0.208846 0.000000 
0.426440 0.224966 0.000000 
0.284270 0.389007 0.000000 
0.199631 0.218025 0.000000 
0.377272 0.224313 0.000000 
0.363095 0.237071 0.000000 
0.363107 0.253386 0.000000 
0.348958 0.228872 0.000000 
0.381531 0.257533 0.000000 
0.348899 0.262881 0.000000 
0.333599 0.236374 0.000000 
0.354604 0.210886 0.000000 
0.349788 0.280113 0.000000 
0.333527 0.254068 0.000000 
0.319109 0.226957 0.000000 
0.365599 0.292101 0.000000 
0.335290 0.289568 0.000000 
0.303645 0.234735 0.000000 
0.316647 0.207287 0.000000 
0.267067 0.394916 0.000000 
0.288630 0.372354 0.000000 
0.205741 0.200885 0.000000 
0.319831 0.281727 0.000000 
0.273928 0.362436 0.000000 
0.306538 0.371819 0.000000 
0.319585 0.388068 0.000000 
0.305311 0.291174 0.000000 
0.318958 0.263460 0.000000 
0.254861 0.368363 0.000000 
0.306252 0.308471 0.000000 
0.289863 0.283337 0.000000 
0.321711 0.316316 0.000000 
0.291756 0.317942 0.000000 
0.275363 0.292802 0.000000 
0.288993 0.263978 0.000000 
0.336226 0.306857 0.000000 
0.292804 0.336413 0.000000 
0.276309 0.310105 0.000000 
0.261818 0.319578 0.000000 
0.260384 0.336729 0.000000 
0.275925 0.345728 0.000000 
0.239858 0.347405 0.000000 
0.246373 0.311740 0.000000 
0.227901 0.321197 0.000000 
0.245423 0.294433 0.000000 
0.222820 0.339712 0.000000 
0.202291 0.349351 0.000000 
0.206576 0.312638 0.000000 
0.229982 0.286599 0.000000 
0.259920 0.284966 0.000000 
0.209603 0.295344 0.000000 
0.229033 0.269298 0.000000 
0.258978 0.267671 0.000000 
0.212116 0.255024 0.000000 
0.243533 0.259835 0.000000 
0.242587 0.242537 0.000000 
0.228805 0.230751 0.000000 
0.233151 0.210199 0.000000 
0.257091 0.233078 0.000000 
0.251456 0.213067 0.000000 
0.272606 0.238847 0.000000 
0.288129 0.227873 0.000000 
0.327925 0.192666 0.000000 
0.223894 0.377158 0.000000 
0.236332 0.362330 0.000000 
0.250133 0.172445 0.000000 
0.366471 0.348207 0.000000 
0.360336 0.365331 0.000000 
0.352999 0.335777 0.000000 
0.335409 0.341271 0.000000 
0.331351 0.358528 0.000000 
0.312863 0.360137 0.000000 
0.306930 0.343418 0.000000 
0.321335 0.332787 0.000000 
0.166562 0.288760 0.000000 
0.387857 0.320035 0.000000 
0.368313 0.312533 0.000000 
0.273548 0.256142 0.000000 
0.313036 0.401495 0.000000 
0.318835 0.421833 0.000000 
0.174058 0.238802 0.000000 
0.212832 0.233775 0.000000 
0.303567 0.253544 0.000000 
0.300507 0.168732 0.000000 
0.252366 0.384194 0.000000 
0.223291 0.196083 0.000000 
0.396881 0.332711 0.000000 
0.420024 0.332559 0.000000 
0.392854 0.225175 0.000000 
0.407132 0.206987 0.000000 
0.186154 0.321373 0.000000 
0.209511 0.383166 0.000000 
0.204565 0.405780 0.000000 
0.342806 0.370158 0.000000 
0.383931 0.289699 0.000000 
0.353442 0.317836 0.000000 
0.346002 0.194844 0.000000 
0.186949 0.339567 0.000000 
0.391117 0.273000 0.000000 
0.299172 0.199694 0.000000 
0.286118 0.212505 0.000000 
0.289713 0.182395 0.000000 
0.264960 0.203469 0.000000 
0.143235 0.224798 0.000000 
0.266498 0.184107 0.000000 
0.197202 0.272148 0.000000 
0.179996 0.265234 0.000000 
0.702510 0.907059 0.000000 
0.597993 0.567676 0.000000 
0.906816 0.745061 0.000000 
0.533438 0.773574 0.000000 
0.812304 0.551611 0.000000 
0.758021 0.900268 0.000000 
0.597853 0.865861 0.000000 
0.702638 0.526626 0.000000 
0.856720 0.846653 0.000000 
0.532873 0.660160 0.000000 
0.888753 0.634062 0.000000 
0.646989 0.895635 0.000000 
0.648191 0.541259 0.000000 
0.888787 0.799612 0.000000 
0.526094 0.716654 0.000000 
0.857376 0.585928 0.000000 
0.559195 0.824158 0.000000 
0.759362 0.530853 0.000000 
0.813299 0.883507 0.000000 
0.558032 0.608058 0.000000 
0.905510 0.688395 0.000000 
0.674312 0.902768 0.000000 
0.620602 0.550592 0.000000 
0.896860 0.772069 0.000000 
0.530473 0.744570 0.000000 
0.835855 0.567664 0.000000 
0.730654 0.908322 0.000000 
0.575511 0.847436 0.000000 
0.731022 0.524864 0.000000 
0.835794 0.866068 0.000000 
0.545051 0.633894 0.000000 
0.900896 0.660348 0.000000 
0.622883 0.879891 0.000000 
0.674420 0.530817 0.000000 
0.875790 0.825529 0.000000 
0.528244 0.688224 0.000000 
0.872270 0.610568 0.000000 
0.544967 0.799463 0.000000 
0.787497 0.537739 0.000000 
0.786496 0.894503 0.000000 
0.577274 0.587206 0.000000 
0.907651 0.716829 0.000000 
0.689649 0.896739 0.000000 
0.692305 0.879275 0.000000 
0.679466 0.869038 0.000000 
[...]
POINT_DATA 616 
VECTORS X_GC float 
0.268841 0.473441 0.000000 
0.164199 0.133914 0.000000 
0.473034 0.311575 0.000000 
0.099739 0.340069 0.000000 
0.378589 0.118055 0.000000 
0.324369 0.466605 0.000000 
0.164143 0.432358 0.000000 
0.268974 0.092895 0.000000 
0.422707 0.412789 0.000000 
0.099075 0.226700 0.000000 
0.455052 0.200521 0.000000 
0.213299 0.462097 0.000000 
0.214524 0.107544 0.000000 
0.454926 0.366133 0.000000 
0.092368 0.283187 0.000000 
0.423666 0.152403 0.000000 
0.125516 0.390647 0.000000 
0.325689 0.097241 0.000000 
0.379608 0.449805 0.000000 
0.124194 0.174473 0.000000 
0.471790 0.254884 0.000000 
0.240635 0.469199 0.000000 
0.186902 0.116877 0.000000 
0.463050 0.338603 0.000000 
0.096776 0.311085 0.000000 
0.402137 0.134137 0.000000 
0.296982 0.474650 0.000000 
0.141815 0.413930 0.000000 
0.297372 0.091213 0.000000 
0.401995 0.432290 0.000000 
0.111198 0.200394 0.000000 
0.467186 0.226817 0.000000 
0.189184 0.446376 0.000000 
0.240774 0.097109 0.000000 
0.441927 0.391963 0.000000 
0.094479 0.254750 0.000000 
0.438571 0.177036 0.000000 
0.111269 0.365948 0.000000 
0.353797 0.104154 0.000000 
0.352846 0.460830 0.000000 
0.143268 0.153341 0.000000 
0.473911 0.283336 0.000000 
0.255972 0.463151 0.000000 
0.258610 0.445685 0.000000 
0.245763 0.435464 0.000000 
0.273906 0.439702 0.000000 
0.231855 0.442132 0.000000 
0.229366 0.458401 0.000000 
0.217302 0.433786 0.000000 
0.205537 0.446418 0.000000 
0.247287 0.418426 0.000000 
0.277479 0.422974 0.000000 
0.285147 0.450124 0.000000 
0.301119 0.446228 0.000000 
0.282721 0.466397 0.000000 
0.308637 0.461761 0.000000 
0.233305 0.408306 0.000000 
0.263708 0.411920 0.000000 
0.292196 0.418850 0.000000 
0.125549 0.374166 0.000000 
0.140844 0.365333 0.000000 
0.140827 0.348906 0.000000 
0.155054 0.373566 0.000000 
0.126895 0.342109 0.000000 
0.112633 0.350318 0.000000 
0.124072 0.325106 0.000000 
0.106876 0.323799 0.000000 
0.155091 0.339461 0.000000 
0.170358 0.365924 0.000000 
0.153650 0.389378 0.000000 
0.165370 0.402024 0.000000 
0.139415 0.397627 0.000000 
0.157883 0.417578 0.000000 
0.154282 0.322203 0.000000 
0.170412 0.348247 0.000000 
0.182944 0.377650 0.000000 
0.182074 0.431518 0.000000 
0.189802 0.412651 0.000000 
0.406721 0.416472 0.000000 
0.394669 0.403503 0.000000 
0.378697 0.407220 0.000000 
0.399531 0.387844 0.000000 
0.375444 0.422786 0.000000 
0.386670 0.434888 0.000000 
0.360564 0.431436 0.000000 
0.363168 0.448542 0.000000 
0.366327 0.395421 0.000000 
0.388714 0.374658 0.000000 
0.415280 0.385764 0.000000 
0.425029 0.371592 0.000000 
0.426528 0.397858 0.000000 
0.441881 0.375486 0.000000 
0.349726 0.400072 0.000000 
0.371500 0.378540 0.000000 
0.397359 0.359793 0.000000 
0.103947 0.296250 0.000000 
0.134684 0.295955 0.000000 
0.159349 0.149682 0.000000 
0.171355 0.162628 0.000000 
0.187370 0.158936 0.000000 
0.166479 0.178329 0.000000 
0.190916 0.143832 0.000000 
0.179753 0.131749 0.000000 
0.206874 0.137290 0.000000 
0.204351 0.120215 0.000000 
0.199731 0.170743 0.000000 
0.177323 0.191546 0.000000 
0.150757 0.180499 0.000000 
0.141035 0.194759 0.000000 
0.139550 0.168458 0.000000 
0.124215 0.190963 0.000000 
0.216380 0.166136 0.000000 
0.194556 0.187651 0.000000 
0.171460 0.207807 0.000000 
0.385706 0.132928 0.000000 
0.375747 0.147517 0.000000 
0.382883 0.162319 0.000000 
0.359369 0.146252 0.000000 
0.398308 0.162363 0.000000 
0.407600 0.148768 0.000000 
0.407796 0.176206 0.000000 
0.423863 0.169914 0.000000 
0.374108 0.177003 0.000000 
0.348876 0.159763 0.000000 
0.353784 0.131398 0.000000 
0.337748 0.125085 0.000000 
0.363044 0.117793 0.000000 
0.337741 0.107834 0.000000 
0.382317 0.192211 0.000000 
0.356479 0.175714 0.000000 
0.331731 0.157646 0.000000 
0.464611 0.269722 0.000000 
0.446994 0.271030 0.000000 
0.439878 0.285825 0.000000 
0.437763 0.257446 0.000000 
0.449460 0.297903 0.000000 
0.465875 0.296717 0.000000 
0.444538 0.313949 0.000000 
0.459461 0.322632 0.000000 
0.422924 0.288120 0.000000 
0.420657 0.257678 0.000000 
0.445887 0.243816 0.000000 
0.440815 0.227345 0.000000 
0.462297 0.242562 0.000000 
0.454292 0.216564 0.000000 
0.416152 0.303994 0.000000 
0.412934 0.273555 0.000000 
0.414406 0.241669 0.000000 
0.438542 0.193518 0.000000 
0.423408 0.207185 0.000000 
0.230583 0.111266 0.000000 
0.239064 0.142361 0.000000 
0.310222 0.101529 0.000000 
0.302693 0.117049 0.000000 
0.101670 0.269583 0.000000 
0.117843 0.272011 0.000000 
0.127066 0.258423 0.000000 
0.120110 0.288713 0.000000 
0.120378 0.243673 0.000000 
0.103971 0.242433 0.000000 
0.125444 0.227196 0.000000 
0.111964 0.216432 0.000000 
0.144167 0.258648 0.000000 
0.155270 0.241500 0.000000 
0.149519 0.279475 0.000000 
0.256100 0.103180 0.000000 
0.258708 0.120652 0.000000 
0.273997 0.126659 0.000000 
0.242912 0.126541 0.000000 
0.285503 0.115734 0.000000 
0.283099 0.099455 0.000000 
0.308945 0.133868 0.000000 
0.275979 0.145109 0.000000 
0.293738 0.151003 0.000000 
0.256842 0.154923 0.000000 
0.450125 0.348821 0.000000 
0.429996 0.345435 0.000000 
0.335546 0.454508 0.000000 
0.332541 0.431324 0.000000 
0.217228 0.416998 0.000000 
0.347228 0.420532 0.000000 
0.400586 0.191381 0.000000 
0.137194 0.314645 0.000000 
0.219976 0.147786 0.000000 
0.428177 0.317738 0.000000 
0.295625 0.401894 0.000000 
0.386276 0.346557 0.000000 
0.321255 0.171419 0.000000 
0.198341 0.369754 0.000000 
0.182584 0.221062 0.000000 
0.397103 0.242087 0.000000 
0.235020 0.391075 0.000000 
0.337361 0.388013 0.000000 
0.373283 0.206963 0.000000 
0.168808 0.312795 0.000000 
0.228759 0.178233 0.000000 
0.398975 0.306127 0.000000 
0.304593 0.431683 0.000000 
0.417941 0.358846 0.000000 
0.326189 0.137823 0.000000 
0.179361 0.397940 0.000000 
0.150900 0.208846 0.000000 
0.426440 0.224966 0.000000 
0.284270 0.389007 0.000000 
0.199631 0.218025 0.000000 
0.377272 0.224313 0.000000 
0.363095 0.237071 0.000000 
0.363107 0.253386 0.000000 
0.348958 0.228872 0.000000 
0.381531 0.257533 0.000000 
0.348899 0.262881 0.000000 
0.333599 0.236374 0.000000 
0.354604 0.210886 0.000000 
0.349788 0.280113 0.000000 
0.333527 0.254068 0.000000 
0.319109 0.226957 0.000000 
0.365599 0.292101 0.000000 
0.335290 0.289568 0.000000 
0.303645 0.234735 0.000000 
0.316647 0.207287 0.000000 
0.267067 0.394916 0.000000 
0.288630 0.372354 0.000000 
0.205741 0.200885 0.000000 
0.319831 0.281727 0.000000 
0.273928 0.362436 0.000000 
0.306538 0.371819 0.000000 
0.319585 0.388068 0.000000 
0.305311 0.291174 0.000000 
0.318958 0.263460 0.000000 
0.254861 0.368363 0.000000 
0.306252 0.308471 0.000000 
0.289863 0.283337 0.000000 
0.321711 0.316316 0.000000 
0.291756 0.317942 0.000000 
0.275363 0.292802 0.000000 
0.288993 0.263978 0.000000 
0.336226 0.306857 0.000000 
0.292804 0.336413 0.000000 
0.276309 0.310105 0.000000 
0.261818 0.319578 0.000000 
0.260384 0.336729 0.000000 
0.275925 0.345728 0.000000 
0.239858 0.347405 0.000000 
0.246373 0.311740 0.000000 
0.227901 0.321197 0.000000 
0.245423 0.294433 0.000000 
0.222820 0.339712 0.000000 
0.202291 0.349351 0.000000 
0.206576 0.312638 0.000000 
0.229982 0.286599 0.000000 
0.259920 0.284966 0.000000 
0.209603 0.295344 0.000000 
0.229033 0.269298 0.000000 
0.258978 0.267671 0.000000 
0.212116 0.255024 0.000000 
0.243533 0.259835 0.000000 
0.242587 0.242537 0.000000 
0.228805 0.230751 0.000000 
0.233151 0.210199 0.000000 
0.257091 0.233078 0.000000 
0.251456 0.213067 0.000000 
0.272606 0.238847 0.000000 
0.288129 0.227873 0.000000 
0.327925 0.192666 0.000000 
0.223894 0.377158 0.000000 
0.236332 0.362330 0.000000 
0.250133 0.172445 0.000000 
0.366471 0.348207 0.000000 
0.360336 0.365331 0.000000 
0.352999 0.335777 0.000000 
0.335409 0.341271 0.000000 
0.331351 0.358528 0.000000 
0.312863 0.360137 0.000000 
0.306930 0.343418 0.000000 
0.321335 0.332787 0.000000 
0.166562 0.288760 0.000000 
0.387857 0.320035 0.000000 
0.368313 0.312533 0.000000 
0.273548 0.256142 0.000000 
0.313036 0.401495 0.000000 
0.318835 0.421833 0.000000 
0.174058 0.238802 0.000000 
0.212832 0.233775 0.000000 
0.303567 0.253544 0.000000 
0.300507 0.168732 0.000000 
0.252366 0.384194 0.000000 
0.223291 0.196083 0.000000 
0.396881 0.332711 0.000000 
0.420024 0.332559 0.000000 
0.392854 0.225175 0.000000 
0.407132 0.206987 0.000000 
0.186154 0.321373 0.000000 
0.209511 0.383166 0.000000 
0.204565 0.405780 0.000000 
0.342806 0.370158 0.000000 
0.383931 0.289699 0.000000 
0.353442 0.317836 0.000000 
0.346002 0.194844 0.000000 
0.186949 0.339567 0.000000 
0.391117 0.273000 0.000000 
0.299172 0.199694 0.000000 
0.286118 0.212505 0.000000 
0.289713 0.182395 0.000000 
0.264960 0.203469 0.000000 
0.143235 0.224798 0.000000 
0.266498 0.184107 0.000000 
0.197202 0.272148 0.000000 
0.179996 0.265234 0.000000 
0.702510 0.907059 0.000000 
0.597993 0.567676 0.000000 
0.906816 0.745061 0.000000 
0.533438 0.773574 0.000000 
0.812304 0.551611 0.000000 
0.758021 0.900268 0.000000 
0.597853 0.865861 0.000000 
0.702638 0.526626 0.000000 
0.856720 0.846653 0.000000 
0.532873 0.660160 0.000000 
0.888753 0.634062 0.000000 
0.646989 0.895635 0.000000 
0.648191 0.541259 0.000000 
0.888787 0.799612 0.000000 
0.526094 0.716654 0.000000 
0.857376 0.585928 0.000000 
0.559195 0.824158 0.000000 
0.759362 0.530853 0.000000 
0.813299 0.883507 0.000000 
0.558032 0.608058 0.000000 
0.905510 0.688395 0.000000 
0.674312 0.902768 0.000000 
0.620602 0.550592 0.000000 
0.896860 0.772069 0.000000 
0.530473 0.744570 0.000000 
0.835855 0.567664 0.000000 
0.730654 0.908322 0.000000 
0.575511 0.847436 0.000000 
0.731022 0.524864 0.000000 
0.835794 0.866068 0.000000 
0.545051 0.633894 0.000000 
0.900896 0.660348 0.000000 
0.622883 0.879891 0.000000 
0.674420 0.530817 0.000000 
0.875790 0.825529 0.000000 
0.528244 0.688224 0.000000 
0.872270 0.610568 0.000000 
0.544967 0.799463 0.000000 
0.787497 0.537739 0.000000 
0.786496 0.894503 0.000000 
0.577274 0.587206 0.000000 
0.907651 0.716829 0.000000 
0.689649 0.896739 0.000000 
0.692305 0.879275 0.000000 
0.679466 0.869038 0.000000 
0.707612 0.873313 0.000000 
0.665551 0.875689 0.000000 
0.663053 0.891957 0.000000 
0.651001 0.867325 0.000000 
0.639231 0.879944 0.000000 
0.681006 0.852001 0.000000 
0.711207 0.856587 0.000000 
0.718842 0.883753 0.000000 
0.734823 0.879881 0.000000 
0.716391 0.900026 0.000000 
0.742313 0.895424 0.000000 
0.667024 0.841861 0.000000 
0.697443 0.845515 0.000000 
0.725938 0.852483 0.000000 
0.559237 0.807677 0.000000 
0.574544 0.798839 0.000000 
0.574533 0.782422 0.000000 
0.588746 0.807064 0.000000 
0.560601 0.775625 0.000000 
0.546333 0.783830 0.000000 
0.557781 0.758623 0.000000 
0.540578 0.757301 0.000000 
0.588805 0.772989 0.000000 
0.604062 0.799426 0.000000 
0.587337 0.822875 0.000000 
0.599052 0.835514 0.000000 
0.573091 0.831131 0.000000 
0.591581 0.851077 0.000000 
0.588006 0.755749 0.000000 
0.604129 0.781775 0.000000 
0.616653 0.811162 0.000000 
0.615770 0.865018 0.000000 
0.623496 0.846157 0.000000 
0.840641 0.850304 0.000000 
0.828633 0.837354 0.000000 
0.812620 0.841036 0.000000 
0.833506 0.821656 0.000000 
0.809280 0.856556 0.000000 
0.820445 0.868641 0.000000 
0.794343 0.865173 0.000000 
0.796869 0.882244 0.000000 
0.800257 0.829225 0.000000 
0.822662 0.808435 0.000000 
0.849228 0.819492 0.000000 
0.858949 0.805237 0.000000 
0.860435 0.831538 0.000000 
0.875769 0.809040 0.000000 
0.783612 0.833835 0.000000 
0.805429 0.812322 0.000000 
0.831289 0.793543 0.000000 
0.537651 0.729736 0.000000 
0.568409 0.729493 0.000000 
0.593256 0.583505 0.000000 
0.605295 0.596469 0.000000 
0.621278 0.592763 0.000000 
0.600430 0.612132 0.000000 
0.624749 0.577617 0.000000 
0.613530 0.565510 0.000000 
0.640664 0.571063 0.000000 
0.638069 0.553956 0.000000 
0.633645 0.604570 0.000000 
0.611251 0.625321 0.000000 
0.584683 0.614231 0.000000 
0.574942 0.628412 0.000000 
0.573431 0.602144 0.000000 
0.558091 0.624533 0.000000 
0.650263 0.599932 0.000000 
0.628474 0.621448 0.000000 
0.605372 0.641551 0.000000 
0.819417 0.566461 0.000000 
0.809453 0.581053 0.000000 
0.816583 0.595835 0.000000 
0.793081 0.579807 0.000000 
0.832002 0.595867 0.000000 
0.841308 0.582286 0.000000 
0.841491 0.609714 0.000000 
0.857557 0.603436 0.000000 
0.807822 0.610534 0.000000 
0.782599 0.593327 0.000000 
0.787493 0.564969 0.000000 
0.771453 0.558679 0.000000 
0.796751 0.551360 0.000000 
0.771433 0.541434 0.000000 
0.816030 0.625738 0.000000 
0.790209 0.609270 0.000000 
0.765465 0.591238 0.000000 
0.898334 0.703223 0.000000 
0.880723 0.704556 0.000000 
0.873622 0.719368 0.000000 
0.871489 0.690984 0.000000 
0.883216 0.731433 0.000000 
0.899626 0.730218 0.000000 
0.878323 0.747488 0.000000 
0.893252 0.756126 0.000000 
0.856675 0.721692 0.000000 
0.854386 0.691235 0.000000 
0.879605 0.677347 0.000000 
0.874527 0.660878 0.000000 
0.896012 0.676084 0.000000 
0.887998 0.650099 0.000000 
0.849924 0.737591 0.000000 
0.846678 0.707135 0.000000 
0.848128 0.675218 0.000000 
0.872241 0.627049 0.000000 
0.857111 0.640706 0.000000 
0.664268 0.544986 0.000000 
0.672843 0.576097 0.000000 
0.743889 0.535157 0.000000 
0.736380 0.550685 0.000000 
0.535411 0.703072 0.000000 
0.551588 0.705531 0.000000 
0.560836 0.691969 0.000000 
0.553833 0.722230 0.000000 
0.554170 0.677207 0.000000 
0.537752 0.675919 0.000000 
0.559271 0.660753 0.000000 
0.545793 0.649939 0.000000 
0.577945 0.692232 0.000000 
0.589095 0.675139 0.000000 
0.583270 0.713053 0.000000 
0.689771 0.536897 0.000000 
0.692419 0.554365 0.000000 
0.707714 0.560352 0.000000 
0.676642 0.560265 0.000000 
0.719192 0.549403 0.000000 
0.716760 0.533135 0.000000 
0.742661 0.567496 0.000000 
0.709732 0.578794 0.000000 
0.727489 0.584655 0.000000 
0.690631 0.588631 0.000000 
0.883966 0.782332 0.000000 
0.863856 0.779032 0.000000 
0.769227 0.888184 0.000000 
0.766295 0.865019 0.000000 
0.650933 0.850534 0.000000 
0.781037 0.854266 0.000000 
0.834282 0.624883 0.000000 
0.570913 0.748179 0.000000 
0.653794 0.581557 0.000000 
0.861977 0.751321 0.000000 
0.729396 0.835526 0.000000 
0.820169 0.780287 0.000000 
0.755016 0.605032 0.000000 
0.632074 0.803293 0.000000 
0.616463 0.654795 0.000000 
0.830831 0.675650 0.000000 
0.668762 0.824644 0.000000 
0.771231 0.821742 0.000000 
0.807018 0.640521 0.000000 
0.602547 0.746371 0.000000 
0.662631 0.611995 0.000000 
0.832758 0.739762 0.000000 
0.738323 0.865336 0.000000 
0.851850 0.792511 0.000000 
0.759906 0.571427 0.000000 
0.613047 0.831433 0.000000 
0.584799 0.642525 0.000000 
0.860151 0.658499 0.000000 
0.718052 0.822636 0.000000 
0.633513 0.651782 0.000000 
0.811013 0.657892 0.000000 
0.796862 0.670695 0.000000 
0.796887 0.687036 0.000000 
0.782738 0.662503 0.000000 
0.815290 0.691159 0.000000 
0.782701 0.696559 0.000000 
0.767404 0.670034 0.000000 
0.788364 0.644483 0.000000 
0.783601 0.713804 0.000000 
0.767344 0.687749 0.000000 
0.752927 0.660628 0.000000 
0.799402 0.725791 0.000000 
0.769123 0.723271 0.000000 
0.737488 0.668432 0.000000 
0.750457 0.640944 0.000000 
0.700830 0.828523 0.000000 
0.722449 0.806007 0.000000 
0.639645 0.634661 0.000000 
0.753679 0.715438 0.000000 
0.707749 0.796087 0.000000 
0.740376 0.805492 0.000000 
0.753419 0.821757 0.000000 
0.739175 0.724894 0.000000 
0.752798 0.697164 0.000000 
0.688660 0.801987 0.000000 
0.740119 0.742190 0.000000 
0.723731 0.717056 0.000000 
0.755567 0.750029 0.000000 
0.725615 0.751647 0.000000 
0.709224 0.726514 0.000000 
0.722855 0.697693 0.000000 
0.770069 0.740567 0.000000 
0.726652 0.770102 0.000000 
0.710166 0.743809 0.000000 
0.695659 0.753266 0.000000 
0.694212 0.770396 0.000000 
0.709756 0.779395 0.000000 
0.673655 0.781034 0.000000 
0.680203 0.745422 0.000000 
0.661703 0.754848 0.000000 
0.679262 0.728130 0.000000 
0.656602 0.773330 0.000000 
0.636043 0.782928 0.000000 
0.640360 0.746281 0.000000 
0.663806 0.720290 0.000000 
0.693776 0.718678 0.000000 
0.643405 0.729015 0.000000 
0.662867 0.702999 0.000000 
0.692837 0.701386 0.000000 
0.645948 0.688731 0.000000 
0.677382 0.693548 0.000000 
0.676443 0.676255 0.000000 
0.662666 0.664479 0.000000 
0.667025 0.643938 0.000000 
0.690950 0.666795 0.000000 
0.685318 0.646790 0.000000 
0.706464 0.672559 0.000000 
0.721978 0.661575 0.000000 
0.761707 0.626288 0.000000 
0.657643 0.810726 0.000000 
0.670114 0.795934 0.000000 
0.683969 0.606169 0.000000 
0.800359 0.781952 0.000000 
0.794246 0.799087 0.000000 
0.786863 0.769501 0.000000 
0.769273 0.774987 0.000000 
0.765222 0.792242 0.000000 
0.746716 0.793827 0.000000 
0.740783 0.777112 0.000000 
0.755193 0.766495 0.000000 
0.600314 0.722359 0.000000 
0.821684 0.753716 0.000000 
0.802139 0.746238 0.000000 
0.707408 0.689857 0.000000 
0.746837 0.835162 0.000000 
0.752601 0.855510 0.000000 
0.607900 0.672490 0.000000 
0.646691 0.667506 0.000000 
0.737420 0.687254 0.000000 
0.734284 0.602376 0.000000 
0.686132 0.817791 0.000000 
0.657182 0.629843 0.000000 
0.830738 0.766406 0.000000 
0.853865 0.766182 0.000000 
0.826578 0.658726 0.000000 
0.840834 0.640500 0.000000 
0.619909 0.754973 0.000000 
0.643237 0.816705 0.000000 
0.638265 0.839297 0.000000 
0.776697 0.803891 0.000000 
0.817710 0.723352 0.000000 
0.787284 0.751548 0.000000 
0.779765 0.628436 0.000000 
0.620693 0.773139 0.000000 
0.824878 0.706624 0.000000 
0.733003 0.633377 0.000000 
0.719963 0.646203 0.000000 
0.723518 0.616065 0.000000 
0.698814 0.637182 0.000000 
0.577088 0.658423 0.000000 
0.700331 0.617811 0.000000 
0.631008 0.705833 0.000000 
0.613786 0.698886 0.000000 
VECTORS X_EC float 
-0.468816 0.376822 0.000000 
0.321714 0.283975 0.000000 
0.768498 0.460677 0.000000 
0.198628 0.994786 0.000000 
0.638891 0.571776 0.000000 
-0.332103 -0.512616 0.000000 
0.352835 0.282863 0.000000 
-0.857909 0.379473 0.000000 
0.744215 -0.545860 0.000000 
0.466007 0.981502 0.000000 
0.989576 0.101034 0.000000 
-0.241941 -0.734015 0.000000 
0.849129 -0.709517 0.000000 
-0.322669 0.098519 0.000000 
-0.663730 0.847369 0.000000 
-0.048066 -0.526689 0.000000 
-0.812935 -0.489676 0.000000 
-0.944821 -0.486222 0.000000 
0.003898 0.592161 0.000000 
-0.489465 -0.516117 0.000000 
-0.097684 0.435807 0.000000 
-0.383976 -0.187298 0.000000 
0.662468 0.738032 0.000000 
0.227943 0.261000 0.000000 
0.778302 0.935515 0.000000 
0.317253 -0.957256 0.000000 
-0.492996 0.939635 0.000000 
0.721405 -0.163697 0.000000 
-0.824255 0.947450 0.000000 
0.354196 -0.960095 0.000000 
0.992119 -0.776038 0.000000 
0.463660 0.343723 0.000000 
0.072485 0.783685 0.000000 
-0.942183 -0.184526 0.000000 
-0.839251 -0.161455 0.000000 
-0.094993 0.889572 0.000000 
-0.540717 -0.228589 0.000000 
-0.318961 -0.774619 0.000000 
0.916920 0.075947 0.000000 
-0.216609 0.056920 0.000000 
-0.066815 -0.134643 0.000000 
-0.666727 0.478227 0.000000 
-0.263020 0.119442 0.000000 
0.086293 0.172209 0.000000 
0.290712 -0.084746 0.000000 
0.205967 0.478120 0.000000 
0.157361 -0.362910 0.000000 
-0.168012 -0.412686 0.000000 
0.324274 -0.653962 0.000000 
0.071649 -0.889262 0.000000 
0.631472 -0.054254 0.000000 
0.540530 0.549584 0.000000 
-0.002480 0.702931 0.000000 
0.075448 -0.977628 0.000000 
-0.327950 0.654423 0.000000 
-0.235218 -0.827260 0.000000 
0.833884 -0.333896 0.000000 
0.761592 0.274166 0.000000 
0.622999 0.843912 0.000000 
-0.483328 -0.489028 0.000000 
-0.306668 -0.183110 0.000000 
0.021883 -0.183464 0.000000 
-0.471311 0.101074 0.000000 
0.157815 -0.462092 0.000000 
-0.006364 -0.747332 0.000000 
0.497880 -0.518570 0.000000 
0.524027 -0.862476 0.000000 
0.210782 0.101818 0.000000 
-0.318483 0.407150 0.000000 
-0.787558 0.073009 0.000000 
0.959513 0.307394 0.000000 
-0.952550 -0.211703 0.000000 
0.648446 0.157664 0.000000 
0.555949 0.085643 0.000000 
0.035068 0.408244 0.000000 
-0.552996 0.658874 0.000000 
0.369643 0.641472 0.000000 
0.746979 0.796036 0.000000 
0.670555 -0.865571 0.000000 
0.929949 0.893373 0.000000 
0.855594 0.573936 0.000000 
-0.756879 0.990630 0.000000 
0.544285 0.508887 0.000000 
0.302233 0.733409 0.000000 
0.371289 0.211281 0.000000 
0.029167 0.263369 0.000000 
-0.908418 0.326545 0.000000 
-0.493164 0.774283 0.000000 
-0.715282 -0.694395 0.000000 
-0.431830 -0.499428 0.000000 
-0.957164 -0.469445 0.000000 
-0.509728 -0.162388 0.000000 
0.998568 -0.005489 0.000000 