# vtk DataFile Version 3.0 
vtk output 
ASCII 
DATASET UNSTRUCTURED_GRID 
POINTS 616 float 
0.250743 0.455247 0.000000 
0.146050 0.115842 0.000000 
0.454931 0.293227 0.000000 
0.081575 0.321893 0.000000 
0.360390 0.099779 0.000000 
0.306239 0.448394 0.000000 
0.146050 0.414158 0.000000 
0.250743 0.074753 0.000000 
0.404852 0.394764 0.000000 
0.080966 0.208514 0.000000 
0.436887 0.182223 0.000000 
0.195217 0.443888 0.000000 
0.196321 0.089487 0.000000 
0.436887 0.347777 0.000000 
0.074219 0.265000 0.000000 
0.405489 0.134105 0.000000 
0.107370 0.372470 0.000000 
0.307453 0.079003 0.000000 
0.361487 0.431582 0.000000 
0.106094 0.156334 0.000000 
0.453650 0.236566 0.000000 
0.222547 0.450997 0.000000 
0.168717 0.098834 0.000000 
0.444973 0.320241 0.000000 
0.078605 0.292902 0.000000 
0.383950 0.115842 0.000000 
0.278875 0.456469 0.000000 
0.123699 0.395741 0.000000 
0.279118 0.073011 0.000000 
0.383950 0.414158 0.000000 
0.093113 0.182223 0.000000 
0.449034 0.208514 0.000000 
0.171096 0.428168 0.000000 
0.222547 0.079003 0.000000 
0.423906 0.373666 0.000000 
0.076350 0.236566 0.000000 
0.420400 0.158734 0.000000 
0.093113 0.347777 0.000000 
0.335581 0.085898 0.000000 
0.334700 0.442593 0.000000 
0.125148 0.135236 0.000000 
0.455781 0.265000 0.000000 
0.237877 0.444951 0.000000 
0.240510 0.427479 0.000000 
0.227660 0.417254 0.000000 
0.255803 0.421495 0.000000 
0.213756 0.423921 0.000000 
0.211276 0.440194 0.000000 
0.199198 0.415572 0.000000 
0.187444 0.428204 0.000000 
0.229178 0.400210 0.000000 
0.259376 0.404762 0.000000 
0.267045 0.431925 0.000000 
0.283019 0.428033 0.000000 
0.264618 0.448205 0.000000 
0.290528 0.443569 0.000000 
0.215189 0.390086 0.000000 
0.245601 0.393703 0.000000 
0.274098 0.400641 0.000000 
0.107398 0.355992 0.000000 
0.122699 0.347157 0.000000 
0.122682 0.330735 0.000000 
0.136913 0.355383 0.000000 
0.108744 0.323938 0.000000 
0.094476 0.332146 0.000000 
0.105919 0.306936 0.000000 
0.088714 0.305622 0.000000 
0.136954 0.321296 0.000000 
0.152223 0.347743 0.000000 
0.135512 0.371189 0.000000 
0.147235 0.383824 0.000000 
0.121271 0.379442 0.000000 
0.139771 0.399381 0.000000 
0.136147 0.304046 0.000000 
0.152281 0.330078 0.000000 
0.164812 0.359456 0.000000 
0.163972 0.413309 0.000000 
0.171681 0.394439 0.000000 
0.388780 0.398403 0.000000 
0.376762 0.385451 0.000000 
0.360756 0.389122 0.000000 
0.381619 0.369763 0.000000 
0.357435 0.404639 0.000000 
0.368611 0.416723 0.000000 
0.342509 0.413256 0.000000 
0.345056 0.430323 0.000000 
0.348377 0.377309 0.000000 
0.370764 0.356537 0.000000 
0.397341 0.367612 0.000000 
0.407050 0.353371 0.000000 
0.408556 0.379660 0.000000 
0.423878 0.357187 0.000000 
0.331739 0.381934 0.000000 
0.353529 0.360411 0.000000 
0.379382 0.341658 0.000000 
0.085780 0.278067 0.000000 
0.116539 0.277794 0.000000 
0.141220 0.131597 0.000000 
0.153238 0.144549 0.000000 
0.169244 0.140878 0.000000 
0.148381 0.160237 0.000000 
0.172769 0.125777 0.000000 
0.161593 0.113693 0.000000 
0.188716 0.119239 0.000000 
0.186169 0.102173 0.000000 
0.181623 0.152691 0.000000 
0.159236 0.173463 0.000000 
0.132659 0.162388 0.000000 
0.122950 0.176629 0.000000 
0.121444 0.150340 0.000000 
0.106122 0.172813 0.000000 
0.198261 0.148066 0.000000 
0.176471 0.169589 0.000000 
0.153380 0.189709 0.000000 
0.367515 0.114638 0.000000 
0.357562 0.129237 0.000000 
0.364702 0.144025 0.000000 
0.341187 0.127993 0.000000 
0.380123 0.144051 0.000000 
0.389417 0.130466 0.000000 
0.389616 0.157889 0.000000 
0.405687 0.151608 0.000000 
0.355940 0.158722 0.000000 
0.330707 0.141519 0.000000 
0.335590 0.113144 0.000000 
0.319547 0.106847 0.000000 
0.344841 0.099529 0.000000 
0.319522 0.089592 0.000000 
0.364152 0.173914 0.000000 
0.338320 0.157460 0.000000 
0.313566 0.139425 0.000000 
0.446474 0.251400 0.000000 
0.428855 0.252721 0.000000 
0.421745 0.267524 0.000000 
0.419618 0.239142 0.000000 
0.431340 0.279596 0.000000 
0.447756 0.278393 0.000000 
0.426439 0.295646 0.000000 
0.441370 0.304295 0.000000 
0.404791 0.269836 0.000000 
0.402509 0.239383 0.000000 
0.427738 0.225509 0.000000 
0.422658 0.209040 0.000000 
0.444150 0.224253 0.000000 
0.436133 0.198262 0.000000 
0.398034 0.285728 0.000000 
0.394792 0.255273 0.000000 
0.396250 0.223368 0.000000 
0.420372 0.175213 0.000000 
0.405239 0.188869 0.000000 
0.212380 0.093181 0.000000 
0.220905 0.124262 0.000000 
0.291984 0.083307 0.000000 
0.284475 0.098843 0.000000 
0.083526 0.251400 0.000000 
0.099705 0.253843 0.000000 
0.108942 0.240264 0.000000 
0.101960 0.270545 0.000000 
0.102262 0.225509 0.000000 
0.085850 0.224253 0.000000 
0.107342 0.209040 0.000000 
0.093867 0.198262 0.000000 
0.126051 0.240505 0.000000 
0.137169 0.223372 0.000000 
0.131393 0.261332 0.000000 
0.237877 0.085049 0.000000 
0.240510 0.102521 0.000000 
0.255803 0.108505 0.000000 
0.224728 0.108435 0.000000 
0.267288 0.097555 0.000000 
0.264861 0.081274 0.000000 
0.290753 0.115665 0.000000 
0.257813 0.126958 0.000000 
0.275576 0.132831 0.000000 
0.238696 0.136801 0.000000 
0.432072 0.330493 0.000000 
0.411959 0.327176 0.000000 
0.317427 0.436295 0.000000 
0.314466 0.413134 0.000000 
0.199113 0.398780 0.000000 
0.329192 0.402365 0.000000 
0.382407 0.173055 0.000000 
0.119049 0.296483 0.000000 
0.201829 0.129714 0.000000 
0.410087 0.299466 0.000000 
0.277534 0.383677 0.000000 
0.368261 0.328396 0.000000 
0.303111 0.153218 0.000000 
0.180216 0.351566 0.000000 
0.164501 0.202971 0.000000 
0.378947 0.223794 0.000000 
0.216906 0.372864 0.000000 
0.319345 0.369854 0.000000 
0.355132 0.188685 0.000000 
0.150682 0.294651 0.000000 
0.210655 0.160146 0.000000 
0.380862 0.287886 0.000000 
0.286499 0.413483 0.000000 
0.399946 0.340644 0.000000 
0.308001 0.119602 0.000000 
0.161224 0.379731 0.000000 
0.132816 0.190723 0.000000 
0.408279 0.206658 0.000000 
0.266174 0.370796 0.000000 
0.181553 0.199955 0.000000 
0.359125 0.206041 0.000000 
0.344967 0.218831 0.000000 
0.344988 0.235157 0.000000 
0.330839 0.210650 0.000000 
0.363397 0.239283 0.000000 
0.330796 0.244679 0.000000 
0.315497 0.218180 0.000000 
0.336470 0.192644 0.000000 
0.331693 0.261919 0.000000 
0.315433 0.235882 0.000000 
0.301015 0.208783 0.000000 
0.347496 0.273894 0.000000 
0.317211 0.271394 0.000000 
0.285568 0.216587 0.000000 
0.298545 0.189110 0.000000 
0.248964 0.376700 0.000000 
0.270547 0.354160 0.000000 
0.187668 0.182818 0.000000 
0.301762 0.263570 0.000000 
0.255842 0.344250 0.000000 
0.288472 0.353629 0.000000 
0.301536 0.369885 0.000000 
0.287257 0.273036 0.000000 
0.300882 0.245299 0.000000 
0.236764 0.350172 0.000000 
0.288203 0.290330 0.000000 
0.271807 0.265208 0.000000 
0.303654 0.298158 0.000000 
0.273699 0.299797 0.000000 
0.257302 0.274674 0.000000 
0.270928 0.245844 0.000000 
0.318157 0.288687 0.000000 
0.274740 0.318251 0.000000 
0.258248 0.291969 0.000000 
0.243744 0.301435 0.000000 
0.242302 0.318569 0.000000 
0.257847 0.327557 0.000000 
0.221761 0.329237 0.000000 
0.228293 0.293607 0.000000 
0.209807 0.303058 0.000000 
0.227347 0.276313 0.000000 
0.204717 0.321553 0.000000 
0.184174 0.331184 0.000000 
0.188473 0.294510 0.000000 
0.211896 0.268485 0.000000 
0.241852 0.266846 0.000000 
0.191508 0.277232 0.000000 
0.210950 0.251190 0.000000 
0.240906 0.249551 0.000000 
0.194030 0.236929 0.000000 
0.225455 0.241723 0.000000 
0.224509 0.224429 0.000000 
0.210725 0.212655 0.000000 
0.215073 0.192105 0.000000 
0.239013 0.214962 0.000000 
0.233376 0.194959 0.000000 
0.254531 0.220721 0.000000 
0.270051 0.209736 0.000000 
0.309803 0.174462 0.000000 
0.205778 0.358959 0.000000 
0.218228 0.344146 0.000000 
0.232015 0.154334 0.000000 
0.348447 0.330045 0.000000 
0.342332 0.347182 0.000000 
0.334952 0.317606 0.000000 
0.317362 0.323104 0.000000 
0.313311 0.340360 0.000000 
0.294805 0.341960 0.000000 
0.288871 0.325250 0.000000 
0.303281 0.314624 0.000000 
0.148440 0.270626 0.000000 
0.369782 0.301830 0.000000 
0.350231 0.294337 0.000000 
0.255477 0.238016 0.000000 
0.294971 0.383296 0.000000 
0.300761 0.403640 0.000000 
0.155965 0.220695 0.000000 
0.194751 0.215688 0.000000 
0.285498 0.235401 0.000000 
0.282369 0.150561 0.000000 
0.234258 0.365986 0.000000 
0.205214 0.178002 0.000000 
0.378836 0.314525 0.000000 
0.401969 0.314320 0.000000 
0.374696 0.206878 0.000000 
0.388958 0.188664 0.000000 
0.168036 0.303232 0.000000 
0.191386 0.364961 0.000000 
0.186439 0.387560 0.000000 
0.324786 0.351998 0.000000 
0.365809 0.271469 0.000000 
0.335374 0.299655 0.000000 
0.327870 0.176610 0.000000 
0.168828 0.321410 0.000000 
0.372983 0.254748 0.000000 
0.281082 0.181546 0.000000 
0.268035 0.194368 0.000000 
0.271597 0.164242 0.000000 
0.246878 0.185350 0.000000 
0.125140 0.206662 0.000000 
0.248393 0.165981 0.000000 
0.179108 0.254050 0.000000 
0.161894 0.247121 0.000000 
0.720743 0.925247 0.000000 
0.616050 0.585842 0.000000 
0.924931 0.763227 0.000000 
0.551575 0.791893 0.000000 
0.830390 0.569779 0.000000 
0.776239 0.918394 0.000000 
0.616050 0.884158 0.000000 
0.720743 0.544753 0.000000 
0.874852 0.864764 0.000000 
0.550966 0.678514 0.000000 
0.906887 0.652223 0.000000 
0.665217 0.913888 0.000000 
0.666321 0.559487 0.000000 
0.906887 0.817777 0.000000 
0.544219 0.735000 0.000000 
0.875489 0.604105 0.000000 
0.577370 0.842470 0.000000 
0.777453 0.549003 0.000000 
0.831487 0.901582 0.000000 
0.576094 0.626334 0.000000 
0.923650 0.706566 0.000000 
0.692547 0.920997 0.000000 
0.638717 0.568834 0.000000 
0.914973 0.790241 0.000000 
0.548605 0.762902 0.000000 
0.853950 0.585842 0.000000 
0.748875 0.926469 0.000000 
0.593699 0.865741 0.000000 
0.749118 0.543011 0.000000 
0.853950 0.884158 0.000000 
0.563113 0.652223 0.000000 
0.919034 0.678514 0.000000 
0.641096 0.898168 0.000000 
0.692547 0.549003 0.000000 
0.893906 0.843666 0.000000 
0.546350 0.706566 0.000000 
0.890400 0.628734 0.000000 
0.563113 0.817777 0.000000 
0.805581 0.555898 0.000000 
0.804700 0.912593 0.000000 
0.595148 0.605236 0.000000 
0.925781 0.735000 0.000000 
0.707877 0.914951 0.000000 
0.710510 0.897479 0.000000 
0.697660 0.887254 0.000000 
[...]
POINT_DATA 616 
VECTORS X_GC float 
0.250743 0.455247 0.000000 
0.146050 0.115842 0.000000 
0.454931 0.293227 0.000000 
0.081575 0.321893 0.000000 
0.360390 0.099779 0.000000 
0.306239 0.448394 0.000000 
0.146050 0.414158 0.000000 
0.250743 0.074753 0.000000 
0.404852 0.394764 0.000000 
0.080966 0.208514 0.000000 
0.436887 0.182223 0.000000 
0.195217 0.443888 0.000000 
0.196321 0.089487 0.000000 
0.436887 0.347777 0.000000 
0.074219 0.265000 0.000000 
0.405489 0.134105 0.000000 
0.107370 0.372470 0.000000 
0.307453 0.079003 0.000000 
0.361487 0.431582 0.000000 
0.106094 0.156334 0.000000 
0.453650 0.236566 0.000000 
0.222547 0.450997 0.000000 
0.168717 0.098834 0.000000 
0.444973 0.320241 0.000000 
0.078605 0.292902 0.000000 
0.383950 0.115842 0.000000 
0.278875 0.456469 0.000000 
0.123699 0.395741 0.000000 
0.279118 0.073011 0.000000 
0.383950 0.414158 0.000000 
0.093113 0.182223 0.000000 
0.449034 0.208514 0.000000 
0.171096 0.428168 0.000000 
0.222547 0.079003 0.000000 
0.423906 0.373666 0.000000 
0.076350 0.236566 0.000000 
0.420400 0.158734 0.000000 
0.093113 0.347777 0.000000 
0.335581 0.085898 0.000000 
0.334700 0.442593 0.000000 
0.125148 0.135236 0.000000 
0.455781 0.265000 0.000000 
0.237877 0.444951 0.000000 
0.240510 0.427479 0.000000 
0.227660 0.417254 0.000000 
0.255803 0.421495 0.000000 
0.213756 0.423921 0.000000 
0.211276 0.440194 0.000000 
0.199198 0.415572 0.000000 
0.187444 0.428204 0.000000 
0.229178 0.400210 0.000000 
0.259376 0.404762 0.000000 
0.267045 0.431925 0.000000 
0.283019 0.428033 0.000000 
0.264618 0.448205 0.000000 
0.290528 0.443569 0.000000 
0.215189 0.390086 0.000000 
0.245601 0.393703 0.000000 
0.274098 0.400641 0.000000 
0.107398 0.355992 0.000000 
0.122699 0.347157 0.000000 
0.122682 0.330735 0.000000 
0.136913 0.355383 0.000000 
0.108744 0.323938 0.000000 
0.094476 0.332146 0.000000 
0.105919 0.306936 0.000000 
0.088714 0.305622 0.000000 
0.136954 0.321296 0.000000 
0.152223 0.347743 0.000000 
0.135512 0.371189 0.000000 
0.147235 0.383824 0.000000 
0.121271 0.379442 0.000000 
0.139771 0.399381 0.000000 
0.136147 0.304046 0.000000 
0.152281 0.330078 0.000000 
0.164812 0.359456 0.000000 
0.163972 0.413309 0.000000 
0.171681 0.394439 0.000000 
0.388780 0.398403 0.000000 
0.376762 0.385451 0.000000 
0.360756 0.389122 0.000000 
0.381619 0.369763 0.000000 
0.357435 0.404639 0.000000 
0.368611 0.416723 0.000000 
0.342509 0.413256 0.000000 
0.345056 0.430323 0.000000 
0.348377 0.377309 0.000000 
0.370764 0.356537 0.000000 
0.397341 0.367612 0.000000 
0.407050 0.353371 0.000000 
0.408556 0.379660 0.000000 
0.423878 0.357187 0.000000 
0.331739 0.381934 0.000000 
0.353529 0.360411 0.000000 
0.379382 0.341658 0.000000 
0.085780 0.278067 0.000000 
0.116539 0.277794 0.000000 
0.141220 0.131597 0.000000 
0.153238 0.144549 0.000000 
0.169244 0.140878 0.000000 
0.148381 0.160237 0.000000 
0.172769 0.125777 0.000000 
0.161593 0.113693 0.000000 
0.188716 0.119239 0.000000 
0.186169 0.102173 0.000000 
0.181623 0.152691 0.000000 
0.159236 0.173463 0.000000 
0.132659 0.162388 0.000000 
0.122950 0.176629 0.000000 
0.121444 0.150340 0.000000 
0.106122 0.172813 0.000000 
0.198261 0.148066 0.000000 
0.176471 0.169589 0.000000 
0.153380 0.189709 0.000000 
0.367515 0.114638 0.000000 
0.357562 0.129237 0.000000 
0.364702 0.144025 0.000000 
0.341187 0.127993 0.000000 
0.380123 0.144051 0.000000 
0.389417 0.130466 0.000000 
0.389616 0.157889 0.000000 
0.405687 0.151608 0.000000 
0.355940 0.158722 0.000000 
0.330707 0.141519 0.000000 
0.335590 0.113144 0.000000 
0.319547 0.106847 0.000000 
0.344841 0.099529 0.000000 
0.319522 0.089592 0.000000 
0.364152 0.173914 0.000000 
0.338320 0.157460 0.000000 
0.313566 0.139425 0.000000 
0.446474 0.251400 0.000000 
0.428855 0.252721 0.000000 
0.421745 0.267524 0.000000 
0.419618 0.239142 0.000000 
0.431340 0.279596 0.000000 
0.447756 0.278393 0.000000 
0.426439 0.295646 0.000000 
0.441370 0.304295 0.000000 
0.404791 0.269836 0.000000 
0.402509 0.239383 0.000000 
0.427738 0.225509 0.000000 
0.422658 0.209040 0.000000 
0.444150 0.224253 0.000000 
0.436133 0.198262 0.000000 
0.398034 0.285728 0.000000 
0.394792 0.255273 0.000000 
0.396250 0.223368 0.000000 
0.420372 0.175213 0.000000 
0.405239 0.188869 0.000000 
0.212380 0.093181 0.000000 
0.220905 0.124262 0.000000 
0.291984 0.083307 0.000000 
0.284475 0.098843 0.000000 
0.083526 0.251400 0.000000 
0.099705 0.253843 0.000000 
0.108942 0.240264 0.000000 
0.101960 0.270545 0.000000 
0.102262 0.225509 0.000000 
0.085850 0.224253 0.000000 
0.107342 0.209040 0.000000 
0.093867 0.198262 0.000000 
0.126051 0.240505 0.000000 
0.137169 0.223372 0.000000 
0.131393 0.261332 0.000000 
0.237877 0.085049 0.000000 
0.240510 0.102521 0.000000 
0.255803 0.108505 0.000000 
0.224728 0.108435 0.000000 
0.267288 0.097555 0.000000 
0.264861 0.081274 0.000000 
0.290753 0.115665 0.000000 
0.257813 0.126958 0.000000 
0.275576 0.132831 0.000000 
0.238696 0.136801 0.000000 
0.432072 0.330493 0.000000 
0.411959 0.327176 0.000000 
0.317427 0.436295 0.000000 
0.314466 0.413134 0.000000 
0.199113 0.398780 0.000000 
0.329192 0.402365 0.000000 
0.382407 0.173055 0.000000 
0.119049 0.296483 0.000000 
0.201829 0.129714 0.000000 
0.410087 0.299466 0.000000 
0.277534 0.383677 0.000000 
0.368261 0.328396 0.000000 
0.303111 0.153218 0.000000 
0.180216 0.351566 0.000000 
0.164501 0.202971 0.000000 
0.378947 0.223794 0.000000 
0.216906 0.372864 0.000000 
0.319345 0.369854 0.000000 
0.355132 0.188685 0.000000 
0.150682 0.294651 0.000000 
0.210655 0.160146 0.000000 
0.380862 0.287886 0.000000 
0.286499 0.413483 0.000000 
0.399946 0.340644 0.000000 
0.308001 0.119602 0.000000 
0.161224 0.379731 0.000000 
0.132816 0.190723 0.000000 
0.408279 0.206658 0.000000 
0.266174 0.370796 0.000000 
0.181553 0.199955 0.000000 
0.359125 0.206041 0.000000 
0.344967 0.218831 0.000000 
0.344988 0.235157 0.000000 
0.330839 0.210650 0.000000 
0.363397 0.239283 0.000000 
0.330796 0.244679 0.000000 
0.315497 0.218180 0.000000 
0.336470 0.192644 0.000000 
0.331693 0.261919 0.000000 
0.315433 0.235882 0.000000 
0.301015 0.208783 0.000000 
0.347496 0.273894 0.000000 
0.317211 0.271394 0.000000 
0.285568 0.216587 0.000000 
0.298545 0.189110 0.000000 
0.248964 0.376700 0.000000 
0.270547 0.354160 0.000000 
0.187668 0.182818 0.000000 
0.301762 0.263570 0.000000 
0.255842 0.344250 0.000000 
0.288472 0.353629 0.000000 
0.301536 0.369885 0.000000 
0.287257 0.273036 0.000000 
0.300882 0.245299 0.000000 
0.236764 0.350172 0.000000 
0.288203 0.290330 0.000000 
0.271807 0.265208 0.000000 
0.303654 0.298158 0.000000 
0.273699 0.299797 0.000000 
0.257302 0.274674 0.000000 
0.270928 0.245844 0.000000 
0.318157 0.288687 0.000000 
0.274740 0.318251 0.000000 
0.258248 0.291969 0.000000 
0.243744 0.301435 0.000000 
0.242302 0.318569 0.000000 
0.257847 0.327557 0.000000 
0.221761 0.329237 0.000000 
0.228293 0.293607 0.000000 
0.209807 0.303058 0.000000 
0.227347 0.276313 0.000000 
0.204717 0.321553 0.000000 
0.184174 0.331184 0.000000 
0.188473 0.294510 0.000000 
0.211896 0.268485 0.000000 
0.241852 0.266846 0.000000 
0.191508 0.277232 0.000000 
0.210950 0.251190 0.000000 
0.240906 0.249551 0.000000 
0.194030 0.236929 0.000000 
0.225455 0.241723 0.000000 
0.224509 0.224429 0.000000 
0.210725 0.212655 0.000000 
0.215073 0.192105 0.000000 
0.239013 0.214962 0.000000 
0.233376 0.194959 0.000000 
0.254531 0.220721 0.000000 
0.270051 0.209736 0.000000 
0.309803 0.174462 0.000000 
0.205778 0.358959 0.000000 
0.218228 0.344146 0.000000 
0.232015 0.154334 0.000000 
0.348447 0.330045 0.000000 
0.342332 0.347182 0.000000 
0.334952 0.317606 0.000000 
0.317362 0.323104 0.000000 
0.313311 0.340360 0.000000 
0.294805 0.341960 0.000000 
0.288871 0.325250 0.000000 
0.303281 0.314624 0.000000 
0.148440 0.270626 0.000000 
0.369782 0.301830 0.000000 
0.350231 0.294337 0.000000 
0.255477 0.238016 0.000000 
0.294971 0.383296 0.000000 
0.300761 0.403640 0.000000 
0.155965 0.220695 0.000000 
0.194751 0.215688 0.000000 
0.285498 0.235401 0.000000 
0.282369 0.150561 0.000000 
0.234258 0.365986 0.000000 
0.205214 0.178002 0.000000 
0.378836 0.314525 0.000000 
0.401969 0.314320 0.000000 
0.374696 0.206878 0.000000 
0.388958 0.188664 0.000000 
0.168036 0.303232 0.000000 
0.191386 0.364961 0.000000 
0.186439 0.387560 0.000000 
0.324786 0.351998 0.000000 
0.365809 0.271469 0.000000 
0.335374 0.299655 0.000000 
0.327870 0.176610 0.000000 
0.168828 0.321410 0.000000 
0.372983 0.254748 0.000000 
0.281082 0.181546 0.000000 
0.268035 0.194368 0.000000 
0.271597 0.164242 0.000000 
0.246878 0.185350 0.000000 
0.125140 0.206662 0.000000 
0.248393 0.165981 0.000000 
0.179108 0.254050 0.000000 
0.161894 0.247121 0.000000 
0.720743 0.925247 0.000000 
0.616050 0.585842 0.000000 
0.924931 0.763227 0.000000 
0.551575 0.791893 0.000000 
0.830390 0.569779 0.000000 
0.776239 0.918394 0.000000 
0.616050 0.884158 0.000000 
0.720743 0.544753 0.000000 
0.874852 0.864764 0.000000 
0.550966 0.678514 0.000000 
0.906887 0.652223 0.000000 
0.665217 0.913888 0.000000 
0.666321 0.559487 0.000000 
0.906887 0.817777 0.000000 
0.544219 0.735000 0.000000 
0.875489 0.604105 0.000000 
0.577370 0.842470 0.000000 
0.777453 0.549003 0.000000 
0.831487 0.901582 0.000000 
0.576094 0.626334 0.000000 
0.923650 0.706566 0.000000 
0.692547 0.920997 0.000000 
0.638717 0.568834 0.000000 
0.914973 0.790241 0.000000 
0.548605 0.762902 0.000000 
0.853950 0.585842 0.000000 
0.748875 0.926469 0.000000 
0.593699 0.865741 0.000000 
0.749118 0.543011 0.000000 
0.853950 0.884158 0.000000 
0.563113 0.652223 0.000000 
0.919034 0.678514 0.000000 
0.641096 0.898168 0.000000 
0.692547 0.549003 0.000000 
0.893906 0.843666 0.000000 
0.546350 0.706566 0.000000 
0.890400 0.628734 0.000000 
0.563113 0.817777 0.000000 
0.805581 0.555898 0.000000 
0.804700 0.912593 0.000000 
0.595148 0.605236 0.000000 
0.925781 0.735000 0.000000 
0.707877 0.914951 0.000000 
0.710510 0.897479 0.000000 
0.697660 0.887254 0.000000 
0.725803 0.891495 0.000000 
0.683756 0.893921 0.000000 
0.681276 0.910194 0.000000 
0.669198 0.885572 0.000000 
0.657444 0.898204 0.000000 
0.699178 0.870210 0.000000 
0.729376 0.874762 0.000000 
0.737045 0.901925 0.000000 
0.753019 0.898033 0.000000 
0.734618 0.918205 0.000000 
0.760528 0.913569 0.000000 
0.685189 0.860086 0.000000 
0.715601 0.863703 0.000000 
0.744098 0.870641 0.000000 
0.577398 0.825992 0.000000 
0.592699 0.817157 0.000000 
0.592682 0.800735 0.000000 
0.606913 0.825383 0.000000 
0.578744 0.793938 0.000000 
0.564476 0.802146 0.000000 
0.575919 0.776936 0.000000 
0.558714 0.775622 0.000000 
0.606954 0.791296 0.000000 
0.622223 0.817743 0.000000 
0.605512 0.841189 0.000000 
0.617235 0.853824 0.000000 
0.591271 0.849442 0.000000 
0.609771 0.869381 0.000000 
0.606147 0.774046 0.000000 
0.622281 0.800078 0.000000 
0.634812 0.829456 0.000000 
0.633972 0.883309 0.000000 
0.641681 0.864439 0.000000 
0.858780 0.868403 0.000000 
0.846762 0.855451 0.000000 
0.830756 0.859122 0.000000 
0.851619 0.839763 0.000000 
0.827435 0.874639 0.000000 
0.838611 0.886723 0.000000 
0.812509 0.883256 0.000000 
0.815056 0.900323 0.000000 
0.818377 0.847309 0.000000 
0.840764 0.826537 0.000000 
0.867341 0.837612 0.000000 
0.877050 0.823371 0.000000 
0.878556 0.849660 0.000000 
0.893878 0.827187 0.000000 
0.801739 0.851934 0.000000 
0.823529 0.830411 0.000000 
0.849382 0.811658 0.000000 
0.555780 0.748067 0.000000 
0.586539 0.747794 0.000000 
0.611220 0.601597 0.000000 
0.623238 0.614549 0.000000 
0.639244 0.610878 0.000000 
0.618381 0.630237 0.000000 
0.642769 0.595777 0.000000 
0.631593 0.583693 0.000000 
0.658716 0.589239 0.000000 
0.656169 0.572173 0.000000 
0.651623 0.622691 0.000000 
0.629236 0.643463 0.000000 
0.602659 0.632388 0.000000 
0.592950 0.646629 0.000000 
0.591444 0.620340 0.000000 
0.576122 0.642813 0.000000 
0.668261 0.618066 0.000000 
0.646471 0.639589 0.000000 
0.623380 0.659709 0.000000 
0.837515 0.584638 0.000000 
0.827562 0.599237 0.000000 
0.834702 0.614025 0.000000 
0.811187 0.597993 0.000000 
0.850123 0.614051 0.000000 
0.859417 0.600466 0.000000 
0.859616 0.627889 0.000000 
0.875687 0.621608 0.000000 
0.825940 0.628722 0.000000 
0.800707 0.611519 0.000000 
0.805590 0.583144 0.000000 
0.789547 0.576847 0.000000 
0.814841 0.569529 0.000000 
0.789522 0.559592 0.000000 
0.834152 0.643914 0.000000 
0.808320 0.627460 0.000000 
0.783566 0.609425 0.000000 
0.916474 0.721400 0.000000 
0.898855 0.722721 0.000000 
0.891745 0.737524 0.000000 
0.889618 0.709142 0.000000 
0.901340 0.749596 0.000000 
0.917756 0.748393 0.000000 
0.896439 0.765646 0.000000 
0.911370 0.774295 0.000000 
0.874791 0.739836 0.000000 
0.872509 0.709383 0.000000 
0.897738 0.695509 0.000000 
0.892658 0.679040 0.000000 
0.914150 0.694253 0.000000 
0.906133 0.668262 0.000000 
0.868034 0.755728 0.000000 
0.864792 0.725273 0.000000 
0.866250 0.693368 0.000000 
0.890372 0.645213 0.000000 
0.875239 0.658869 0.000000 
0.682380 0.563181 0.000000 
0.690905 0.594262 0.000000 
0.761984 0.553307 0.000000 
0.754475 0.568843 0.000000 
0.553526 0.721400 0.000000 
0.569705 0.723843 0.000000 
0.578942 0.710264 0.000000 
0.571960 0.740545 0.000000 
0.572262 0.695509 0.000000 
0.555850 0.694253 0.000000 
0.577342 0.679040 0.000000 
0.563867 0.668262 0.000000 
0.596051 0.710505 0.000000 
0.607169 0.693372 0.000000 
0.601393 0.731332 0.000000 
0.707877 0.555049 0.000000 
0.710510 0.572521 0.000000 
0.725803 0.578505 0.000000 
0.694728 0.578435 0.000000 
0.737288 0.567555 0.000000 
0.734861 0.551274 0.000000 
0.760753 0.585665 0.000000 
0.727813 0.596958 0.000000 
0.745576 0.602831 0.000000 
0.708696 0.606801 0.000000 
0.902072 0.800493 0.000000 
0.881959 0.797176 0.000000 
0.787427 0.906295 0.000000 
0.784466 0.883134 0.000000 
0.669113 0.868780 0.000000 
0.799192 0.872365 0.000000 
0.852407 0.643055 0.000000 
0.589049 0.766483 0.000000 
0.671829 0.599714 0.000000 
0.880087 0.769466 0.000000 
0.747534 0.853677 0.000000 
0.838261 0.798396 0.000000 
0.773111 0.623218 0.000000 
0.650216 0.821566 0.000000 
0.634501 0.672971 0.000000 
0.848947 0.693794 0.000000 
0.686906 0.842864 0.000000 
0.789345 0.839854 0.000000 
0.825132 0.658685 0.000000 
0.620682 0.764651 0.000000 
0.680655 0.630146 0.000000 
0.850862 0.757886 0.000000 
0.756499 0.883483 0.000000 
0.869946 0.810644 0.000000 
0.778001 0.589602 0.000000 
0.631224 0.849731 0.000000 
0.602816 0.660723 0.000000 
0.878279 0.676658 0.000000 
0.736174 0.840796 0.000000 
0.651553 0.669955 0.000000 
0.829125 0.676041 0.000000 
0.814967 0.688831 0.000000 
0.814988 0.705157 0.000000 
0.800839 0.680650 0.000000 
0.833397 0.709283 0.000000 
0.800796 0.714679 0.000000 
0.785497 0.688180 0.000000 
0.806470 0.662644 0.000000 
0.801693 0.731919 0.000000 
0.785433 0.705882 0.000000 
0.771015 0.678783 0.000000 
0.817496 0.743894 0.000000 
0.787211 0.741394 0.000000 
0.755568 0.686587 0.000000 
0.768545 0.659110 0.000000 
0.718964 0.846700 0.000000 
0.740547 0.824160 0.000000 
0.657668 0.652818 0.000000 
0.771762 0.733570 0.000000 
0.725842 0.814250 0.000000 
0.758472 0.823629 0.000000 
0.771536 0.839885 0.000000 
0.757257 0.743036 0.000000 
0.770882 0.715299 0.000000 
0.706764 0.820172 0.000000 
0.758203 0.760330 0.000000 
0.741807 0.735208 0.000000 
0.773654 0.768158 0.000000 
0.743699 0.769797 0.000000 
0.727302 0.744674 0.000000 
0.740928 0.715844 0.000000 
0.788157 0.758687 0.000000 
0.744740 0.788251 0.000000 
0.728248 0.761969 0.000000 
0.713744 0.771435 0.000000 
0.712302 0.788569 0.000000 
0.727847 0.797557 0.000000 
0.691761 0.799237 0.000000 
0.698293 0.763607 0.000000 
0.679807 0.773058 0.000000 
0.697347 0.746313 0.000000 
0.674717 0.791553 0.000000 
0.654174 0.801184 0.000000 
0.658473 0.764510 0.000000 
0.681896 0.738485 0.000000 
0.711852 0.736846 0.000000 
0.661508 0.747232 0.000000 
0.680950 0.721190 0.000000 
0.710906 0.719551 0.000000 
0.664030 0.706929 0.000000 
0.695455 0.711723 0.000000 
0.694509 0.694429 0.000000 
0.680725 0.682655 0.000000 
0.685073 0.662105 0.000000 
0.709013 0.684962 0.000000 
0.703376 0.664959 0.000000 
0.724531 0.690721 0.000000 
0.740051 0.679736 0.000000 
0.779803 0.644462 0.000000 
0.675778 0.828959 0.000000 
0.688228 0.814146 0.000000 
0.702015 0.624334 0.000000 
0.818447 0.800045 0.000000 
0.812332 0.817182 0.000000 
0.804952 0.787606 0.000000 
0.787362 0.793104 0.000000 
0.783311 0.810360 0.000000 
0.764805 0.811960 0.000000 
0.758871 0.795250 0.000000 
0.773281 0.784624 0.000000 
0.618440 0.740626 0.000000 
0.839782 0.771830 0.000000 
0.820231 0.764337 0.000000 
0.725477 0.708016 0.000000 
0.764971 0.853296 0.000000 
0.770761 0.873640 0.000000 
0.625965 0.690695 0.000000 
0.664751 0.685688 0.000000 
0.755498 0.705401 0.000000 
0.752369 0.620561 0.000000 
0.704258 0.835986 0.000000 
0.675214 0.648002 0.000000 
0.848836 0.784525 0.000000 
0.871969 0.784320 0.000000 
0.844696 0.676878 0.000000 
0.858958 0.658664 0.000000 
0.638036 0.773232 0.000000 
0.661386 0.834961 0.000000 
0.656439 0.857560 0.000000 
0.794786 0.821998 0.000000 
0.835809 0.741469 0.000000 
0.805374 0.769655 0.000000 
0.797870 0.646610 0.000000 
0.638828 0.791410 0.000000 
0.842983 0.724748 0.000000 
0.751082 0.651546 0.000000 
0.738035 0.664368 0.000000 
0.741597 0.634242 0.000000 
0.716878 0.655350 0.000000 
0.595140 0.676662 0.000000 
0.718393 0.635981 0.000000 
0.649108 0.724050 0.000000 
0.631894 0.717121 0.000000 
VECTORS X_EC float 
-0.104941 0.014859 0.000000 
0.683164 -0.078994 0.000000 
-0.864545 0.098624 0.000000 
0.562136 0.631502 0.000000 
-0.995585 0.207805 0.000000 
0.032125 -0.875221 0.000000 
0.716836 -0.078994 0.000000 
-0.495059 0.014859 0.000000 
-0.895274 -0.902960 0.000000 
0.829711 0.619313 0.000000 
-0.644469 -0.262254 0.000000 
0.122238 0.904336 0.000000 
-0.789736 0.926417 0.000000 
0.044469 -0.262254 0.000000 
-0.300000 0.484390 0.000000 
0.317896 -0.890218 0.000000 
-0.449410 -0.852605 0.000000 
-0.580055 -0.850947 0.000000 
0.368360 0.229736 0.000000 
-0.126686 -0.878115 0.000000 
0.268687 0.072993 0.000000 
-0.019945 -0.549053 0.000000 
-0.976677 0.374347 0.000000 
0.595182 -0.100545 0.000000 
-0.858037 0.572095 0.000000 
0.683164 0.678994 0.000000 
-0.129375 0.577502 0.000000 
-0.914825 -0.526021 0.000000 
-0.460211 0.582357 0.000000 
0.716836 0.678994 0.000000 
-0.644469 0.862254 0.000000 
0.829711 -0.019313 0.000000 
0.436636 0.421928 0.000000 
-0.580055 -0.549053 0.000000 
-0.473314 -0.521885 0.000000 
0.268687 0.527007 0.000000 
-0.174676 -0.591995 0.000000 
0.044469 0.862254 0.000000 
-0.717959 -0.288373 0.000000 
0.148149 -0.306001 0.000000 
0.295274 -0.497040 0.000000 
-0.300000 0.115610 0.000000 
0.100986 -0.242464 0.000000 
0.450411 -0.189797 0.000000 
0.654929 -0.446798 0.000000 
0.570091 0.116069 0.000000 
0.521572 -0.724887 0.000000 
0.196124 -0.774476 0.000000 
0.688559 0.983969 0.000000 
0.435915 0.748876 0.000000 
0.995794 -0.416431 0.000000 
0.904762 0.187523 0.000000 
0.361506 0.340904 0.000000 
0.439335 0.660371 0.000000 
0.035899 0.292362 0.000000 
0.128621 0.810552 0.000000 
-0.801726 -0.696230 0.000000 
-0.874053 -0.087976 0.000000 
0.987186 0.481966 0.000000 
-0.119833 -0.852043 0.000000 
0.056853 -0.546014 0.000000 
0.385299 -0.546353 0.000000 
-0.107664 -0.261741 0.000000 
0.521232 -0.825111 0.000000 
0.357088 0.889525 0.000000 
0.861273 -0.881627 0.000000 
0.887556 0.774271 0.000000 
0.574083 -0.260921 0.000000 
0.045135 0.044467 0.000000 
-0.423786 -0.289752 0.000000 
-0.676472 -0.055293 0.000000 
-0.588846 -0.574587 0.000000 
-0.987615 -0.204583 0.000000 
0.919083 -0.277068 0.000000 
0.398436 0.045625 0.000000 
-0.189125 0.296232 0.000000 
0.733818 0.279436 0.000000 
-0.888772 0.433623 0.000000 
-0.968064 0.775602 0.000000 
-0.709024 0.535248 0.000000 
-0.782440 0.215112 0.000000 
-0.395270 0.632383 0.000000 
0.907225 0.148699 0.000000 
0.665542 0.372228 0.000000 
0.734873 -0.149824 0.000000 
0.393549 -0.098877 0.000000 
-0.546173 -0.032454 0.000000 
-0.130740 0.415277 0.000000 
-0.352234 0.946812 0.000000 
-0.067426 -0.859009 0.000000 
-0.593199 -0.828884 0.000000 
-0.143737 -0.522447 0.000000 
-0.638685 -0.365211 0.000000 