# vtk DataFile Version 3.0 
vtk output 
ASCII 
DATASET UNSTRUCTURED_GRID 
POINTS 616 float 
0.240743 0.445247 0.000000 
0.136050 0.105842 0.000000 
0.444931 0.283227 0.000000 
0.071575 0.311893 0.000000 
0.350390 0.089779 0.000000 
0.296239 0.438394 0.000000 
0.136050 0.404158 0.000000 
0.240743 0.064753 0.000000 
0.394852 0.384764 0.000000 
0.070966 0.198514 0.000000 
0.426887 0.172223 0.000000 
0.185217 0.433888 0.000000 
0.186321 0.079487 0.000000 
0.426887 0.337777 0.000000 
0.064219 0.255000 0.000000 
0.395489 0.124105 0.000000 
0.097370 0.362470 0.000000 
0.297453 0.069003 0.000000 
0.351487 0.421582 0.000000 
0.096094 0.146334 0.000000 
0.443650 0.226566 0.000000 
0.212547 0.440997 0.000000 
0.158717 0.088834 0.000000 
0.434973 0.310241 0.000000 
0.068605 0.282902 0.000000 
0.373950 0.105842 0.000000 
0.268875 0.446469 0.000000 
0.113699 0.385741 0.000000 
0.269118 0.063011 0.000000 
0.373950 0.404158 0.000000 
0.083113 0.172223 0.000000 
0.439034 0.198514 0.000000 
0.161096 0.418168 0.000000 
0.212547 0.069003 0.000000 
0.413906 0.363666 0.000000 
0.066350 0.226566 0.000000 
0.410400 0.148734 0.000000 
0.083113 0.337777 0.000000 
0.325581 0.075898 0.000000 
0.324700 0.432593 0.000000 
0.115148 0.125236 0.000000 
0.445781 0.255000 0.000000 
0.227877 0.434951 0.000000 
0.230510 0.417479 0.000000 
0.217660 0.407254 0.000000 
0.245803 0.411495 0.000000 
0.203756 0.413921 0.000000 
0.201276 0.430194 0.000000 
0.189198 0.405572 0.000000 
0.177444 0.418204 0.000000 
0.219178 0.390210 0.000000 
0.249376 0.394762 0.000000 
0.257045 0.421925 0.000000 
0.273019 0.418033 0.000000 
0.254618 0.438205 0.000000 
0.280528 0.433569 0.000000 
0.205189 0.380086 0.000000 
0.235601 0.383703 0.000000 
0.264098 0.390641 0.000000 
0.097398 0.345992 0.000000 
0.112699 0.337157 0.000000 
0.112682 0.320735 0.000000 
0.126913 0.345383 0.000000 
0.098744 0.313938 0.000000 
0.084476 0.322146 0.000000 
0.095919 0.296936 0.000000 
0.078714 0.295622 0.000000 
0.126954 0.311296 0.000000 
0.142223 0.337743 0.000000 
0.125512 0.361189 0.000000 
0.137235 0.373824 0.000000 
0.111271 0.369442 0.000000 
0.129771 0.389381 0.000000 
0.126147 0.294046 0.000000 
0.142281 0.320078 0.000000 
0.154812 0.349456 0.000000 
0.153972 0.403309 0.000000 
0.161681 0.384439 0.000000 
0.378780 0.388403 0.000000 
0.366762 0.375451 0.000000 
0.350756 0.379122 0.000000 
0.371619 0.359763 0.000000 
0.347435 0.394639 0.000000 
0.358611 0.406723 0.000000 
0.332509 0.403256 0.000000 
0.335056 0.420323 0.000000 
0.338377 0.367309 0.000000 
0.360764 0.346537 0.000000 
0.387341 0.357612 0.000000 
0.397050 0.343371 0.000000 
0.398556 0.369660 0.000000 
0.413878 0.347187 0.000000 
0.321739 0.371934 0.000000 
0.343529 0.350411 0.000000 
0.369382 0.331658 0.000000 
0.075780 0.268067 0.000000 
0.106539 0.267794 0.000000 
0.131220 0.121597 0.000000 
0.143238 0.134549 0.000000 
0.159244 0.130878 0.000000 
0.138381 0.150237 0.000000 
0.162769 0.115777 0.000000 
0.151593 0.103693 0.000000 
0.178716 0.109239 0.000000 
0.176169 0.092173 0.000000 
0.171623 0.142691 0.000000 
0.149236 0.163463 0.000000 
0.122659 0.152388 0.000000 
0.112950 0.166629 0.000000 
0.111444 0.140340 0.000000 
0.096122 0.162813 0.000000 
0.188261 0.138066 0.000000 
0.166471 0.159589 0.000000 
0.143380 0.179709 0.000000 
0.357515 0.104638 0.000000 
0.347562 0.119237 0.000000 
0.354702 0.134025 0.000000 
0.331187 0.117993 0.000000 
0.370123 0.134051 0.000000 
0.379417 0.120466 0.000000 
0.379616 0.147889 0.000000 
0.395687 0.141608 0.000000 
0.345940 0.148722 0.000000 
0.320707 0.131519 0.000000 
0.325590 0.103144 0.000000 
0.309547 0.096847 0.000000 
0.334841 0.089529 0.000000 
0.309522 0.079592 0.000000 
0.354152 0.163914 0.000000 
0.328320 0.147460 0.000000 
0.303566 0.129425 0.000000 
0.436474 0.241400 0.000000 
0.418855 0.242721 0.000000 
0.411745 0.257524 0.000000 
0.409618 0.229142 0.000000 
0.421340 0.269596 0.000000 
0.437756 0.268393 0.000000 
0.416439 0.285646 0.000000 
0.431370 0.294295 0.000000 
0.394791 0.259836 0.000000 
0.392509 0.229383 0.000000 
0.417738 0.215509 0.000000 
0.412658 0.199040 0.000000 
0.434150 0.214253 0.000000 
0.426133 0.188262 0.000000 
0.388034 0.275728 0.000000 
0.384792 0.245273 0.000000 
0.386250 0.213368 0.000000 
0.410372 0.165213 0.000000 
0.395239 0.178869 0.000000 
0.202380 0.083181 0.000000 
0.210905 0.114262 0.000000 
0.281984 0.073307 0.000000 
0.274475 0.088843 0.000000 
0.073526 0.241400 0.000000 
0.089705 0.243843 0.000000 
0.098942 0.230264 0.000000 
0.091960 0.260545 0.000000 
0.092262 0.215509 0.000000 
0.075850 0.214253 0.000000 
0.097342 0.199040 0.000000 
0.083867 0.188262 0.000000 
0.116051 0.230505 0.000000 
0.127169 0.213372 0.000000 
0.121393 0.251332 0.000000 
0.227877 0.075049 0.000000 
0.230510 0.092521 0.000000 
0.245803 0.098505 0.000000 
0.214728 0.098435 0.000000 
0.257288 0.087555 0.000000 
0.254861 0.071274 0.000000 
0.280753 0.105665 0.000000 
0.247813 0.116958 0.000000 
0.265576 0.122831 0.000000 
0.228696 0.126801 0.000000 
0.422072 0.320493 0.000000 
0.401959 0.317176 0.000000 
0.307427 0.426295 0.000000 
0.304466 0.403134 0.000000 
0.189113 0.388780 0.000000 
0.319192 0.392365 0.000000 
0.372407 0.163055 0.000000 
0.109049 0.286483 0.000000 
0.191829 0.119714 0.000000 
0.400087 0.289466 0.000000 
0.267534 0.373677 0.000000 
0.358261 0.318396 0.000000 
0.293111 0.143218 0.000000 
0.170216 0.341566 0.000000 
0.154501 0.192971 0.000000 
0.368947 0.213794 0.000000 
0.206906 0.362864 0.000000 
0.309345 0.359854 0.000000 
0.345132 0.178685 0.000000 
0.140682 0.284651 0.000000 
0.200655 0.150146 0.000000 
0.370862 0.277886 0.000000 
0.276499 0.403483 0.000000 
0.389946 0.330644 0.000000 
0.298001 0.109602 0.000000 
0.151224 0.369731 0.000000 
0.122816 0.180723 0.000000 
0.398279 0.196658 0.000000 
0.256174 0.360796 0.000000 
0.171553 0.189955 0.000000 
0.349125 0.196041 0.000000 
0.334967 0.208831 0.000000 
0.334988 0.225157 0.000000 
0.320839 0.200650 0.000000 
0.353397 0.229283 0.000000 
0.320796 0.234679 0.000000 
0.305497 0.208180 0.000000 
0.326470 0.182644 0.000000 
0.321693 0.251919 0.000000 
0.305433 0.225882 0.000000 
0.291015 0.198783 0.000000 
0.337496 0.263894 0.000000 
0.307211 0.261394 0.000000 
0.275568 0.206587 0.000000 
0.288545 0.179110 0.000000 
0.238964 0.366700 0.000000 
0.260547 0.344160 0.000000 
0.177668 0.172818 0.000000 
0.291762 0.253570 0.000000 
0.245842 0.334250 0.000000 
0.278472 0.343629 0.000000 
0.291536 0.359885 0.000000 
0.277257 0.263036 0.000000 
0.290882 0.235299 0.000000 
0.226764 0.340172 0.000000 
0.278203 0.280330 0.000000 
0.261807 0.255208 0.000000 
0.293654 0.288158 0.000000 
0.263699 0.289797 0.000000 
0.247302 0.264674 0.000000 
0.260928 0.235844 0.000000 
0.308157 0.278687 0.000000 
0.264740 0.308251 0.000000 
0.248248 0.281969 0.000000 
0.233744 0.291435 0.000000 
0.232302 0.308569 0.000000 
0.247847 0.317557 0.000000 
0.211761 0.319237 0.000000 
0.218293 0.283607 0.000000 
0.199807 0.293058 0.000000 
0.217347 0.266313 0.000000 
0.194717 0.311553 0.000000 
0.174174 0.321184 0.000000 
0.178473 0.284510 0.000000 
0.201896 0.258485 0.000000 
0.231852 0.256846 0.000000 
0.181508 0.267232 0.000000 
0.200950 0.241190 0.000000 
0.230906 0.239551 0.000000 
0.184030 0.226929 0.000000 
0.215455 0.231723 0.000000 
0.214509 0.214429 0.000000 
0.200725 0.202655 0.000000 
0.205073 0.182105 0.000000 
0.229013 0.204962 0.000000 
0.223376 0.184959 0.000000 
0.244531 0.210721 0.000000 
0.260051 0.199736 0.000000 
0.299803 0.164462 0.000000 
0.195778 0.348959 0.000000 
0.208228 0.334146 0.000000 
0.222015 0.144334 0.000000 
0.338447 0.320045 0.000000 
0.332332 0.337182 0.000000 
0.324952 0.307606 0.000000 
0.307362 0.313104 0.000000 
0.303311 0.330360 0.000000 
0.284805 0.331960 0.000000 
0.278871 0.315250 0.000000 
0.293281 0.304624 0.000000 
0.138440 0.260626 0.000000 
0.359782 0.291830 0.000000 
0.340231 0.284337 0.000000 
0.245477 0.228016 0.000000 
0.284971 0.373296 0.000000 
0.290761 0.393640 0.000000 
0.145965 0.210695 0.000000 
0.184751 0.205688 0.000000 
0.275498 0.225401 0.000000 
0.272369 0.140561 0.000000 
0.224258 0.355986 0.000000 
0.195214 0.168002 0.000000 
0.368836 0.304525 0.000000 
0.391969 0.304320 0.000000 
0.364696 0.196878 0.000000 
0.378958 0.178664 0.000000 
0.158036 0.293232 0.000000 
0.181386 0.354961 0.000000 
0.176439 0.377560 0.000000 
0.314786 0.341998 0.000000 
0.355809 0.261469 0.000000 
0.325374 0.289655 0.000000 
0.317870 0.166610 0.000000 
0.158828 0.311410 0.000000 
0.362983 0.244748 0.000000 
0.271082 0.171546 0.000000 
0.258035 0.184368 0.000000 
0.261597 0.154242 0.000000 
0.236878 0.175350 0.000000 
0.115140 0.196662 0.000000 
0.238393 0.155981 0.000000 
0.169108 0.244050 0.000000 
0.151894 0.237121 0.000000 
0.730743 0.935247 0.000000 
0.626050 0.595842 0.000000 
0.934931 0.773227 0.000000 
0.561575 0.801893 0.000000 
0.840390 0.579779 0.000000 
0.786239 0.928394 0.000000 
0.626050 0.894158 0.000000 
0.730743 0.554753 0.000000 
0.884852 0.874764 0.000000 
0.560966 0.688514 0.000000 
0.916887 0.662223 0.000000 
0.675217 0.923888 0.000000 
0.676321 0.569487 0.000000 
0.916887 0.827777 0.000000 
0.554219 0.745000 0.000000 
0.885489 0.614105 0.000000 
0.587370 0.852470 0.000000 
0.787453 0.559003 0.000000 
0.841487 0.911582 0.000000 
0.586094 0.636334 0.000000 
0.933650 0.716566 0.000000 
0.702547 0.930997 0.000000 
0.648717 0.578834 0.000000 
0.924973 0.800241 0.000000 
0.558605 0.772902 0.000000 
0.863950 0.595842 0.000000 
0.758875 0.936469 0.000000 
0.603699 0.875741 0.000000 
0.759118 0.553011 0.000000 
0.863950 0.894158 0.000000 
0.573113 0.662223 0.000000 
0.929034 0.688514 0.000000 
0.651096 0.908168 0.000000 
0.702547 0.559003 0.000000 
0.903906 0.853666 0.000000 
0.556350 0.716566 0.000000 
0.900400 0.638734 0.000000 
0.573113 0.827777 0.000000 
0.815581 0.565898 0.000000 
0.814700 0.922593 0.000000 
0.605148 0.615236 0.000000 
0.935781 0.745000 0.000000 
0.717877 0.924951 0.000000 
0.720510 0.907479 0.000000 
0.707660 0.897254 0.000000 
[...]
POINT_DATA 616 
VECTORS X_GC float 
0.240743 0.445247 0.000000 
0.136050 0.105842 0.000000 
0.444931 0.283227 0.000000 
0.071575 0.311893 0.000000 
0.350390 0.089779 0.000000 
0.296239 0.438394 0.000000 
0.136050 0.404158 0.000000 
0.240743 0.064753 0.000000 
0.394852 0.384764 0.000000 
0.070966 0.198514 0.000000 
0.426887 0.172223 0.000000 
0.185217 0.433888 0.000000 
0.186321 0.079487 0.000000 
0.426887 0.337777 0.000000 
0.064219 0.255000 0.000000 
0.395489 0.124105 0.000000 
0.097370 0.362470 0.000000 
0.297453 0.069003 0.000000 
0.351487 0.421582 0.000000 
0.096094 0.146334 0.000000 
0.443650 0.226566 0.000000 
0.212547 0.440997 0.000000 
0.158717 0.088834 0.000000 
0.434973 0.310241 0.000000 
0.068605 0.282902 0.000000 
0.373950 0.105842 0.000000 
0.268875 0.446469 0.000000 
0.113699 0.385741 0.000000 
0.269118 0.063011 0.000000 
0.373950 0.404158 0.000000 
0.083113 0.172223 0.000000 
0.439034 0.198514 0.000000 
0.161096 0.418168 0.000000 
0.212547 0.069003 0.000000 
0.413906 0.363666 0.000000 
0.066350 0.226566 0.000000 
0.410400 0.148734 0.000000 
0.083113 0.337777 0.000000 
0.325581 0.075898 0.000000 
0.324700 0.432593 0.000000 
0.115148 0.125236 0.000000 
0.445781 0.255000 0.000000 
0.227877 0.434951 0.000000 
0.230510 0.417479 0.000000 
0.217660 0.407254 0.000000 
0.245803 0.411495 0.000000 
0.203756 0.413921 0.000000 
0.201276 0.430194 0.000000 
0.189198 0.405572 0.000000 
0.177444 0.418204 0.000000 
0.219178 0.390210 0.000000 
0.249376 0.394762 0.000000 
0.257045 0.421925 0.000000 
0.273019 0.418033 0.000000 
0.254618 0.438205 0.000000 
0.280528 0.433569 0.000000 
0.205189 0.380086 0.000000 
0.235601 0.383703 0.000000 
0.264098 0.390641 0.000000 
0.097398 0.345992 0.000000 
0.112699 0.337157 0.000000 
0.112682 0.320735 0.000000 
0.126913 0.345383 0.000000 
0.098744 0.313938 0.000000 
0.084476 0.322146 0.000000 
0.095919 0.296936 0.000000 
0.078714 0.295622 0.000000 
0.126954 0.311296 0.000000 
0.142223 0.337743 0.000000 
0.125512 0.361189 0.000000 
0.137235 0.373824 0.000000 
0.111271 0.369442 0.000000 
0.129771 0.389381 0.000000 
0.126147 0.294046 0.000000 
0.142281 0.320078 0.000000 
0.154812 0.349456 0.000000 
0.153972 0.403309 0.000000 
0.161681 0.384439 0.000000 
0.378780 0.388403 0.000000 
0.366762 0.375451 0.000000 
0.350756 0.379122 0.000000 
0.371619 0.359763 0.000000 
0.347435 0.394639 0.000000 
0.358611 0.406723 0.000000 
0.332509 0.403256 0.000000 
0.335056 0.420323 0.000000 
0.338377 0.367309 0.000000 
0.360764 0.346537 0.000000 
0.387341 0.357612 0.000000 
0.397050 0.343371 0.000000 
0.398556 0.369660 0.000000 
0.413878 0.347187 0.000000 
0.321739 0.371934 0.000000 
0.343529 0.350411 0.000000 
0.369382 0.331658 0.000000 
0.075780 0.268067 0.000000 
0.106539 0.267794 0.000000 
0.131220 0.121597 0.000000 
0.143238 0.134549 0.000000 
0.159244 0.130878 0.000000 
0.138381 0.150237 0.000000 
0.162769 0.115777 0.000000 
0.151593 0.103693 0.000000 
0.178716 0.109239 0.000000 
0.176169 0.092173 0.000000 
0.171623 0.142691 0.000000 
0.149236 0.163463 0.000000 
0.122659 0.152388 0.000000 
0.112950 0.166629 0.000000 
0.111444 0.140340 0.000000 
0.096122 0.162813 0.000000 
0.188261 0.138066 0.000000 
0.166471 0.159589 0.000000 
0.143380 0.179709 0.000000 
0.357515 0.104638 0.000000 
0.347562 0.119237 0.000000 
0.354702 0.134025 0.000000 
0.331187 0.117993 0.000000 
0.370123 0.134051 0.000000 
0.379417 0.120466 0.000000 
0.379616 0.147889 0.000000 
0.395687 0.141608 0.000000 
0.345940 0.148722 0.000000 
0.320707 0.131519 0.000000 
0.325590 0.103144 0.000000 
0.309547 0.096847 0.000000 
0.334841 0.089529 0.000000 
0.309522 0.079592 0.000000 
0.354152 0.163914 0.000000 
0.328320 0.147460 0.000000 
0.303566 0.129425 0.000000 
0.436474 0.241400 0.000000 
0.418855 0.242721 0.000000 
0.411745 0.257524 0.000000 
0.409618 0.229142 0.000000 
0.421340 0.269596 0.000000 
0.437756 0.268393 0.000000 
0.416439 0.285646 0.000000 
0.431370 0.294295 0.000000 
0.394791 0.259836 0.000000 
0.392509 0.229383 0.000000 
0.417738 0.215509 0.000000 
0.412658 0.199040 0.000000 
0.434150 0.214253 0.000000 
0.426133 0.188262 0.000000 
0.388034 0.275728 0.000000 
0.384792 0.245273 0.000000 
0.386250 0.213368 0.000000 
0.410372 0.165213 0.000000 
0.395239 0.178869 0.000000 
0.202380 0.083181 0.000000 
0.210905 0.114262 0.000000 
0.281984 0.073307 0.000000 
0.274475 0.088843 0.000000 
0.073526 0.241400 0.000000 
0.089705 0.243843 0.000000 
0.098942 0.230264 0.000000 
0.091960 0.260545 0.000000 
0.092262 0.215509 0.000000 
0.075850 0.214253 0.000000 
0.097342 0.199040 0.000000 
0.083867 0.188262 0.000000 
0.116051 0.230505 0.000000 
0.127169 0.213372 0.000000 
0.121393 0.251332 0.000000 
0.227877 0.075049 0.000000 
0.230510 0.092521 0.000000 
0.245803 0.098505 0.000000 
0.214728 0.098435 0.000000 
0.257288 0.087555 0.000000 
0.254861 0.071274 0.000000 
0.280753 0.105665 0.000000 
0.247813 0.116958 0.000000 
0.265576 0.122831 0.000000 
0.228696 0.126801 0.000000 
0.422072 0.320493 0.000000 
0.401959 0.317176 0.000000 
0.307427 0.426295 0.000000 
0.304466 0.403134 0.000000 
0.189113 0.388780 0.000000 
0.319192 0.392365 0.000000 
0.372407 0.163055 0.000000 
0.109049 0.286483 0.000000 
0.191829 0.119714 0.000000 
0.400087 0.289466 0.000000 
0.267534 0.373677 0.000000 
0.358261 0.318396 0.000000 
0.293111 0.143218 0.000000 
0.170216 0.341566 0.000000 
0.154501 0.192971 0.000000 
0.368947 0.213794 0.000000 
0.206906 0.362864 0.000000 
0.309345 0.359854 0.000000 
0.345132 0.178685 0.000000 
0.140682 0.284651 0.000000 
0.200655 0.150146 0.000000 
0.370862 0.277886 0.000000 
0.276499 0.403483 0.000000 
0.389946 0.330644 0.000000 
0.298001 0.109602 0.000000 
0.151224 0.369731 0.000000 
0.122816 0.180723 0.000000 
0.398279 0.196658 0.000000 
0.256174 0.360796 0.000000 
0.171553 0.189955 0.000000 
0.349125 0.196041 0.000000 
0.334967 0.208831 0.000000 
0.334988 0.225157 0.000000 
0.320839 0.200650 0.000000 
0.353397 0.229283 0.000000 
0.320796 0.234679 0.000000 
0.305497 0.208180 0.000000 
0.326470 0.182644 0.000000 
0.321693 0.251919 0.000000 
0.305433 0.225882 0.000000 
0.291015 0.198783 0.000000 
0.337496 0.263894 0.000000 
0.307211 0.261394 0.000000 
0.275568 0.206587 0.000000 
0.288545 0.179110 0.000000 
0.238964 0.366700 0.000000 
0.260547 0.344160 0.000000 
0.177668 0.172818 0.000000 
0.291762 0.253570 0.000000 
0.245842 0.334250 0.000000 
0.278472 0.343629 0.000000 
0.291536 0.359885 0.000000 
0.277257 0.263036 0.000000 
0.290882 0.235299 0.000000 
0.226764 0.340172 0.000000 
0.278203 0.280330 0.000000 
0.261807 0.255208 0.000000 
0.293654 0.288158 0.000000 
0.263699 0.289797 0.000000 
0.247302 0.264674 0.000000 
0.260928 0.235844 0.000000 
0.308157 0.278687 0.000000 
0.264740 0.308251 0.000000 
0.248248 0.281969 0.000000 
0.233744 0.291435 0.000000 
0.232302 0.308569 0.000000 
0.247847 0.317557 0.000000 
0.211761 0.319237 0.000000 
0.218293 0.283607 0.000000 
0.199807 0.293058 0.000000 
0.217347 0.266313 0.000000 
0.194717 0.311553 0.000000 
0.174174 0.321184 0.000000 
0.178473 0.284510 0.000000 
0.201896 0.258485 0.000000 
0.231852 0.256846 0.000000 
0.181508 0.267232 0.000000 
0.200950 0.241190 0.000000 
0.230906 0.239551 0.000000 
0.184030 0.226929 0.000000 
0.215455 0.231723 0.000000 
0.214509 0.214429 0.000000 
0.200725 0.202655 0.000000 
0.205073 0.182105 0.000000 
0.229013 0.204962 0.000000 
0.223376 0.184959 0.000000 
0.244531 0.210721 0.000000 
0.260051 0.199736 0.000000 
0.299803 0.164462 0.000000 
0.195778 0.348959 0.000000 
0.208228 0.334146 0.000000 
0.222015 0.144334 0.000000 
0.338447 0.320045 0.000000 
0.332332 0.337182 0.000000 
0.324952 0.307606 0.000000 
0.307362 0.313104 0.000000 
0.303311 0.330360 0.000000 
0.284805 0.331960 0.000000 
0.278871 0.315250 0.000000 
0.293281 0.304624 0.000000 
0.138440 0.260626 0.000000 
0.359782 0.291830 0.000000 
0.340231 0.284337 0.000000 
0.245477 0.228016 0.000000 
0.284971 0.373296 0.000000 
0.290761 0.393640 0.000000 
0.145965 0.210695 0.000000 
0.184751 0.205688 0.000000 
0.275498 0.225401 0.000000 
0.272369 0.140561 0.000000 
0.224258 0.355986 0.000000 
0.195214 0.168002 0.000000 
0.368836 0.304525 0.000000 
0.391969 0.304320 0.000000 
0.364696 0.196878 0.000000 
0.378958 0.178664 0.000000 
0.158036 0.293232 0.000000 
0.181386 0.354961 0.000000 
0.176439 0.377560 0.000000 
0.314786 0.341998 0.000000 
0.355809 0.261469 0.000000 
0.325374 0.289655 0.000000 
0.317870 0.166610 0.000000 
0.158828 0.311410 0.000000 
0.362983 0.244748 0.000000 
0.271082 0.171546 0.000000 
0.258035 0.184368 0.000000 
0.261597 0.154242 0.000000 
0.236878 0.175350 0.000000 
0.115140 0.196662 0.000000 
0.238393 0.155981 0.000000 
0.169108 0.244050 0.000000 
0.151894 0.237121 0.000000 
0.730743 0.935247 0.000000 
0.626050 0.595842 0.000000 
0.934931 0.773227 0.000000 
0.561575 0.801893 0.000000 
0.840390 0.579779 0.000000 
0.786239 0.928394 0.000000 
0.626050 0.894158 0.000000 
0.730743 0.554753 0.000000 
0.884852 0.874764 0.000000 
0.560966 0.688514 0.000000 
0.916887 0.662223 0.000000 
0.675217 0.923888 0.000000 
0.676321 0.569487 0.000000 
0.916887 0.827777 0.000000 
0.554219 0.745000 0.000000 
0.885489 0.614105 0.000000 
0.587370 0.852470 0.000000 
0.787453 0.559003 0.000000 
0.841487 0.911582 0.000000 
0.586094 0.636334 0.000000 
0.933650 0.716566 0.000000 
0.702547 0.930997 0.000000 
0.648717 0.578834 0.000000 
0.924973 0.800241 0.000000 
0.558605 0.772902 0.000000 
0.863950 0.595842 0.000000 
0.758875 0.936469 0.000000 
0.603699 0.875741 0.000000 
0.759118 0.553011 0.000000 
0.863950 0.894158 0.000000 
0.573113 0.662223 0.000000 
0.929034 0.688514 0.000000 
0.651096 0.908168 0.000000 
0.702547 0.559003 0.000000 
0.903906 0.853666 0.000000 
0.556350 0.716566 0.000000 
0.900400 0.638734 0.000000 
0.573113 0.827777 0.000000 
0.815581 0.565898 0.000000 
0.814700 0.922593 0.000000 
0.605148 0.615236 0.000000 
0.935781 0.745000 0.000000 
0.717877 0.924951 0.000000 
0.720510 0.907479 0.000000 
0.707660 0.897254 0.000000 
0.735803 0.901495 0.000000 
0.693756 0.903921 0.000000 
0.691276 0.920194 0.000000 
0.679198 0.895572 0.000000 
0.667444 0.908204 0.000000 
0.709178 0.880210 0.000000 
0.739376 0.884762 0.000000 
0.747045 0.911925 0.000000 
0.763019 0.908033 0.000000 
0.744618 0.928205 0.000000 
0.770528 0.923569 0.000000 
0.695189 0.870086 0.000000 
0.725601 0.873703 0.000000 
0.754098 0.880641 0.000000 
0.587398 0.835992 0.000000 
0.602699 0.827157 0.000000 
0.602682 0.810735 0.000000 
0.616913 0.835383 0.000000 
0.588744 0.803938 0.000000 
0.574476 0.812146 0.000000 
0.585919 0.786936 0.000000 
0.568714 0.785622 0.000000 
0.616954 0.801296 0.000000 
0.632223 0.827743 0.000000 
0.615512 0.851189 0.000000 
0.627235 0.863824 0.000000 
0.601271 0.859442 0.000000 
0.619771 0.879381 0.000000 
0.616147 0.784046 0.000000 
0.632281 0.810078 0.000000 
0.644812 0.839456 0.000000 
0.643972 0.893309 0.000000 
0.651681 0.874439 0.000000 
0.868780 0.878403 0.000000 
0.856762 0.865451 0.000000 
0.840756 0.869122 0.000000 
0.861619 0.849763 0.000000 
0.837435 0.884639 0.000000 
0.848611 0.896723 0.000000 
0.822509 0.893256 0.000000 
0.825056 0.910323 0.000000 
0.828377 0.857309 0.000000 
0.850764 0.836537 0.000000 
0.877341 0.847612 0.000000 
0.887050 0.833371 0.000000 
0.888556 0.859660 0.000000 
0.903878 0.837187 0.000000 
0.811739 0.861934 0.000000 
0.833529 0.840411 0.000000 
0.859382 0.821658 0.000000 
0.565780 0.758067 0.000000 
0.596539 0.757794 0.000000 
0.621220 0.611597 0.000000 
0.633238 0.624549 0.000000 
0.649244 0.620878 0.000000 
0.628381 0.640237 0.000000 
0.652769 0.605777 0.000000 
0.641593 0.593693 0.000000 
0.668716 0.599239 0.000000 
0.666169 0.582173 0.000000 
0.661623 0.632691 0.000000 
0.639236 0.653463 0.000000 
0.612659 0.642388 0.000000 
0.602950 0.656629 0.000000 
0.601444 0.630340 0.000000 
0.586122 0.652813 0.000000 
0.678261 0.628066 0.000000 
0.656471 0.649589 0.000000 
0.633380 0.669709 0.000000 
0.847515 0.594638 0.000000 
0.837562 0.609237 0.000000 
0.844702 0.624025 0.000000 
0.821187 0.607993 0.000000 
0.860123 0.624051 0.000000 
0.869417 0.610466 0.000000 
0.869616 0.637889 0.000000 
0.885687 0.631608 0.000000 
0.835940 0.638722 0.000000 
0.810707 0.621519 0.000000 
0.815590 0.593144 0.000000 
0.799547 0.586847 0.000000 
0.824841 0.579529 0.000000 
0.799522 0.569592 0.000000 
0.844152 0.653914 0.000000 
0.818320 0.637460 0.000000 
0.793566 0.619425 0.000000 
0.926474 0.731400 0.000000 
0.908855 0.732721 0.000000 
0.901745 0.747524 0.000000 
0.899618 0.719142 0.000000 
0.911340 0.759596 0.000000 
0.927756 0.758393 0.000000 
0.906439 0.775646 0.000000 
0.921370 0.784295 0.000000 
0.884791 0.749836 0.000000 
0.882509 0.719383 0.000000 
0.907738 0.705509 0.000000 
0.902658 0.689040 0.000000 
0.924150 0.704253 0.000000 
0.916133 0.678262 0.000000 
0.878034 0.765728 0.000000 
0.874792 0.735273 0.000000 
0.876250 0.703368 0.000000 
0.900372 0.655213 0.000000 
0.885239 0.668869 0.000000 
0.692380 0.573181 0.000000 
0.700905 0.604262 0.000000 
0.771984 0.563307 0.000000 
0.764475 0.578843 0.000000 
0.563526 0.731400 0.000000 
0.579705 0.733843 0.000000 
0.588942 0.720264 0.000000 
0.581960 0.750545 0.000000 
0.582262 0.705509 0.000000 
0.565850 0.704253 0.000000 
0.587342 0.689040 0.000000 
0.573867 0.678262 0.000000 
0.606051 0.720505 0.000000 
0.617169 0.703372 0.000000 
0.611393 0.741332 0.000000 
0.717877 0.565049 0.000000 
0.720510 0.582521 0.000000 
0.735803 0.588505 0.000000 
0.704728 0.588435 0.000000 
0.747288 0.577555 0.000000 
0.744861 0.561274 0.000000 
0.770753 0.595665 0.000000 
0.737813 0.606958 0.000000 
0.755576 0.612831 0.000000 
0.718696 0.616801 0.000000 
0.912072 0.810493 0.000000 
0.891959 0.807176 0.000000 
0.797427 0.916295 0.000000 
0.794466 0.893134 0.000000 
0.679113 0.878780 0.000000 
0.809192 0.882365 0.000000 
0.862407 0.653055 0.000000 
0.599049 0.776483 0.000000 
0.681829 0.609714 0.000000 
0.890087 0.779466 0.000000 
0.757534 0.863677 0.000000 
0.848261 0.808396 0.000000 
0.783111 0.633218 0.000000 
0.660216 0.831566 0.000000 
0.644501 0.682971 0.000000 
0.858947 0.703794 0.000000 
0.696906 0.852864 0.000000 
0.799345 0.849854 0.000000 
0.835132 0.668685 0.000000 
0.630682 0.774651 0.000000 
0.690655 0.640146 0.000000 
0.860862 0.767886 0.000000 
0.766499 0.893483 0.000000 
0.879946 0.820644 0.000000 
0.788001 0.599602 0.000000 
0.641224 0.859731 0.000000 
0.612816 0.670723 0.000000 
0.888279 0.686658 0.000000 
0.746174 0.850796 0.000000 
0.661553 0.679955 0.000000 
0.839125 0.686041 0.000000 
0.824967 0.698831 0.000000 
0.824988 0.715157 0.000000 
0.810839 0.690650 0.000000 
0.843397 0.719283 0.000000 
0.810796 0.724679 0.000000 
0.795497 0.698180 0.000000 
0.816470 0.672644 0.000000 
0.811693 0.741919 0.000000 
0.795433 0.715882 0.000000 
0.781015 0.688783 0.000000 
0.827496 0.753894 0.000000 
0.797211 0.751394 0.000000 
0.765568 0.696587 0.000000 
0.778545 0.669110 0.000000 
0.728964 0.856700 0.000000 
0.750547 0.834160 0.000000 
0.667668 0.662818 0.000000 
0.781762 0.743570 0.000000 
0.735842 0.824250 0.000000 
0.768472 0.833629 0.000000 
0.781536 0.849885 0.000000 
0.767257 0.753036 0.000000 
0.780882 0.725299 0.000000 
0.716764 0.830172 0.000000 
0.768203 0.770330 0.000000 
0.751807 0.745208 0.000000 
0.783654 0.778158 0.000000 
0.753699 0.779797 0.000000 
0.737302 0.754674 0.000000 
0.750928 0.725844 0.000000 
0.798157 0.768687 0.000000 
0.754740 0.798251 0.000000 
0.738248 0.771969 0.000000 
0.723744 0.781435 0.000000 
0.722302 0.798569 0.000000 
0.737847 0.807557 0.000000 
0.701761 0.809237 0.000000 
0.708293 0.773607 0.000000 
0.689807 0.783058 0.000000 
0.707347 0.756313 0.000000 
0.684717 0.801553 0.000000 
0.664174 0.811184 0.000000 
0.668473 0.774510 0.000000 
0.691896 0.748485 0.000000 
0.721852 0.746846 0.000000 
0.671508 0.757232 0.000000 
0.690950 0.731190 0.000000 
0.720906 0.729551 0.000000 
0.674030 0.716929 0.000000 
0.705455 0.721723 0.000000 
0.704509 0.704429 0.000000 
0.690725 0.692655 0.000000 
0.695073 0.672105 0.000000 
0.719013 0.694962 0.000000 
0.713376 0.674959 0.000000 
0.734531 0.700721 0.000000 
0.750051 0.689736 0.000000 
0.789803 0.654462 0.000000 
0.685778 0.838959 0.000000 
0.698228 0.824146 0.000000 
0.712015 0.634334 0.000000 
0.828447 0.810045 0.000000 
0.822332 0.827182 0.000000 
0.814952 0.797606 0.000000 
0.797362 0.803104 0.000000 
0.793311 0.820360 0.000000 
0.774805 0.821960 0.000000 
0.768871 0.805250 0.000000 
0.783281 0.794624 0.000000 
0.628440 0.750626 0.000000 
0.849782 0.781830 0.000000 
0.830231 0.774337 0.000000 
0.735477 0.718016 0.000000 
0.774971 0.863296 0.000000 
0.780761 0.883640 0.000000 
0.635965 0.700695 0.000000 
0.674751 0.695688 0.000000 
0.765498 0.715401 0.000000 
0.762369 0.630561 0.000000 
0.714258 0.845986 0.000000 
0.685214 0.658002 0.000000 
0.858836 0.794525 0.000000 
0.881969 0.794320 0.000000 
0.854696 0.686878 0.000000 
0.868958 0.668664 0.000000 
0.648036 0.783232 0.000000 
0.671386 0.844961 0.000000 
0.666439 0.867560 0.000000 
0.804786 0.831998 0.000000 
0.845809 0.751469 0.000000 
0.815374 0.779655 0.000000 
0.807870 0.656610 0.000000 
0.648828 0.801410 0.000000 
0.852983 0.734748 0.000000 
0.761082 0.661546 0.000000 
0.748035 0.674368 0.000000 
0.751597 0.644242 0.000000 
0.726878 0.665350 0.000000 
0.605140 0.686662 0.000000 
0.728393 0.645981 0.000000 
0.659108 0.734050 0.000000 
0.641894 0.727121 0.000000 
VECTORS X_EC float 
0.095059 -0.185141 0.000000 
0.883164 -0.278994 0.000000 
-0.664545 -0.101376 0.000000 
0.762136 0.431502 0.000000 
-0.795585 0.007805 0.000000 
0.232125 0.924779 0.000000 
0.916836 -0.278994 0.000000 
-0.295059 -0.185141 0.000000 
-0.695274 0.897040 0.000000 
-0.970289 0.419313 0.000000 
-0.444469 -0.462254 0.000000 
0.322238 0.704336 0.000000 
-0.589736 0.726417 0.000000 
0.244469 -0.462254 0.000000 
-0.100000 0.284390 0.000000 
0.517896 0.909782 0.000000 
-0.249410 0.947395 0.000000 
-0.380055 0.949053 0.000000 
0.568360 0.029736 0.000000 
0.073314 0.921885 0.000000 
0.468687 -0.127007 0.000000 
0.180055 -0.749053 0.000000 
-0.776677 0.174347 0.000000 
0.795182 -0.300545 0.000000 
-0.658037 0.372095 0.000000 
0.883164 0.478994 0.000000 
0.070625 0.377502 0.000000 
-0.714825 -0.726021 0.000000 
-0.260211 0.382357 0.000000 
0.916836 0.478994 0.000000 
-0.444469 0.662254 0.000000 
-0.970289 -0.219313 0.000000 
0.636636 0.221928 0.000000 
-0.380055 -0.749053 0.000000 
-0.273314 -0.721885 0.000000 
0.468687 0.327007 0.000000 
0.025324 -0.791995 0.000000 
0.244469 0.662254 0.000000 
-0.517959 -0.488373 0.000000 
0.348149 -0.506001 0.000000 
0.495274 -0.697040 0.000000 
-0.100000 -0.084390 0.000000 
0.300986 -0.442464 0.000000 
0.650411 -0.389797 0.000000 
0.854929 -0.646798 0.000000 
0.770091 -0.083931 0.000000 
0.721572 -0.924887 0.000000 
0.396124 -0.974476 0.000000 
0.888559 0.783969 0.000000 
0.635915 0.548876 0.000000 
-0.804206 -0.616431 0.000000 
-0.895238 -0.012477 0.000000 
0.561506 0.140904 0.000000 
0.639335 0.460371 0.000000 
0.235899 0.092362 0.000000 
0.328621 0.610552 0.000000 
-0.601726 -0.896230 0.000000 
-0.674053 -0.287976 0.000000 
-0.812814 0.281966 0.000000 
0.080167 0.947957 0.000000 
0.256853 -0.746014 0.000000 
0.585299 -0.746353 0.000000 
0.092336 -0.461741 0.000000 
0.721232 0.974889 0.000000 
0.557088 0.689525 0.000000 
-0.938727 0.918373 0.000000 
-0.912444 0.574271 0.000000 
0.774083 -0.460921 0.000000 
0.245136 -0.155533 0.000000 
-0.223786 -0.489752 0.000000 
-0.476472 -0.255293 0.000000 
-0.388846 -0.774587 0.000000 
-0.787615 -0.404583 0.000000 
-0.880917 -0.477068 0.000000 
0.598436 -0.154375 0.000000 
0.010875 0.096232 0.000000 
0.933818 0.079436 0.000000 
-0.688772 0.233623 0.000000 
-0.768064 0.575602 0.000000 
-0.509024 0.335248 0.000000 
-0.582440 0.015112 0.000000 
-0.195270 0.432383 0.000000 
-0.892775 -0.051301 0.000000 
0.865542 0.172228 0.000000 
0.934873 -0.349824 0.000000 
0.593549 -0.298877 0.000000 
-0.346173 -0.232454 0.000000 
0.069260 0.215277 0.000000 
-0.152234 0.746812 0.000000 
0.132574 0.940991 0.000000 
-0.393199 0.971116 0.000000 
0.056263 -0.722447 0.000000 
-0.438685 -0.565211 0.000000 