# vtk DataFile Version 3.0 
vtk output 
ASCII 
DATASET UNSTRUCTURED_GRID 
POINTS 616 float 
0.287241 0.491990 0.000000 
0.182716 0.152440 0.000000 
0.491531 0.330138 0.000000 
0.118108 0.358506 0.000000 
0.397205 0.136561 0.000000 
0.342719 0.485135 0.000000 
0.182533 0.450871 0.000000 
0.287492 0.111444 0.000000 
0.439541 0.429707 0.000000 
0.117565 0.245074 0.000000 
0.473672 0.219104 0.000000 
0.231706 0.480651 0.000000 
0.233031 0.126125 0.000000 
0.473323 0.384558 0.000000 
0.110775 0.301564 0.000000 
0.442297 0.170959 0.000000 
0.143870 0.409132 0.000000 
0.344243 0.115746 0.000000 
0.397792 0.468150 0.000000 
0.142726 0.192905 0.000000 
0.490333 0.273462 0.000000 
0.259040 0.487753 0.000000 
0.205405 0.135447 0.000000 
0.481518 0.357111 0.000000 
0.115150 0.329491 0.000000 
0.420763 0.152664 0.000000 
0.315367 0.493204 0.000000 
0.160184 0.432420 0.000000 
0.315889 0.109728 0.000000 
0.419219 0.449643 0.000000 
0.129730 0.218786 0.000000 
0.485775 0.245408 0.000000 
0.207587 0.464923 0.000000 
0.259281 0.115667 0.000000 
0.459867 0.409950 0.000000 
0.112929 0.273127 0.000000 
0.457202 0.195600 0.000000 
0.129630 0.384415 0.000000 
0.372390 0.122665 0.000000 
0.371144 0.479307 0.000000 
0.161795 0.171821 0.000000 
0.492406 0.301896 0.000000 
0.274359 0.481694 0.000000 
0.276964 0.464210 0.000000 
0.264107 0.453981 0.000000 
0.292238 0.458217 0.000000 
0.250219 0.460659 0.000000 
0.247758 0.476946 0.000000 
0.235664 0.452307 0.000000 
0.223925 0.464955 0.000000 
0.265600 0.436925 0.000000 
0.295775 0.441472 0.000000 
0.303493 0.468646 0.000000 
0.319427 0.464726 0.000000 
0.301102 0.484936 0.000000 
0.326980 0.480284 0.000000 
0.251614 0.426795 0.000000 
0.281995 0.430410 0.000000 
0.310463 0.437330 0.000000 
0.143904 0.392643 0.000000 
0.159202 0.383810 0.000000 
0.159195 0.367377 0.000000 
0.173404 0.392048 0.000000 
0.145266 0.360568 0.000000 
0.131000 0.368773 0.000000 
0.142450 0.343552 0.000000 
0.125251 0.342227 0.000000 
0.173466 0.357939 0.000000 
0.188712 0.384411 0.000000 
0.172000 0.407866 0.000000 
0.183719 0.420516 0.000000 
0.157763 0.416115 0.000000 
0.176254 0.436077 0.000000 
0.172670 0.340678 0.000000 
0.188782 0.366736 0.000000 
0.201285 0.396138 0.000000 
0.200460 0.450045 0.000000 
0.208160 0.431158 0.000000 
0.423956 0.433810 0.000000 
0.412329 0.421256 0.000000 
0.396540 0.425166 0.000000 
0.417267 0.405643 0.000000 
0.393424 0.440893 0.000000 
0.404663 0.453011 0.000000 
0.378656 0.449678 0.000000 
0.381372 0.466911 0.000000 
0.384148 0.413349 0.000000 
0.406503 0.392468 0.000000 
0.433201 0.403734 0.000000 
0.443139 0.389732 0.000000 
0.444114 0.415504 0.000000 
0.460142 0.393775 0.000000 
0.367661 0.418147 0.000000 
0.389331 0.396432 0.000000 
0.415292 0.377747 0.000000 
0.122329 0.314650 0.000000 
0.153082 0.314397 0.000000 
0.177870 0.168191 0.000000 
0.189874 0.181149 0.000000 
0.205885 0.177490 0.000000 
0.185002 0.196834 0.000000 
0.209427 0.162391 0.000000 
0.198263 0.150299 0.000000 
0.225389 0.155866 0.000000 
0.222860 0.138800 0.000000 
0.218254 0.189309 0.000000 
0.195845 0.210064 0.000000 
0.169284 0.198974 0.000000 
0.159564 0.213209 0.000000 
0.158079 0.186921 0.000000 
0.142743 0.209382 0.000000 
0.234904 0.184697 0.000000 
0.213083 0.206200 0.000000 
0.189978 0.226310 0.000000 
0.404320 0.151426 0.000000 
0.394340 0.166003 0.000000 
0.401471 0.180791 0.000000 
0.377952 0.164745 0.000000 
0.416905 0.180849 0.000000 
0.426219 0.167291 0.000000 
0.426392 0.194699 0.000000 
0.442482 0.188452 0.000000 
0.392682 0.195471 0.000000 
0.367448 0.178255 0.000000 
0.372368 0.149898 0.000000 
0.356317 0.143590 0.000000 
0.381642 0.136299 0.000000 
0.356312 0.126343 0.000000 
0.400878 0.210657 0.000000 
0.375049 0.194195 0.000000 
0.350293 0.176148 0.000000 
0.483119 0.288268 0.000000 
0.465481 0.289527 0.000000 
0.458336 0.304292 0.000000 
0.456265 0.275930 0.000000 
0.467904 0.316383 0.000000 
0.484345 0.315252 0.000000 
0.462943 0.332382 0.000000 
0.477913 0.341127 0.000000 
0.441360 0.306536 0.000000 
0.439139 0.276116 0.000000 
0.464421 0.262334 0.000000 
0.459371 0.245865 0.000000 
0.480852 0.261126 0.000000 
0.472883 0.235130 0.000000 
0.434513 0.322338 0.000000 
0.431382 0.291958 0.000000 
0.432907 0.260105 0.000000 
0.457155 0.212066 0.000000 
0.441977 0.225676 0.000000 
0.249093 0.129833 0.000000 
0.257586 0.160915 0.000000 
0.328756 0.120034 0.000000 
0.321223 0.135557 0.000000 
0.120093 0.287969 0.000000 
0.136269 0.290423 0.000000 
0.145514 0.276848 0.000000 
0.138510 0.307133 0.000000 
0.138845 0.262086 0.000000 
0.122437 0.260819 0.000000 
0.143936 0.245617 0.000000 
0.130472 0.234828 0.000000 
0.162620 0.277101 0.000000 
0.173748 0.259971 0.000000 
0.167948 0.297936 0.000000 
0.274610 0.121727 0.000000 
0.277225 0.139196 0.000000 
0.292518 0.145192 0.000000 
0.261429 0.145095 0.000000 
0.304021 0.134254 0.000000 
0.301609 0.117976 0.000000 
0.327488 0.152378 0.000000 
0.294509 0.163642 0.000000 
0.312277 0.169524 0.000000 
0.275372 0.173467 0.000000 
0.468503 0.367228 0.000000 
0.448244 0.363703 0.000000 
0.353829 0.472969 0.000000 
0.350716 0.449673 0.000000 
0.235565 0.435499 0.000000 
0.365296 0.438756 0.000000 
0.419155 0.209838 0.000000 
0.155582 0.333100 0.000000 
0.238496 0.166351 0.000000 
0.446515 0.336083 0.000000 
0.313843 0.420335 0.000000 
0.404270 0.364543 0.000000 
0.339813 0.189926 0.000000 
0.216679 0.388242 0.000000 
0.201088 0.239584 0.000000 
0.415586 0.260479 0.000000 
0.253308 0.409555 0.000000 
0.355324 0.406127 0.000000 
0.391817 0.225394 0.000000 
0.187207 0.331286 0.000000 
0.247291 0.196785 0.000000 
0.417284 0.324394 0.000000 
0.322853 0.450140 0.000000 
0.436046 0.376973 0.000000 
0.344747 0.156328 0.000000 
0.197703 0.416430 0.000000 
0.169418 0.227311 0.000000 
0.444983 0.243450 0.000000 
0.302497 0.407477 0.000000 
0.218139 0.236570 0.000000 
0.395775 0.242721 0.000000 
0.381573 0.255476 0.000000 
0.381555 0.271772 0.000000 
0.367449 0.247301 0.000000 
0.399977 0.275899 0.000000 
0.367324 0.281268 0.000000 
0.352073 0.254808 0.000000 
0.373130 0.229332 0.000000 
0.368181 0.298478 0.000000 
0.351965 0.272479 0.000000 
0.337600 0.245417 0.000000 
0.383967 0.310430 0.000000 
0.353652 0.307928 0.000000 
0.322117 0.253199 0.000000 
0.335179 0.225776 0.000000 
0.285322 0.413392 0.000000 
0.306862 0.390800 0.000000 
0.224269 0.219435 0.000000 
0.338207 0.300112 0.000000 
0.292192 0.380892 0.000000 
0.324703 0.390166 0.000000 
0.337646 0.406316 0.000000 
0.323654 0.309556 0.000000 
0.337372 0.281871 0.000000 
0.273139 0.386829 0.000000 
0.324560 0.326846 0.000000 
0.308219 0.301741 0.000000 
0.339985 0.334649 0.000000 
0.310054 0.336348 0.000000 
0.293710 0.311220 0.000000 
0.307392 0.282408 0.000000 
0.354524 0.325177 0.000000 
0.311075 0.354825 0.000000 
0.294635 0.328532 0.000000 
0.280146 0.338026 0.000000 
0.278693 0.355183 0.000000 
0.294207 0.364174 0.000000 
0.258176 0.365876 0.000000 
0.264725 0.330202 0.000000 
0.246260 0.339679 0.000000 
0.263797 0.312892 0.000000 
0.241164 0.358196 0.000000 
0.220646 0.367846 0.000000 
0.224966 0.331144 0.000000 
0.248381 0.305079 0.000000 
0.278298 0.303410 0.000000 
0.228010 0.313851 0.000000 
0.247463 0.287792 0.000000 
0.277390 0.286133 0.000000 
0.230576 0.273543 0.000000 
0.261968 0.278321 0.000000 
0.261052 0.261038 0.000000 
0.247292 0.249272 0.000000 
0.251669 0.228732 0.000000 
0.275567 0.251577 0.000000 
0.269969 0.231590 0.000000 
0.291067 0.257329 0.000000 
0.306608 0.246354 0.000000 
0.346481 0.211161 0.000000 
0.242196 0.395635 0.000000 
0.254637 0.380803 0.000000 
0.268668 0.190990 0.000000 
0.384508 0.366276 0.000000 
0.378296 0.383357 0.000000 
0.371140 0.353957 0.000000 
0.353568 0.359506 0.000000 
0.349455 0.376743 0.000000 
0.331030 0.378453 0.000000 
0.325158 0.361775 0.000000 
0.339557 0.351096 0.000000 
0.184982 0.307245 0.000000 
0.406042 0.338182 0.000000 
0.386562 0.330766 0.000000 
0.291973 0.274602 0.000000 
0.331166 0.419824 0.000000 
0.337015 0.440199 0.000000 
0.192543 0.257306 0.000000 
0.231319 0.252305 0.000000 
0.321997 0.271981 0.000000 
0.319056 0.187253 0.000000 
0.270626 0.402664 0.000000 
0.241826 0.214629 0.000000 
0.415000 0.350818 0.000000 
0.438265 0.350806 0.000000 
0.411364 0.243583 0.000000 
0.425680 0.225435 0.000000 
0.204548 0.339883 0.000000 
0.227823 0.401645 0.000000 
0.222898 0.424270 0.000000 
0.360816 0.388275 0.000000 
0.402317 0.308020 0.000000 
0.371676 0.336082 0.000000 
0.364559 0.213320 0.000000 
0.205326 0.358071 0.000000 
0.409547 0.291357 0.000000 
0.317720 0.218213 0.000000 
0.304631 0.231009 0.000000 
0.308261 0.200921 0.000000 
0.283491 0.221997 0.000000 
0.161732 0.243250 0.000000 
0.285043 0.202646 0.000000 
0.215651 0.290674 0.000000 
0.198454 0.283744 0.000000 
0.683977 0.888534 0.000000 
0.580783 0.550384 0.000000 
0.888359 0.726667 0.000000 
0.514838 0.754983 0.000000 
0.793904 0.533031 0.000000 
0.739513 0.881743 0.000000 
0.579231 0.847316 0.000000 
0.684263 0.508024 0.000000 
0.838198 0.828186 0.000000 
0.514380 0.641590 0.000000 
0.870363 0.615590 0.000000 
0.628403 0.877111 0.000000 
0.629886 0.522800 0.000000 
0.870277 0.781209 0.000000 
0.507578 0.698085 0.000000 
0.839000 0.567420 0.000000 
0.540576 0.805583 0.000000 
0.740971 0.512250 0.000000 
0.794799 0.864991 0.000000 
0.540128 0.590059 0.000000 
0.887105 0.669982 0.000000 
0.655755 0.884251 0.000000 
0.602403 0.532280 0.000000 
0.878381 0.753675 0.000000 
0.511918 0.725993 0.000000 
0.817467 0.549130 0.000000 
0.712130 0.889787 0.000000 
0.556891 0.828867 0.000000 
0.712634 0.506263 0.000000 
0.817277 0.847576 0.000000 
0.526666 0.615432 0.000000 
0.882498 0.641906 0.000000 
0.604277 0.861370 0.000000 
0.656050 0.512255 0.000000 
0.857275 0.807096 0.000000 
0.509740 0.669646 0.000000 
0.853892 0.592074 0.000000 
0.526339 0.780879 0.000000 
0.769101 0.519139 0.000000 
0.767990 0.875973 0.000000 
0.560465 0.570320 0.000000 
0.889230 0.698441 0.000000 
0.671109 0.878225 0.000000 
0.673767 0.860763 0.000000 
0.660915 0.850526 0.000000 
[...]
POINT_DATA 616 
VECTORS X_GC float 
0.287241 0.491990 0.000000 
0.182716 0.152440 0.000000 
0.491531 0.330138 0.000000 
0.118108 0.358506 0.000000 
0.397205 0.136561 0.000000 
0.342719 0.485135 0.000000 
0.182533 0.450871 0.000000 
0.287492 0.111444 0.000000 
0.439541 0.429707 0.000000 
0.117565 0.245074 0.000000 
0.473672 0.219104 0.000000 
0.231706 0.480651 0.000000 
0.233031 0.126125 0.000000 
0.473323 0.384558 0.000000 
0.110775 0.301564 0.000000 
0.442297 0.170959 0.000000 
0.143870 0.409132 0.000000 
0.344243 0.115746 0.000000 
0.397792 0.468150 0.000000 
0.142726 0.192905 0.000000 
0.490333 0.273462 0.000000 
0.259040 0.487753 0.000000 
0.205405 0.135447 0.000000 
0.481518 0.357111 0.000000 
0.115150 0.329491 0.000000 
0.420763 0.152664 0.000000 
0.315367 0.493204 0.000000 
0.160184 0.432420 0.000000 
0.315889 0.109728 0.000000 
0.419219 0.449643 0.000000 
0.129730 0.218786 0.000000 
0.485775 0.245408 0.000000 
0.207587 0.464923 0.000000 
0.259281 0.115667 0.000000 
0.459867 0.409950 0.000000 
0.112929 0.273127 0.000000 
0.457202 0.195600 0.000000 
0.129630 0.384415 0.000000 
0.372390 0.122665 0.000000 
0.371144 0.479307 0.000000 
0.161795 0.171821 0.000000 
0.492406 0.301896 0.000000 
0.274359 0.481694 0.000000 
0.276964 0.464210 0.000000 
0.264107 0.453981 0.000000 
0.292238 0.458217 0.000000 
0.250219 0.460659 0.000000 
0.247758 0.476946 0.000000 
0.235664 0.452307 0.000000 
0.223925 0.464955 0.000000 
0.265600 0.436925 0.000000 
0.295775 0.441472 0.000000 
0.303493 0.468646 0.000000 
0.319427 0.464726 0.000000 
0.301102 0.484936 0.000000 
0.326980 0.480284 0.000000 
0.251614 0.426795 0.000000 
0.281995 0.430410 0.000000 
0.310463 0.437330 0.000000 
0.143904 0.392643 0.000000 
0.159202 0.383810 0.000000 
0.159195 0.367377 0.000000 
0.173404 0.392048 0.000000 
0.145266 0.360568 0.000000 
0.131000 0.368773 0.000000 
0.142450 0.343552 0.000000 
0.125251 0.342227 0.000000 
0.173466 0.357939 0.000000 
0.188712 0.384411 0.000000 
0.172000 0.407866 0.000000 
0.183719 0.420516 0.000000 
0.157763 0.416115 0.000000 
0.176254 0.436077 0.000000 
0.172670 0.340678 0.000000 
0.188782 0.366736 0.000000 
0.201285 0.396138 0.000000 
0.200460 0.450045 0.000000 
0.208160 0.431158 0.000000 
0.423956 0.433810 0.000000 
0.412329 0.421256 0.000000 
0.396540 0.425166 0.000000 
0.417267 0.405643 0.000000 
0.393424 0.440893 0.000000 
0.404663 0.453011 0.000000 
0.378656 0.449678 0.000000 
0.381372 0.466911 0.000000 
0.384148 0.413349 0.000000 
0.406503 0.392468 0.000000 
0.433201 0.403734 0.000000 
0.443139 0.389732 0.000000 
0.444114 0.415504 0.000000 
0.460142 0.393775 0.000000 
0.367661 0.418147 0.000000 
0.389331 0.396432 0.000000 
0.415292 0.377747 0.000000 
0.122329 0.314650 0.000000 
0.153082 0.314397 0.000000 
0.177870 0.168191 0.000000 
0.189874 0.181149 0.000000 
0.205885 0.177490 0.000000 
0.185002 0.196834 0.000000 
0.209427 0.162391 0.000000 
0.198263 0.150299 0.000000 
0.225389 0.155866 0.000000 
0.222860 0.138800 0.000000 
0.218254 0.189309 0.000000 
0.195845 0.210064 0.000000 
0.169284 0.198974 0.000000 
0.159564 0.213209 0.000000 
0.158079 0.186921 0.000000 
0.142743 0.209382 0.000000 
0.234904 0.184697 0.000000 
0.213083 0.206200 0.000000 
0.189978 0.226310 0.000000 
0.404320 0.151426 0.000000 
0.394340 0.166003 0.000000 
0.401471 0.180791 0.000000 
0.377952 0.164745 0.000000 
0.416905 0.180849 0.000000 
0.426219 0.167291 0.000000 
0.426392 0.194699 0.000000 
0.442482 0.188452 0.000000 
0.392682 0.195471 0.000000 
0.367448 0.178255 0.000000 
0.372368 0.149898 0.000000 
0.356317 0.143590 0.000000 
0.381642 0.136299 0.000000 
0.356312 0.126343 0.000000 
0.400878 0.210657 0.000000 
0.375049 0.194195 0.000000 
0.350293 0.176148 0.000000 
0.483119 0.288268 0.000000 
0.465481 0.289527 0.000000 
0.458336 0.304292 0.000000 
0.456265 0.275930 0.000000 
0.467904 0.316383 0.000000 
0.484345 0.315252 0.000000 
0.462943 0.332382 0.000000 
0.477913 0.341127 0.000000 
0.441360 0.306536 0.000000 
0.439139 0.276116 0.000000 
0.464421 0.262334 0.000000 
0.459371 0.245865 0.000000 
0.480852 0.261126 0.000000 
0.472883 0.235130 0.000000 
0.434513 0.322338 0.000000 
0.431382 0.291958 0.000000 
0.432907 0.260105 0.000000 
0.457155 0.212066 0.000000 
0.441977 0.225676 0.000000 
0.249093 0.129833 0.000000 
0.257586 0.160915 0.000000 
0.328756 0.120034 0.000000 
0.321223 0.135557 0.000000 
0.120093 0.287969 0.000000 
0.136269 0.290423 0.000000 
0.145514 0.276848 0.000000 
0.138510 0.307133 0.000000 
0.138845 0.262086 0.000000 
0.122437 0.260819 0.000000 
0.143936 0.245617 0.000000 
0.130472 0.234828 0.000000 
0.162620 0.277101 0.000000 
0.173748 0.259971 0.000000 
0.167948 0.297936 0.000000 
0.274610 0.121727 0.000000 
0.277225 0.139196 0.000000 
0.292518 0.145192 0.000000 
0.261429 0.145095 0.000000 
0.304021 0.134254 0.000000 
0.301609 0.117976 0.000000 
0.327488 0.152378 0.000000 
0.294509 0.163642 0.000000 
0.312277 0.169524 0.000000 
0.275372 0.173467 0.000000 
0.468503 0.367228 0.000000 
0.448244 0.363703 0.000000 
0.353829 0.472969 0.000000 
0.350716 0.449673 0.000000 
0.235565 0.435499 0.000000 
0.365296 0.438756 0.000000 
0.419155 0.209838 0.000000 
0.155582 0.333100 0.000000 
0.238496 0.166351 0.000000 
0.446515 0.336083 0.000000 
0.313843 0.420335 0.000000 
0.404270 0.364543 0.000000 
0.339813 0.189926 0.000000 
0.216679 0.388242 0.000000 
0.201088 0.239584 0.000000 
0.415586 0.260479 0.000000 
0.253308 0.409555 0.000000 
0.355324 0.406127 0.000000 
0.391817 0.225394 0.000000 
0.187207 0.331286 0.000000 
0.247291 0.196785 0.000000 
0.417284 0.324394 0.000000 
0.322853 0.450140 0.000000 
0.436046 0.376973 0.000000 
0.344747 0.156328 0.000000 
0.197703 0.416430 0.000000 
0.169418 0.227311 0.000000 
0.444983 0.243450 0.000000 
0.302497 0.407477 0.000000 
0.218139 0.236570 0.000000 
0.395775 0.242721 0.000000 
0.381573 0.255476 0.000000 
0.381555 0.271772 0.000000 
0.367449 0.247301 0.000000 
0.399977 0.275899 0.000000 
0.367324 0.281268 0.000000 
0.352073 0.254808 0.000000 
0.373130 0.229332 0.000000 
0.368181 0.298478 0.000000 
0.351965 0.272479 0.000000 
0.337600 0.245417 0.000000 
0.383967 0.310430 0.000000 
0.353652 0.307928 0.000000 
0.322117 0.253199 0.000000 
0.335179 0.225776 0.000000 
0.285322 0.413392 0.000000 
0.306862 0.390800 0.000000 
0.224269 0.219435 0.000000 
0.338207 0.300112 0.000000 
0.292192 0.380892 0.000000 
0.324703 0.390166 0.000000 
0.337646 0.406316 0.000000 
0.323654 0.309556 0.000000 
0.337372 0.281871 0.000000 
0.273139 0.386829 0.000000 
0.324560 0.326846 0.000000 
0.308219 0.301741 0.000000 
0.339985 0.334649 0.000000 
0.310054 0.336348 0.000000 
0.293710 0.311220 0.000000 
0.307392 0.282408 0.000000 
0.354524 0.325177 0.000000 
0.311075 0.354825 0.000000 
0.294635 0.328532 0.000000 
0.280146 0.338026 0.000000 
0.278693 0.355183 0.000000 
0.294207 0.364174 0.000000 
0.258176 0.365876 0.000000 
0.264725 0.330202 0.000000 
0.246260 0.339679 0.000000 
0.263797 0.312892 0.000000 
0.241164 0.358196 0.000000 
0.220646 0.367846 0.000000 
0.224966 0.331144 0.000000 
0.248381 0.305079 0.000000 
0.278298 0.303410 0.000000 
0.228010 0.313851 0.000000 
0.247463 0.287792 0.000000 
0.277390 0.286133 0.000000 
0.230576 0.273543 0.000000 
0.261968 0.278321 0.000000 
0.261052 0.261038 0.000000 
0.247292 0.249272 0.000000 
0.251669 0.228732 0.000000 
0.275567 0.251577 0.000000 
0.269969 0.231590 0.000000 
0.291067 0.257329 0.000000 
0.306608 0.246354 0.000000 
0.346481 0.211161 0.000000 
0.242196 0.395635 0.000000 
0.254637 0.380803 0.000000 
0.268668 0.190990 0.000000 
0.384508 0.366276 0.000000 
0.378296 0.383357 0.000000 
0.371140 0.353957 0.000000 
0.353568 0.359506 0.000000 
0.349455 0.376743 0.000000 
0.331030 0.378453 0.000000 
0.325158 0.361775 0.000000 
0.339557 0.351096 0.000000 
0.184982 0.307245 0.000000 
0.406042 0.338182 0.000000 
0.386562 0.330766 0.000000 
0.291973 0.274602 0.000000 
0.331166 0.419824 0.000000 
0.337015 0.440199 0.000000 
0.192543 0.257306 0.000000 
0.231319 0.252305 0.000000 
0.321997 0.271981 0.000000 
0.319056 0.187253 0.000000 
0.270626 0.402664 0.000000 
0.241826 0.214629 0.000000 
0.415000 0.350818 0.000000 
0.438265 0.350806 0.000000 
0.411364 0.243583 0.000000 
0.425680 0.225435 0.000000 
0.204548 0.339883 0.000000 
0.227823 0.401645 0.000000 
0.222898 0.424270 0.000000 
0.360816 0.388275 0.000000 
0.402317 0.308020 0.000000 
0.371676 0.336082 0.000000 
0.364559 0.213320 0.000000 
0.205326 0.358071 0.000000 
0.409547 0.291357 0.000000 
0.317720 0.218213 0.000000 
0.304631 0.231009 0.000000 
0.308261 0.200921 0.000000 
0.283491 0.221997 0.000000 
0.161732 0.243250 0.000000 
0.285043 0.202646 0.000000 
0.215651 0.290674 0.000000 
0.198454 0.283744 0.000000 
0.683977 0.888534 0.000000 
0.580783 0.550384 0.000000 
0.888359 0.726667 0.000000 
0.514838 0.754983 0.000000 
0.793904 0.533031 0.000000 
0.739513 0.881743 0.000000 
0.579231 0.847316 0.000000 
0.684263 0.508024 0.000000 
0.838198 0.828186 0.000000 
0.514380 0.641590 0.000000 
0.870363 0.615590 0.000000 
0.628403 0.877111 0.000000 
0.629886 0.522800 0.000000 
0.870277 0.781209 0.000000 
0.507578 0.698085 0.000000 
0.839000 0.567420 0.000000 
0.540576 0.805583 0.000000 
0.740971 0.512250 0.000000 
0.794799 0.864991 0.000000 
0.540128 0.590059 0.000000 
0.887105 0.669982 0.000000 
0.655755 0.884251 0.000000 
0.602403 0.532280 0.000000 
0.878381 0.753675 0.000000 
0.511918 0.725993 0.000000 
0.817467 0.549130 0.000000 
0.712130 0.889787 0.000000 
0.556891 0.828867 0.000000 
0.712634 0.506263 0.000000 
0.817277 0.847576 0.000000 
0.526666 0.615432 0.000000 
0.882498 0.641906 0.000000 
0.604277 0.861370 0.000000 
0.656050 0.512255 0.000000 
0.857275 0.807096 0.000000 
0.509740 0.669646 0.000000 
0.853892 0.592074 0.000000 
0.526339 0.780879 0.000000 
0.769101 0.519139 0.000000 
0.767990 0.875973 0.000000 
0.560465 0.570320 0.000000 
0.889230 0.698441 0.000000 
0.671109 0.878225 0.000000 
0.673767 0.860763 0.000000 
0.660915 0.850526 0.000000 
0.689084 0.854800 0.000000 
0.646987 0.857175 0.000000 
0.644485 0.873438 0.000000 
0.632425 0.848812 0.000000 
0.620641 0.861425 0.000000 
0.662457 0.833491 0.000000 
0.692682 0.838076 0.000000 
0.700326 0.865237 0.000000 
0.716308 0.861363 0.000000 
0.697877 0.881510 0.000000 
0.723802 0.876903 0.000000 
0.648464 0.823355 0.000000 
0.678905 0.827005 0.000000 
0.707417 0.833968 0.000000 
0.540623 0.789116 0.000000 
0.555954 0.780321 0.000000 
0.555969 0.763918 0.000000 
0.570163 0.788563 0.000000 
0.542031 0.757095 0.000000 
0.527733 0.765261 0.000000 
0.539235 0.740101 0.000000 
0.522014 0.738738 0.000000 
0.570273 0.754527 0.000000 
0.585504 0.780966 0.000000 
0.568739 0.804353 0.000000 
0.580453 0.817001 0.000000 
0.554478 0.812574 0.000000 
0.572967 0.832535 0.000000 
0.569500 0.737300 0.000000 
0.585599 0.763333 0.000000 
0.598077 0.792685 0.000000 
0.597163 0.846506 0.000000 
0.604905 0.827656 0.000000 
0.822124 0.831823 0.000000 
0.810123 0.818869 0.000000 
0.794114 0.822532 0.000000 
0.814997 0.803183 0.000000 
0.790776 0.838046 0.000000 
0.801940 0.850138 0.000000 
0.775836 0.846649 0.000000 
0.778364 0.863715 0.000000 
0.781748 0.810711 0.000000 
0.804155 0.789954 0.000000 
0.830718 0.801036 0.000000 
0.840439 0.786796 0.000000 
0.841919 0.813085 0.000000 
0.857262 0.790617 0.000000 
0.765099 0.815320 0.000000 
0.786919 0.793819 0.000000 
0.812782 0.775070 0.000000 
0.519128 0.711187 0.000000 
0.549922 0.711020 0.000000 
0.576047 0.566212 0.000000 
0.587671 0.578755 0.000000 
0.603459 0.574845 0.000000 
0.582733 0.594361 0.000000 
0.606779 0.559537 0.000000 
0.595533 0.547419 0.000000 
0.622584 0.552846 0.000000 
0.619868 0.535618 0.000000 
0.615852 0.586660 0.000000 
0.593502 0.607536 0.000000 
0.566796 0.596269 0.000000 
0.556857 0.610264 0.000000 
0.555886 0.584510 0.000000 
0.539851 0.606218 0.000000 
0.632338 0.581860 0.000000 
0.610678 0.603578 0.000000 
0.587475 0.623627 0.000000 
0.801027 0.547912 0.000000 
0.791080 0.562520 0.000000 
0.798217 0.577328 0.000000 
0.774720 0.561275 0.000000 
0.813634 0.577363 0.000000 
0.822930 0.563770 0.000000 
0.823122 0.591218 0.000000 
0.839189 0.584936 0.000000 
0.789464 0.592037 0.000000 
0.764259 0.574815 0.000000 
0.769123 0.546412 0.000000 
0.753086 0.540113 0.000000 
0.778362 0.532781 0.000000 
0.753048 0.522843 0.000000 
0.797665 0.607244 0.000000 
0.771870 0.590773 0.000000 
0.747138 0.572719 0.000000 
0.879927 0.684823 0.000000 
0.862309 0.686131 0.000000 
0.855192 0.700937 0.000000 
0.853079 0.672537 0.000000 
0.864777 0.713018 0.000000 
0.881194 0.711827 0.000000 
0.859866 0.729067 0.000000 
0.874790 0.737727 0.000000 
0.838235 0.703236 0.000000 
0.835972 0.672766 0.000000 
0.861202 0.658900 0.000000 
0.856130 0.642417 0.000000 
0.877611 0.657653 0.000000 
0.869604 0.631640 0.000000 
0.831468 0.719128 0.000000 
0.828248 0.688659 0.000000 
0.829722 0.656738 0.000000 
0.853858 0.608568 0.000000 
0.838725 0.622226 0.000000 
0.645971 0.526512 0.000000 
0.654678 0.557743 0.000000 
0.725509 0.516564 0.000000 
0.718024 0.532112 0.000000 
0.516926 0.684530 0.000000 
0.533124 0.687038 0.000000 
0.542426 0.673532 0.000000 
0.535341 0.703727 0.000000 
0.535774 0.658766 0.000000 
0.519284 0.657385 0.000000 
0.540943 0.642374 0.000000 
0.527395 0.631471 0.000000 
0.559582 0.673866 0.000000 
0.570866 0.656905 0.000000 
0.564827 0.694634 0.000000 
0.671422 0.518335 0.000000 
0.674118 0.535847 0.000000 
0.689395 0.541801 0.000000 
0.658396 0.541824 0.000000 
0.700843 0.530831 0.000000 
0.698388 0.514547 0.000000 
0.724322 0.548943 0.000000 
0.691438 0.560262 0.000000 
0.709185 0.566120 0.000000 
0.672436 0.570219 0.000000 
0.865474 0.763922 0.000000 
0.845365 0.760596 0.000000 
0.750719 0.869658 0.000000 
0.747784 0.846498 0.000000 
0.632361 0.832027 0.000000 
0.762527 0.835746 0.000000 
0.815913 0.606394 0.000000 
0.552399 0.729696 0.000000 
0.635735 0.563342 0.000000 
0.843512 0.732878 0.000000 
0.710874 0.817013 0.000000 
0.801671 0.761796 0.000000 
0.736712 0.586524 0.000000 
0.613515 0.784826 0.000000 
0.598482 0.636804 0.000000 
0.812424 0.657153 0.000000 
0.650205 0.806142 0.000000 
0.752715 0.803230 0.000000 
0.788644 0.622020 0.000000 
0.584072 0.727965 0.000000 
0.644675 0.593876 0.000000 
0.814295 0.721275 0.000000 
0.719807 0.846819 0.000000 
0.833345 0.774063 0.000000 
0.741561 0.552880 0.000000 
0.594456 0.812938 0.000000 
0.566732 0.624414 0.000000 
0.841756 0.640026 0.000000 
0.699525 0.804124 0.000000 
0.615498 0.633725 0.000000 
0.792622 0.639383 0.000000 
0.778474 0.652186 0.000000 
0.778483 0.668521 0.000000 
0.764373 0.644009 0.000000 
0.796869 0.672639 0.000000 
0.764307 0.678064 0.000000 
0.749051 0.651556 0.000000 
0.770009 0.625987 0.000000 
0.765185 0.695312 0.000000 
0.748975 0.669276 0.000000 
0.734598 0.642159 0.000000 
0.780954 0.707271 0.000000 
0.750708 0.704801 0.000000 
0.719170 0.649984 0.000000 
0.732147 0.622463 0.000000 
0.682292 0.810012 0.000000 
0.703924 0.787504 0.000000 
0.621709 0.616647 0.000000 
0.735293 0.696997 0.000000 
0.689232 0.777600 0.000000 
0.721854 0.786988 0.000000 
0.734900 0.803245 0.000000 
0.720789 0.706470 0.000000 
0.734439 0.678719 0.000000 
0.670121 0.783494 0.000000 
0.721701 0.723748 0.000000 
0.705375 0.698667 0.000000 
0.737126 0.731562 0.000000 
0.707190 0.733211 0.000000 
0.690863 0.708135 0.000000 
0.704532 0.679300 0.000000 
0.751630 0.722088 0.000000 
0.708191 0.751642 0.000000 
0.691767 0.725403 0.000000 
0.677231 0.734848 0.000000 
0.675744 0.751950 0.000000 
0.691280 0.760934 0.000000 
0.655155 0.762580 0.000000 
0.661783 0.727020 0.000000 
0.643253 0.736437 0.000000 
0.660879 0.709756 0.000000 
0.638112 0.754894 0.000000 
0.617526 0.764487 0.000000 
0.621916 0.727888 0.000000 
0.645429 0.701930 0.000000 
0.675423 0.700317 0.000000 
0.624996 0.710645 0.000000 
0.644541 0.684673 0.000000 
0.674527 0.683041 0.000000 
0.627693 0.670469 0.000000 
0.659092 0.675223 0.000000 
0.658206 0.657953 0.000000 
0.644499 0.646245 0.000000 
0.648926 0.625728 0.000000 
0.672710 0.648450 0.000000 
0.667140 0.628474 0.000000 
0.688185 0.654166 0.000000 
0.703683 0.643134 0.000000 
0.743396 0.607796 0.000000 
0.639086 0.792235 0.000000 
0.651582 0.777459 0.000000 
0.665867 0.587859 0.000000 
0.781861 0.763442 0.000000 
0.775733 0.780581 0.000000 
0.768381 0.750998 0.000000 
0.750791 0.756494 0.000000 
0.746717 0.773742 0.000000 
0.728208 0.775332 0.000000 
0.722304 0.758635 0.000000 
0.736727 0.748017 0.000000 
0.581875 0.703973 0.000000 
0.803206 0.735218 0.000000 
0.783671 0.727720 0.000000 
0.689113 0.671485 0.000000 
0.728317 0.816648 0.000000 
0.734085 0.836993 0.000000 
0.589774 0.654378 0.000000 
0.628547 0.649323 0.000000 
0.719087 0.668825 0.000000 
0.715998 0.583863 0.000000 
0.667584 0.799286 0.000000 
0.639186 0.611729 0.000000 
0.812252 0.747924 0.000000 
0.835384 0.747731 0.000000 
0.808184 0.640228 0.000000 
0.822452 0.622013 0.000000 
0.601437 0.736574 0.000000 
0.624669 0.798215 0.000000 
0.619687 0.820798 0.000000 
0.758179 0.785385 0.000000 
0.799253 0.704837 0.000000 
0.768821 0.733046 0.000000 
0.761433 0.609944 0.000000 
0.602187 0.754716 0.000000 
0.806440 0.688116 0.000000 
0.714717 0.614894 0.000000 
0.701682 0.627742 0.000000 
0.705258 0.597562 0.000000 
0.680599 0.618785 0.000000 
0.558882 0.640182 0.000000 
0.682135 0.599388 0.000000 
0.612653 0.687512 0.000000 
0.595469 0.680615 0.000000 
VECTORS X_EC float 
-0.839807 0.744826 0.000000 
-0.048800 0.654323 0.000000 
0.397236 0.830611 0.000000 
-0.170116 -0.637834 0.000000 
0.268790 0.944094 0.000000 
-0.702699 -0.145619 0.000000 
-0.017417 0.650668 0.000000 
0.771110 0.749849 0.000000 
0.405865 -0.209171 0.000000 
0.098513 -0.648692 0.000000 
0.617924 0.473445 0.000000 
-0.613026 -0.365885 0.000000 
0.477503 -0.339383 0.000000 
-0.691159 0.466462 0.000000 
0.968723 -0.784493 0.000000 
-0.419187 -0.154059 0.000000 
0.817368 -0.122593 0.000000 
0.685073 -0.115131 0.000000 
-0.363006 0.955836 0.000000 
-0.858095 -0.145477 0.000000 
-0.469246 0.806664 0.000000 
-0.755058 0.180795 0.000000 
0.291060 -0.891902 0.000000 
-0.142213 0.630353 0.000000 
0.410185 -0.696995 0.000000 
-0.053287 -0.584748 0.000000 
-0.864084 -0.692669 0.000000 
0.351603 0.203675 0.000000 
0.805449 -0.682226 0.000000 
0.007136 -0.615626 0.000000 
0.624274 -0.405410 0.000000 
0.091834 0.715494 0.000000 
-0.298451 -0.848266 0.000000 
0.686660 0.185611 0.000000 
0.801008 0.197344 0.000000 
-0.462543 -0.741410 0.000000 
-0.912001 0.144041 0.000000 
-0.688291 -0.407398 0.000000 
0.546693 0.447799 0.000000 
-0.586149 0.422888 0.000000 
-0.436419 0.235903 0.000000 
0.962083 0.848128 0.000000 
-0.633883 0.487179 0.000000 
-0.284201 0.539278 0.000000 
-0.079626 0.282134 0.000000 
-0.164340 0.844759 0.000000 
-0.213180 0.004387 0.000000 
-0.538924 -0.044837 0.000000 
-0.046139 -0.286720 0.000000 
-0.299109 -0.521493 0.000000 
0.261499 0.312009 0.000000 
0.170558 0.915508 0.000000 
-0.372923 -0.930130 0.000000 
-0.294526 -0.611455 0.000000 
-0.698724 -0.977964 0.000000 
-0.605686 -0.460399 0.000000 
0.464092 0.032278 0.000000 
0.391797 0.639901 0.000000 
0.253406 -0.790745 0.000000 
-0.852853 -0.121918 0.000000 
-0.676201 0.184050 0.000000 
-0.347537 0.183895 0.000000 
-0.840966 0.468084 0.000000 
-0.211357 -0.094676 0.000000 
-0.375460 -0.380000 0.000000 
0.128953 -0.151001 0.000000 
0.155460 -0.494978 0.000000 
-0.158789 0.469321 0.000000 
-0.688227 0.774235 0.000000 
0.842688 0.439999 0.000000 
0.589675 0.674371 0.000000 
0.677706 0.155253 0.000000 
0.278463 0.525086 0.000000 
0.186438 0.453391 0.000000 
-0.334715 0.775630 0.000000 
-0.922761 -0.974296 0.000000 
-0.000896 -0.990797 0.000000 
0.376836 -0.836801 0.000000 
0.323795 -0.520887 0.000000 
0.574889 -0.753411 0.000000 
0.496681 0.930793 0.000000 
0.887136 -0.654653 0.000000 
0.182140 0.868479 0.000000 
-0.060217 -0.906740 0.000000 
0.006432 0.573117 0.000000 
-0.338212 0.627430 0.000000 
0.733028 0.682966 0.000000 
-0.849359 -0.869931 0.000000 
0.925320 -0.335975 0.000000 
-0.794640 -0.137216 0.000000 
0.689929 -0.117722 0.000000 
-0.875507 0.202831 0.000000 