# vtk DataFile Version 3.0 
vtk output 
ASCII 
DATASET UNSTRUCTURED_GRID 
POINTS 616 float 
0.255743 0.460247 0.000000 
0.151050 0.120842 0.000000 
0.459931 0.298227 0.000000 
0.086575 0.326893 0.000000 
0.365390 0.104779 0.000000 
0.311239 0.453394 0.000000 
0.151050 0.419158 0.000000 
0.255743 0.079753 0.000000 
0.409852 0.399764 0.000000 
0.085966 0.213514 0.000000 
0.441887 0.187223 0.000000 
0.200217 0.448888 0.000000 
0.201321 0.094487 0.000000 
0.441887 0.352777 0.000000 
0.079219 0.270000 0.000000 
0.410489 0.139105 0.000000 
0.112370 0.377470 0.000000 
0.312453 0.084003 0.000000 
0.366487 0.436582 0.000000 
0.111094 0.161334 0.000000 
0.458650 0.241566 0.000000 
0.227547 0.455997 0.000000 
0.173717 0.103834 0.000000 
0.449973 0.325241 0.000000 
0.083605 0.297902 0.000000 
0.388950 0.120842 0.000000 
0.283875 0.461469 0.000000 
0.128699 0.400741 0.000000 
0.284118 0.078011 0.000000 
0.388950 0.419158 0.000000 
0.098113 0.187223 0.000000 
0.454034 0.213514 0.000000 
0.176096 0.433168 0.000000 
0.227547 0.084003 0.000000 
0.428906 0.378666 0.000000 
0.081350 0.241566 0.000000 
0.425400 0.163734 0.000000 
0.098113 0.352777 0.000000 
0.340581 0.090898 0.000000 
0.339700 0.447593 0.000000 
0.130148 0.140236 0.000000 
0.460781 0.270000 0.000000 
0.242877 0.449951 0.000000 
0.245510 0.432479 0.000000 
0.232660 0.422254 0.000000 
0.260803 0.426495 0.000000 
0.218756 0.428921 0.000000 
0.216276 0.445194 0.000000 
0.204198 0.420572 0.000000 
0.192444 0.433204 0.000000 
0.234178 0.405210 0.000000 
0.264376 0.409762 0.000000 
0.272045 0.436925 0.000000 
0.288019 0.433033 0.000000 
0.269618 0.453205 0.000000 
0.295528 0.448569 0.000000 
0.220189 0.395086 0.000000 
0.250601 0.398703 0.000000 
0.279098 0.405641 0.000000 
0.112398 0.360992 0.000000 
0.127699 0.352157 0.000000 
0.127682 0.335735 0.000000 
0.141913 0.360383 0.000000 
0.113744 0.328938 0.000000 
0.099476 0.337146 0.000000 
0.110919 0.311936 0.000000 
0.093714 0.310622 0.000000 
0.141954 0.326296 0.000000 
0.157223 0.352743 0.000000 
0.140512 0.376189 0.000000 
0.152235 0.388824 0.000000 
0.126271 0.384442 0.000000 
0.144771 0.404381 0.000000 
0.141147 0.309046 0.000000 
0.157281 0.335078 0.000000 
0.169812 0.364456 0.000000 
0.168972 0.418309 0.000000 
0.176681 0.399439 0.000000 
0.393780 0.403403 0.000000 
0.381762 0.390451 0.000000 
0.365756 0.394122 0.000000 
0.386619 0.374763 0.000000 
0.362435 0.409639 0.000000 
0.373611 0.421723 0.000000 
0.347509 0.418256 0.000000 
0.350056 0.435323 0.000000 
0.353377 0.382309 0.000000 
0.375764 0.361537 0.000000 
0.402341 0.372612 0.000000 
0.412050 0.358371 0.000000 
0.413556 0.384660 0.000000 
0.428878 0.362187 0.000000 
0.336739 0.386934 0.000000 
0.358529 0.365411 0.000000 
0.384382 0.346658 0.000000 
0.090780 0.283067 0.000000 
0.121539 0.282794 0.000000 
0.146220 0.136597 0.000000 
0.158238 0.149549 0.000000 
0.174244 0.145878 0.000000 
0.153381 0.165237 0.000000 
0.177769 0.130777 0.000000 
0.166593 0.118693 0.000000 
0.193716 0.124239 0.000000 
0.191169 0.107173 0.000000 
0.186623 0.157691 0.000000 
0.164236 0.178463 0.000000 
0.137659 0.167388 0.000000 
0.127950 0.181629 0.000000 
0.126444 0.155340 0.000000 
0.111122 0.177813 0.000000 
0.203261 0.153066 0.000000 
0.181471 0.174589 0.000000 
0.158380 0.194709 0.000000 
0.372515 0.119638 0.000000 
0.362562 0.134237 0.000000 
0.369702 0.149025 0.000000 
0.346187 0.132993 0.000000 
0.385123 0.149051 0.000000 
0.394417 0.135466 0.000000 
0.394616 0.162889 0.000000 
0.410687 0.156608 0.000000 
0.360940 0.163722 0.000000 
0.335707 0.146519 0.000000 
0.340590 0.118144 0.000000 
0.324547 0.111847 0.000000 
0.349841 0.104529 0.000000 
0.324522 0.094592 0.000000 
0.369152 0.178914 0.000000 
0.343320 0.162460 0.000000 
0.318566 0.144425 0.000000 
0.451474 0.256400 0.000000 
0.433855 0.257721 0.000000 
0.426745 0.272524 0.000000 
0.424618 0.244142 0.000000 
0.436340 0.284596 0.000000 
0.452756 0.283393 0.000000 
0.431439 0.300646 0.000000 
0.446370 0.309295 0.000000 
0.409791 0.274836 0.000000 
0.407509 0.244383 0.000000 
0.432738 0.230509 0.000000 
0.427658 0.214040 0.000000 
0.449150 0.229253 0.000000 
0.441133 0.203262 0.000000 
0.403034 0.290728 0.000000 
0.399792 0.260273 0.000000 
0.401250 0.228368 0.000000 
0.425372 0.180213 0.000000 
0.410239 0.193869 0.000000 
0.217380 0.098181 0.000000 
0.225905 0.129262 0.000000 
0.296984 0.088307 0.000000 
0.289475 0.103843 0.000000 
0.088526 0.256400 0.000000 
0.104705 0.258843 0.000000 
0.113942 0.245264 0.000000 
0.106960 0.275545 0.000000 
0.107262 0.230509 0.000000 
0.090850 0.229253 0.000000 
0.112342 0.214040 0.000000 
0.098867 0.203262 0.000000 
0.131051 0.245505 0.000000 
0.142169 0.228372 0.000000 
0.136393 0.266332 0.000000 
0.242877 0.090049 0.000000 
0.245510 0.107521 0.000000 
0.260803 0.113505 0.000000 
0.229728 0.113435 0.000000 
0.272288 0.102555 0.000000 
0.269861 0.086274 0.000000 
0.295753 0.120665 0.000000 
0.262813 0.131958 0.000000 
0.280576 0.137831 0.000000 
0.243696 0.141801 0.000000 
0.437072 0.335493 0.000000 
0.416959 0.332176 0.000000 
0.322427 0.441295 0.000000 
0.319466 0.418134 0.000000 
0.204113 0.403780 0.000000 
0.334192 0.407365 0.000000 
0.387407 0.178055 0.000000 
0.124049 0.301483 0.000000 
0.206829 0.134714 0.000000 
0.415087 0.304466 0.000000 
0.282534 0.388677 0.000000 
0.373261 0.333396 0.000000 
0.308111 0.158218 0.000000 
0.185216 0.356566 0.000000 
0.169501 0.207971 0.000000 
0.383947 0.228794 0.000000 
0.221906 0.377864 0.000000 
0.324345 0.374854 0.000000 
0.360132 0.193685 0.000000 
0.155682 0.299651 0.000000 
0.215655 0.165146 0.000000 
0.385862 0.292886 0.000000 
0.291499 0.418483 0.000000 
0.404946 0.345644 0.000000 
0.313001 0.124602 0.000000 
0.166224 0.384731 0.000000 
0.137816 0.195723 0.000000 
0.413279 0.211658 0.000000 
0.271174 0.375796 0.000000 
0.186553 0.204955 0.000000 
0.364125 0.211041 0.000000 
0.349967 0.223831 0.000000 
0.349988 0.240157 0.000000 
0.335839 0.215650 0.000000 
0.368397 0.244283 0.000000 
0.335796 0.249679 0.000000 
0.320497 0.223180 0.000000 
0.341470 0.197644 0.000000 
0.336693 0.266919 0.000000 
0.320433 0.240882 0.000000 
0.306015 0.213783 0.000000 
0.352496 0.278894 0.000000 
0.322211 0.276394 0.000000 
0.290568 0.221587 0.000000 
0.303545 0.194110 0.000000 
0.253964 0.381700 0.000000 
0.275547 0.359160 0.000000 
0.192668 0.187818 0.000000 
0.306762 0.268570 0.000000 
0.260842 0.349250 0.000000 
0.293472 0.358629 0.000000 
0.306536 0.374885 0.000000 
0.292257 0.278036 0.000000 
0.305882 0.250299 0.000000 
0.241764 0.355172 0.000000 
0.293203 0.295330 0.000000 
0.276807 0.270208 0.000000 
0.308654 0.303158 0.000000 
0.278699 0.304797 0.000000 
0.262302 0.279674 0.000000 
0.275928 0.250844 0.000000 
0.323157 0.293687 0.000000 
0.279740 0.323251 0.000000 
0.263248 0.296969 0.000000 
0.248744 0.306435 0.000000 
0.247302 0.323569 0.000000 
0.262847 0.332557 0.000000 
0.226761 0.334237 0.000000 
0.233293 0.298607 0.000000 
0.214807 0.308058 0.000000 
0.232347 0.281313 0.000000 
0.209717 0.326553 0.000000 
0.189174 0.336184 0.000000 
0.193473 0.299510 0.000000 
0.216896 0.273485 0.000000 
0.246852 0.271846 0.000000 
0.196508 0.282232 0.000000 
0.215950 0.256190 0.000000 
0.245906 0.254551 0.000000 
0.199030 0.241929 0.000000 
0.230455 0.246723 0.000000 
0.229509 0.229429 0.000000 
0.215725 0.217655 0.000000 
0.220073 0.197105 0.000000 
0.244013 0.219962 0.000000 
0.238376 0.199959 0.000000 
0.259531 0.225721 0.000000 
0.275051 0.214736 0.000000 
0.314803 0.179462 0.000000 
0.210778 0.363959 0.000000 
0.223228 0.349146 0.000000 
0.237015 0.159334 0.000000 
0.353447 0.335045 0.000000 
0.347332 0.352182 0.000000 
0.339952 0.322606 0.000000 
0.322362 0.328104 0.000000 
0.318311 0.345360 0.000000 
0.299805 0.346960 0.000000 
0.293871 0.330250 0.000000 
0.308281 0.319624 0.000000 
0.153440 0.275626 0.000000 
0.374782 0.306830 0.000000 
0.355231 0.299337 0.000000 
0.260477 0.243016 0.000000 
0.299971 0.388296 0.000000 
0.305761 0.408640 0.000000 
0.160965 0.225695 0.000000 
0.199751 0.220688 0.000000 
0.290498 0.240401 0.000000 
0.287369 0.155561 0.000000 
0.239258 0.370986 0.000000 
0.210214 0.183002 0.000000 
0.383836 0.319525 0.000000 
0.406969 0.319320 0.000000 
0.379696 0.211878 0.000000 
0.393958 0.193664 0.000000 
0.173036 0.308232 0.000000 
0.196386 0.369961 0.000000 
0.191439 0.392560 0.000000 
0.329786 0.356998 0.000000 
0.370809 0.276469 0.000000 
0.340374 0.304655 0.000000 
0.332870 0.181610 0.000000 
0.173828 0.326410 0.000000 
0.377983 0.259748 0.000000 
0.286082 0.186546 0.000000 
0.273035 0.199368 0.000000 
0.276597 0.169242 0.000000 
0.251878 0.190350 0.000000 
0.130140 0.211662 0.000000 
0.253393 0.170981 0.000000 
0.184108 0.259050 0.000000 
0.166894 0.252121 0.000000 
0.715743 0.920247 0.000000 
0.611050 0.580842 0.000000 
0.919931 0.758227 0.000000 
0.546575 0.786893 0.000000 
0.825390 0.564779 0.000000 
0.771239 0.913394 0.000000 
0.611050 0.879158 0.000000 
0.715743 0.539753 0.000000 
0.869852 0.859764 0.000000 
0.545966 0.673514 0.000000 
0.901887 0.647223 0.000000 
0.660217 0.908888 0.000000 
0.661321 0.554487 0.000000 
0.901887 0.812777 0.000000 
0.539219 0.730000 0.000000 
0.870489 0.599105 0.000000 
0.572370 0.837470 0.000000 
0.772453 0.544003 0.000000 
0.826487 0.896582 0.000000 
0.571094 0.621334 0.000000 
0.918650 0.701566 0.000000 
0.687547 0.915997 0.000000 
0.633717 0.563834 0.000000 
0.909973 0.785241 0.000000 
0.543605 0.757902 0.000000 
0.848950 0.580842 0.000000 
0.743875 0.921469 0.000000 
0.588699 0.860741 0.000000 
0.744118 0.538011 0.000000 
0.848950 0.879158 0.000000 
0.558113 0.647223 0.000000 
0.914034 0.673514 0.000000 
0.636096 0.893168 0.000000 
0.687547 0.544003 0.000000 
0.888906 0.838666 0.000000 
0.541350 0.701566 0.000000 
0.885400 0.623734 0.000000 
0.558113 0.812777 0.000000 
0.800581 0.550898 0.000000 
0.799700 0.907593 0.000000 
0.590148 0.600236 0.000000 
0.920781 0.730000 0.000000 
0.702877 0.909951 0.000000 
0.705510 0.892479 0.000000 
0.692660 0.882254 0.000000 
[...]
POINT_DATA 616 
VECTORS X_GC float 
0.255743 0.460247 0.000000 
0.151050 0.120842 0.000000 
0.459931 0.298227 0.000000 
0.086575 0.326893 0.000000 
0.365390 0.104779 0.000000 
0.311239 0.453394 0.000000 
0.151050 0.419158 0.000000 
0.255743 0.079753 0.000000 
0.409852 0.399764 0.000000 
0.085966 0.213514 0.000000 
0.441887 0.187223 0.000000 
0.200217 0.448888 0.000000 
0.201321 0.094487 0.000000 
0.441887 0.352777 0.000000 
0.079219 0.270000 0.000000 
0.410489 0.139105 0.000000 
0.112370 0.377470 0.000000 
0.312453 0.084003 0.000000 
0.366487 0.436582 0.000000 
0.111094 0.161334 0.000000 
0.458650 0.241566 0.000000 
0.227547 0.455997 0.000000 
0.173717 0.103834 0.000000 
0.449973 0.325241 0.000000 
0.083605 0.297902 0.000000 
0.388950 0.120842 0.000000 
0.283875 0.461469 0.000000 
0.128699 0.400741 0.000000 
0.284118 0.078011 0.000000 
0.388950 0.419158 0.000000 
0.098113 0.187223 0.000000 
0.454034 0.213514 0.000000 
0.176096 0.433168 0.000000 
0.227547 0.084003 0.000000 
0.428906 0.378666 0.000000 
0.081350 0.241566 0.000000 
0.425400 0.163734 0.000000 
0.098113 0.352777 0.000000 
0.340581 0.090898 0.000000 
0.339700 0.447593 0.000000 
0.130148 0.140236 0.000000 
0.460781 0.270000 0.000000 
0.242877 0.449951 0.000000 
0.245510 0.432479 0.000000 
0.232660 0.422254 0.000000 
0.260803 0.426495 0.000000 
0.218756 0.428921 0.000000 
0.216276 0.445194 0.000000 
0.204198 0.420572 0.000000 
0.192444 0.433204 0.000000 
0.234178 0.405210 0.000000 
0.264376 0.409762 0.000000 
0.272045 0.436925 0.000000 
0.288019 0.433033 0.000000 
0.269618 0.453205 0.000000 
0.295528 0.448569 0.000000 
0.220189 0.395086 0.000000 
0.250601 0.398703 0.000000 
0.279098 0.405641 0.000000 
0.112398 0.360992 0.000000 
0.127699 0.352157 0.000000 
0.127682 0.335735 0.000000 
0.141913 0.360383 0.000000 
0.113744 0.328938 0.000000 
0.099476 0.337146 0.000000 
0.110919 0.311936 0.000000 
0.093714 0.310622 0.000000 
0.141954 0.326296 0.000000 
0.157223 0.352743 0.000000 
0.140512 0.376189 0.000000 
0.152235 0.388824 0.000000 
0.126271 0.384442 0.000000 
0.144771 0.404381 0.000000 
0.141147 0.309046 0.000000 
0.157281 0.335078 0.000000 
0.169812 0.364456 0.000000 
0.168972 0.418309 0.000000 
0.176681 0.399439 0.000000 
0.393780 0.403403 0.000000 
0.381762 0.390451 0.000000 
0.365756 0.394122 0.000000 
0.386619 0.374763 0.000000 
0.362435 0.409639 0.000000 
0.373611 0.421723 0.000000 
0.347509 0.418256 0.000000 
0.350056 0.435323 0.000000 
0.353377 0.382309 0.000000 
0.375764 0.361537 0.000000 
0.402341 0.372612 0.000000 
0.412050 0.358371 0.000000 
0.413556 0.384660 0.000000 
0.428878 0.362187 0.000000 
0.336739 0.386934 0.000000 
0.358529 0.365411 0.000000 
0.384382 0.346658 0.000000 
0.090780 0.283067 0.000000 
0.121539 0.282794 0.000000 
0.146220 0.136597 0.000000 
0.158238 0.149549 0.000000 
0.174244 0.145878 0.000000 
0.153381 0.165237 0.000000 
0.177769 0.130777 0.000000 
0.166593 0.118693 0.000000 
0.193716 0.124239 0.000000 
0.191169 0.107173 0.000000 
0.186623 0.157691 0.000000 
0.164236 0.178463 0.000000 
0.137659 0.167388 0.000000 
0.127950 0.181629 0.000000 
0.126444 0.155340 0.000000 
0.111122 0.177813 0.000000 
0.203261 0.153066 0.000000 
0.181471 0.174589 0.000000 
0.158380 0.194709 0.000000 
0.372515 0.119638 0.000000 
0.362562 0.134237 0.000000 
0.369702 0.149025 0.000000 
0.346187 0.132993 0.000000 
0.385123 0.149051 0.000000 
0.394417 0.135466 0.000000 
0.394616 0.162889 0.000000 
0.410687 0.156608 0.000000 
0.360940 0.163722 0.000000 
0.335707 0.146519 0.000000 
0.340590 0.118144 0.000000 
0.324547 0.111847 0.000000 
0.349841 0.104529 0.000000 
0.324522 0.094592 0.000000 
0.369152 0.178914 0.000000 
0.343320 0.162460 0.000000 
0.318566 0.144425 0.000000 
0.451474 0.256400 0.000000 
0.433855 0.257721 0.000000 
0.426745 0.272524 0.000000 
0.424618 0.244142 0.000000 
0.436340 0.284596 0.000000 
0.452756 0.283393 0.000000 
0.431439 0.300646 0.000000 
0.446370 0.309295 0.000000 
0.409791 0.274836 0.000000 
0.407509 0.244383 0.000000 
0.432738 0.230509 0.000000 
0.427658 0.214040 0.000000 
0.449150 0.229253 0.000000 
0.441133 0.203262 0.000000 
0.403034 0.290728 0.000000 
0.399792 0.260273 0.000000 
0.401250 0.228368 0.000000 
0.425372 0.180213 0.000000 
0.410239 0.193869 0.000000 
0.217380 0.098181 0.000000 
0.225905 0.129262 0.000000 
0.296984 0.088307 0.000000 
0.289475 0.103843 0.000000 
0.088526 0.256400 0.000000 
0.104705 0.258843 0.000000 
0.113942 0.245264 0.000000 
0.106960 0.275545 0.000000 
0.107262 0.230509 0.000000 
0.090850 0.229253 0.000000 
0.112342 0.214040 0.000000 
0.098867 0.203262 0.000000 
0.131051 0.245505 0.000000 
0.142169 0.228372 0.000000 
0.136393 0.266332 0.000000 
0.242877 0.090049 0.000000 
0.245510 0.107521 0.000000 
0.260803 0.113505 0.000000 
0.229728 0.113435 0.000000 
0.272288 0.102555 0.000000 
0.269861 0.086274 0.000000 
0.295753 0.120665 0.000000 
0.262813 0.131958 0.000000 
0.280576 0.137831 0.000000 
0.243696 0.141801 0.000000 
0.437072 0.335493 0.000000 
0.416959 0.332176 0.000000 
0.322427 0.441295 0.000000 
0.319466 0.418134 0.000000 
0.204113 0.403780 0.000000 
0.334192 0.407365 0.000000 
0.387407 0.178055 0.000000 
0.124049 0.301483 0.000000 
0.206829 0.134714 0.000000 
0.415087 0.304466 0.000000 
0.282534 0.388677 0.000000 
0.373261 0.333396 0.000000 
0.308111 0.158218 0.000000 
0.185216 0.356566 0.000000 
0.169501 0.207971 0.000000 
0.383947 0.228794 0.000000 
0.221906 0.377864 0.000000 
0.324345 0.374854 0.000000 
0.360132 0.193685 0.000000 
0.155682 0.299651 0.000000 
0.215655 0.165146 0.000000 
0.385862 0.292886 0.000000 
0.291499 0.418483 0.000000 
0.404946 0.345644 0.000000 
0.313001 0.124602 0.000000 
0.166224 0.384731 0.000000 
0.137816 0.195723 0.000000 
0.413279 0.211658 0.000000 
0.271174 0.375796 0.000000 
0.186553 0.204955 0.000000 
0.364125 0.211041 0.000000 
0.349967 0.223831 0.000000 
0.349988 0.240157 0.000000 
0.335839 0.215650 0.000000 
0.368397 0.244283 0.000000 
0.335796 0.249679 0.000000 
0.320497 0.223180 0.000000 
0.341470 0.197644 0.000000 
0.336693 0.266919 0.000000 
0.320433 0.240882 0.000000 
0.306015 0.213783 0.000000 
0.352496 0.278894 0.000000 
0.322211 0.276394 0.000000 
0.290568 0.221587 0.000000 
0.303545 0.194110 0.000000 
0.253964 0.381700 0.000000 
0.275547 0.359160 0.000000 
0.192668 0.187818 0.000000 
0.306762 0.268570 0.000000 
0.260842 0.349250 0.000000 
0.293472 0.358629 0.000000 
0.306536 0.374885 0.000000 
0.292257 0.278036 0.000000 
0.305882 0.250299 0.000000 
0.241764 0.355172 0.000000 
0.293203 0.295330 0.000000 
0.276807 0.270208 0.000000 
0.308654 0.303158 0.000000 
0.278699 0.304797 0.000000 
0.262302 0.279674 0.000000 
0.275928 0.250844 0.000000 
0.323157 0.293687 0.000000 
0.279740 0.323251 0.000000 
0.263248 0.296969 0.000000 
0.248744 0.306435 0.000000 
0.247302 0.323569 0.000000 
0.262847 0.332557 0.000000 
0.226761 0.334237 0.000000 
0.233293 0.298607 0.000000 
0.214807 0.308058 0.000000 
0.232347 0.281313 0.000000 
0.209717 0.326553 0.000000 
0.189174 0.336184 0.000000 
0.193473 0.299510 0.000000 
0.216896 0.273485 0.000000 
0.246852 0.271846 0.000000 
0.196508 0.282232 0.000000 
0.215950 0.256190 0.000000 
0.245906 0.254551 0.000000 
0.199030 0.241929 0.000000 
0.230455 0.246723 0.000000 
0.229509 0.229429 0.000000 
0.215725 0.217655 0.000000 
0.220073 0.197105 0.000000 
0.244013 0.219962 0.000000 
0.238376 0.199959 0.000000 
0.259531 0.225721 0.000000 
0.275051 0.214736 0.000000 
0.314803 0.179462 0.000000 
0.210778 0.363959 0.000000 
0.223228 0.349146 0.000000 
0.237015 0.159334 0.000000 
0.353447 0.335045 0.000000 
0.347332 0.352182 0.000000 
0.339952 0.322606 0.000000 
0.322362 0.328104 0.000000 
0.318311 0.345360 0.000000 
0.299805 0.346960 0.000000 
0.293871 0.330250 0.000000 
0.308281 0.319624 0.000000 
0.153440 0.275626 0.000000 
0.374782 0.306830 0.000000 
0.355231 0.299337 0.000000 
0.260477 0.243016 0.000000 
0.299971 0.388296 0.000000 
0.305761 0.408640 0.000000 
0.160965 0.225695 0.000000 
0.199751 0.220688 0.000000 
0.290498 0.240401 0.000000 
0.287369 0.155561 0.000000 
0.239258 0.370986 0.000000 
0.210214 0.183002 0.000000 
0.383836 0.319525 0.000000 
0.406969 0.319320 0.000000 
0.379696 0.211878 0.000000 
0.393958 0.193664 0.000000 
0.173036 0.308232 0.000000 
0.196386 0.369961 0.000000 
0.191439 0.392560 0.000000 
0.329786 0.356998 0.000000 
0.370809 0.276469 0.000000 
0.340374 0.304655 0.000000 
0.332870 0.181610 0.000000 
0.173828 0.326410 0.000000 
0.377983 0.259748 0.000000 
0.286082 0.186546 0.000000 
0.273035 0.199368 0.000000 
0.276597 0.169242 0.000000 
0.251878 0.190350 0.000000 
0.130140 0.211662 0.000000 
0.253393 0.170981 0.000000 
0.184108 0.259050 0.000000 
0.166894 0.252121 0.000000 
0.715743 0.920247 0.000000 
0.611050 0.580842 0.000000 
0.919931 0.758227 0.000000 
0.546575 0.786893 0.000000 
0.825390 0.564779 0.000000 
0.771239 0.913394 0.000000 
0.611050 0.879158 0.000000 
0.715743 0.539753 0.000000 
0.869852 0.859764 0.000000 
0.545966 0.673514 0.000000 
0.901887 0.647223 0.000000 
0.660217 0.908888 0.000000 
0.661321 0.554487 0.000000 
0.901887 0.812777 0.000000 
0.539219 0.730000 0.000000 
0.870489 0.599105 0.000000 
0.572370 0.837470 0.000000 
0.772453 0.544003 0.000000 
0.826487 0.896582 0.000000 
0.571094 0.621334 0.000000 
0.918650 0.701566 0.000000 
0.687547 0.915997 0.000000 
0.633717 0.563834 0.000000 
0.909973 0.785241 0.000000 
0.543605 0.757902 0.000000 
0.848950 0.580842 0.000000 
0.743875 0.921469 0.000000 
0.588699 0.860741 0.000000 
0.744118 0.538011 0.000000 
0.848950 0.879158 0.000000 
0.558113 0.647223 0.000000 
0.914034 0.673514 0.000000 
0.636096 0.893168 0.000000 
0.687547 0.544003 0.000000 
0.888906 0.838666 0.000000 
0.541350 0.701566 0.000000 
0.885400 0.623734 0.000000 
0.558113 0.812777 0.000000 
0.800581 0.550898 0.000000 
0.799700 0.907593 0.000000 
0.590148 0.600236 0.000000 
0.920781 0.730000 0.000000 
0.702877 0.909951 0.000000 
0.705510 0.892479 0.000000 
0.692660 0.882254 0.000000 
0.720803 0.886495 0.000000 
0.678756 0.888921 0.000000 
0.676276 0.905194 0.000000 
0.664198 0.880572 0.000000 
0.652444 0.893204 0.000000 
0.694178 0.865210 0.000000 
0.724376 0.869762 0.000000 
0.732045 0.896925 0.000000 
0.748019 0.893033 0.000000 
0.729618 0.913205 0.000000 
0.755528 0.908569 0.000000 
0.680189 0.855086 0.000000 
0.710601 0.858703 0.000000 
0.739098 0.865641 0.000000 
0.572398 0.820992 0.000000 
0.587699 0.812157 0.000000 
0.587682 0.795735 0.000000 
0.601913 0.820383 0.000000 
0.573744 0.788938 0.000000 
0.559476 0.797146 0.000000 
0.570919 0.771936 0.000000 
0.553714 0.770622 0.000000 
0.601954 0.786296 0.000000 
0.617223 0.812743 0.000000 
0.600512 0.836189 0.000000 
0.612235 0.848824 0.000000 
0.586271 0.844442 0.000000 
0.604771 0.864381 0.000000 
0.601147 0.769046 0.000000 
0.617281 0.795078 0.000000 
0.629812 0.824456 0.000000 
0.628972 0.878309 0.000000 
0.636681 0.859439 0.000000 
0.853780 0.863403 0.000000 
0.841762 0.850451 0.000000 
0.825756 0.854122 0.000000 
0.846619 0.834763 0.000000 
0.822435 0.869639 0.000000 
0.833611 0.881723 0.000000 
0.807509 0.878256 0.000000 
0.810056 0.895323 0.000000 
0.813377 0.842309 0.000000 
0.835764 0.821537 0.000000 
0.862341 0.832612 0.000000 
0.872050 0.818371 0.000000 
0.873556 0.844660 0.000000 
0.888878 0.822187 0.000000 
0.796739 0.846934 0.000000 
0.818529 0.825411 0.000000 
0.844382 0.806658 0.000000 
0.550780 0.743067 0.000000 
0.581539 0.742794 0.000000 
0.606220 0.596597 0.000000 
0.618238 0.609549 0.000000 
0.634244 0.605878 0.000000 
0.613381 0.625237 0.000000 
0.637769 0.590777 0.000000 
0.626593 0.578693 0.000000 
0.653716 0.584239 0.000000 
0.651169 0.567173 0.000000 
0.646623 0.617691 0.000000 
0.624236 0.638463 0.000000 
0.597659 0.627388 0.000000 
0.587950 0.641629 0.000000 
0.586444 0.615340 0.000000 
0.571122 0.637813 0.000000 
0.663261 0.613066 0.000000 
0.641471 0.634589 0.000000 
0.618380 0.654709 0.000000 
0.832515 0.579638 0.000000 
0.822562 0.594237 0.000000 
0.829702 0.609025 0.000000 
0.806187 0.592993 0.000000 
0.845123 0.609051 0.000000 
0.854417 0.595466 0.000000 
0.854616 0.622889 0.000000 
0.870687 0.616608 0.000000 
0.820940 0.623722 0.000000 
0.795707 0.606519 0.000000 
0.800590 0.578144 0.000000 
0.784547 0.571847 0.000000 
0.809841 0.564529 0.000000 
0.784522 0.554592 0.000000 
0.829152 0.638914 0.000000 
0.803320 0.622460 0.000000 
0.778566 0.604425 0.000000 
0.911474 0.716400 0.000000 
0.893855 0.717721 0.000000 
0.886745 0.732524 0.000000 
0.884618 0.704142 0.000000 
0.896340 0.744596 0.000000 
0.912756 0.743393 0.000000 
0.891439 0.760646 0.000000 
0.906370 0.769295 0.000000 
0.869791 0.734836 0.000000 
0.867509 0.704383 0.000000 
0.892738 0.690509 0.000000 
0.887658 0.674040 0.000000 
0.909150 0.689253 0.000000 
0.901133 0.663262 0.000000 
0.863034 0.750728 0.000000 
0.859792 0.720273 0.000000 
0.861250 0.688368 0.000000 
0.885372 0.640213 0.000000 
0.870239 0.653869 0.000000 
0.677380 0.558181 0.000000 
0.685905 0.589262 0.000000 
0.756984 0.548307 0.000000 
0.749475 0.563843 0.000000 
0.548526 0.716400 0.000000 
0.564705 0.718843 0.000000 
0.573942 0.705264 0.000000 
0.566960 0.735545 0.000000 
0.567262 0.690509 0.000000 
0.550850 0.689253 0.000000 
0.572342 0.674040 0.000000 
0.558867 0.663262 0.000000 
0.591051 0.705505 0.000000 
0.602169 0.688372 0.000000 
0.596393 0.726332 0.000000 
0.702877 0.550049 0.000000 
0.705510 0.567521 0.000000 
0.720803 0.573505 0.000000 
0.689728 0.573435 0.000000 
0.732288 0.562555 0.000000 
0.729861 0.546274 0.000000 
0.755753 0.580665 0.000000 
0.722813 0.591958 0.000000 
0.740576 0.597831 0.000000 
0.703696 0.601801 0.000000 
0.897072 0.795493 0.000000 
0.876959 0.792176 0.000000 
0.782427 0.901295 0.000000 
0.779466 0.878134 0.000000 
0.664113 0.863780 0.000000 
0.794192 0.867365 0.000000 
0.847407 0.638055 0.000000 
0.584049 0.761483 0.000000 
0.666829 0.594714 0.000000 
0.875087 0.764466 0.000000 
0.742534 0.848677 0.000000 
0.833261 0.793396 0.000000 
0.768111 0.618218 0.000000 
0.645216 0.816566 0.000000 
0.629501 0.667971 0.000000 
0.843947 0.688794 0.000000 
0.681906 0.837864 0.000000 
0.784345 0.834854 0.000000 
0.820132 0.653685 0.000000 
0.615682 0.759651 0.000000 
0.675655 0.625146 0.000000 
0.845862 0.752886 0.000000 
0.751499 0.878483 0.000000 
0.864946 0.805644 0.000000 
0.773001 0.584602 0.000000 
0.626224 0.844731 0.000000 
0.597816 0.655723 0.000000 
0.873279 0.671658 0.000000 
0.731174 0.835796 0.000000 
0.646553 0.664955 0.000000 
0.824125 0.671041 0.000000 
0.809967 0.683831 0.000000 
0.809988 0.700157 0.000000 
0.795839 0.675650 0.000000 
0.828397 0.704283 0.000000 
0.795796 0.709679 0.000000 
0.780497 0.683180 0.000000 
0.801470 0.657644 0.000000 
0.796693 0.726919 0.000000 
0.780433 0.700882 0.000000 
0.766015 0.673783 0.000000 
0.812496 0.738894 0.000000 
0.782211 0.736394 0.000000 
0.750568 0.681587 0.000000 
0.763545 0.654110 0.000000 
0.713964 0.841700 0.000000 
0.735547 0.819160 0.000000 
0.652668 0.647818 0.000000 
0.766762 0.728570 0.000000 
0.720842 0.809250 0.000000 
0.753472 0.818629 0.000000 
0.766536 0.834885 0.000000 
0.752257 0.738036 0.000000 
0.765882 0.710299 0.000000 
0.701764 0.815172 0.000000 
0.753203 0.755330 0.000000 
0.736807 0.730208 0.000000 
0.768654 0.763158 0.000000 
0.738699 0.764797 0.000000 
0.722302 0.739674 0.000000 
0.735928 0.710844 0.000000 
0.783157 0.753687 0.000000 
0.739740 0.783251 0.000000 
0.723248 0.756969 0.000000 
0.708744 0.766435 0.000000 
0.707302 0.783569 0.000000 
0.722847 0.792557 0.000000 
0.686761 0.794237 0.000000 
0.693293 0.758607 0.000000 
0.674807 0.768058 0.000000 
0.692347 0.741313 0.000000 
0.669717 0.786553 0.000000 
0.649174 0.796184 0.000000 
0.653473 0.759510 0.000000 
0.676896 0.733485 0.000000 
0.706852 0.731846 0.000000 
0.656508 0.742232 0.000000 
0.675950 0.716190 0.000000 
0.705906 0.714551 0.000000 
0.659030 0.701929 0.000000 
0.690455 0.706723 0.000000 
0.689509 0.689429 0.000000 
0.675725 0.677655 0.000000 
0.680073 0.657105 0.000000 
0.704013 0.679962 0.000000 
0.698376 0.659959 0.000000 
0.719531 0.685721 0.000000 
0.735051 0.674736 0.000000 
0.774803 0.639462 0.000000 
0.670778 0.823959 0.000000 
0.683228 0.809146 0.000000 
0.697015 0.619334 0.000000 
0.813447 0.795045 0.000000 
0.807332 0.812182 0.000000 
0.799952 0.782606 0.000000 
0.782362 0.788104 0.000000 
0.778311 0.805360 0.000000 
0.759805 0.806960 0.000000 
0.753871 0.790250 0.000000 
0.768281 0.779624 0.000000 
0.613440 0.735626 0.000000 
0.834782 0.766830 0.000000 
0.815231 0.759337 0.000000 
0.720477 0.703016 0.000000 
0.759971 0.848296 0.000000 
0.765761 0.868640 0.000000 
0.620965 0.685695 0.000000 
0.659751 0.680688 0.000000 
0.750498 0.700401 0.000000 
0.747369 0.615561 0.000000 
0.699258 0.830986 0.000000 
0.670214 0.643002 0.000000 
0.843836 0.779525 0.000000 
0.866969 0.779320 0.000000 
0.839696 0.671878 0.000000 
0.853958 0.653664 0.000000 
0.633036 0.768232 0.000000 
0.656386 0.829961 0.000000 
0.651439 0.852560 0.000000 
0.789786 0.816998 0.000000 
0.830809 0.736469 0.000000 
0.800374 0.764655 0.000000 
0.792870 0.641610 0.000000 
0.633828 0.786410 0.000000 
0.837983 0.719748 0.000000 
0.746082 0.646546 0.000000 
0.733035 0.659368 0.000000 
0.736597 0.629242 0.000000 
0.711878 0.650350 0.000000 
0.590140 0.671662 0.000000 
0.713393 0.630981 0.000000 
0.644108 0.719050 0.000000 
0.626894 0.712121 0.000000 
VECTORS X_EC float 
-0.204941 0.114859 0.000000 
0.583164 0.021006 0.000000 
-0.964545 0.198624 0.000000 
0.462136 0.731502 0.000000 
0.904415 0.307805 0.000000 
-0.067875 -0.775221 0.000000 
0.616836 0.021006 0.000000 
-0.595059 0.114859 0.000000 
-0.995274 -0.802960 0.000000 
0.729711 0.719313 0.000000 
-0.744469 -0.162254 0.000000 
0.022238 -0.995664 0.000000 
-0.889736 -0.973583 0.000000 
-0.055531 -0.162254 0.000000 
-0.400000 0.584390 0.000000 
0.217896 -0.790218 0.000000 
-0.549410 -0.752605 0.000000 
-0.680055 -0.750947 0.000000 
0.268360 0.329736 0.000000 
-0.226686 -0.778115 0.000000 
0.168687 0.172993 0.000000 
-0.119945 -0.449053 0.000000 
0.923323 0.474347 0.000000 
0.495182 -0.000545 0.000000 
-0.958037 0.672095 0.000000 
0.583164 0.778994 0.000000 
-0.229375 0.677502 0.000000 
0.985175 -0.426021 0.000000 
-0.560211 0.682357 0.000000 
0.616836 0.778994 0.000000 
-0.744469 0.962254 0.000000 
0.729711 0.080687 0.000000 
0.336636 0.521928 0.000000 
-0.680055 -0.449053 0.000000 
-0.573314 -0.421885 0.000000 
0.168687 0.627007 0.000000 
-0.274676 -0.491995 0.000000 
-0.055531 0.962254 0.000000 
-0.817959 -0.188373 0.000000 
0.048149 -0.206001 0.000000 
0.195274 -0.397040 0.000000 
-0.400000 0.215610 0.000000 
0.000986 -0.142464 0.000000 
0.350411 -0.089797 0.000000 
0.554929 -0.346798 0.000000 
0.470091 0.216069 0.000000 
0.421572 -0.624887 0.000000 
0.096124 -0.674476 0.000000 
0.588559 -0.916031 0.000000 
0.335915 0.848876 0.000000 
0.895794 -0.316431 0.000000 
0.804762 0.287523 0.000000 
0.261506 0.440904 0.000000 
0.339335 0.760371 0.000000 
-0.064101 0.392362 0.000000 
0.028621 0.910552 0.000000 
-0.901726 -0.596230 0.000000 
-0.974053 0.012024 0.000000 
0.887186 0.581966 0.000000 
-0.219833 -0.752043 0.000000 
-0.043147 -0.446014 0.000000 
0.285299 -0.446353 0.000000 
-0.207664 -0.161741 0.000000 
0.421232 -0.725111 0.000000 
0.257088 0.989525 0.000000 
0.761273 -0.781627 0.000000 
0.787556 0.874271 0.000000 
0.474083 -0.160921 0.000000 
-0.054864 0.144467 0.000000 
-0.523786 -0.189752 0.000000 
-0.776472 0.044707 0.000000 
-0.688846 -0.474587 0.000000 
0.912385 -0.104583 0.000000 
0.819083 -0.177068 0.000000 
0.298436 0.145625 0.000000 
-0.289125 0.396232 0.000000 
0.633818 0.379436 0.000000 
-0.988772 0.533623 0.000000 
0.931936 0.875602 0.000000 
-0.809024 0.635248 0.000000 
-0.882440 0.315112 0.000000 
-0.495270 0.732383 0.000000 
0.807225 0.248699 0.000000 
0.565542 0.472228 0.000000 
0.634873 -0.049824 0.000000 
0.293549 0.001123 0.000000 
-0.646173 0.067546 0.000000 
-0.230740 0.515277 0.000000 
-0.452234 -0.953188 0.000000 
-0.167426 -0.759009 0.000000 
-0.693199 -0.728884 0.000000 
-0.243737 -0.422447 0.000000 
-0.738685 -0.265211 0.000000 