# vtk DataFile Version 3.0 
vtk output 
ASCII 
DATASET UNSTRUCTURED_GRID 
POINTS 616 float 
0.220743 0.425247 0.000000 
0.116050 0.085842 0.000000 
0.424931 0.263227 0.000000 
0.051575 0.291893 0.000000 
0.330390 0.069779 0.000000 
0.276239 0.418394 0.000000 
0.116050 0.384158 0.000000 
0.220743 0.044753 0.000000 
0.374852 0.364764 0.000000 
0.050966 0.178514 0.000000 
0.406887 0.152223 0.000000 
0.165217 0.413888 0.000000 
0.166321 0.059487 0.000000 
0.406887 0.317777 0.000000 
0.044219 0.235000 0.000000 
0.375489 0.104105 0.000000 
0.077370 0.342470 0.000000 
0.277453 0.049003 0.000000 
0.331487 0.401582 0.000000 
0.076094 0.126334 0.000000 
0.423650 0.206566 0.000000 
0.192547 0.420997 0.000000 
0.138717 0.068834 0.000000 
0.414973 0.290241 0.000000 
0.048605 0.262902 0.000000 
0.353950 0.085842 0.000000 
0.248875 0.426469 0.000000 
0.093699 0.365741 0.000000 
0.249118 0.043011 0.000000 
0.353950 0.384158 0.000000 
0.063113 0.152223 0.000000 
0.419034 0.178514 0.000000 
0.141096 0.398168 0.000000 
0.192547 0.049003 0.000000 
0.393906 0.343666 0.000000 
0.046350 0.206566 0.000000 
0.390400 0.128734 0.000000 
0.063113 0.317777 0.000000 
0.305581 0.055898 0.000000 
0.304700 0.412593 0.000000 
0.095148 0.105236 0.000000 
0.425781 0.235000 0.000000 
0.207877 0.414951 0.000000 
0.210510 0.397479 0.000000 
0.197660 0.387254 0.000000 
0.225803 0.391495 0.000000 
0.183756 0.393921 0.000000 
0.181276 0.410194 0.000000 
0.169198 0.385572 0.000000 
0.157444 0.398204 0.000000 
0.199178 0.370210 0.000000 
0.229376 0.374762 0.000000 
0.237045 0.401925 0.000000 
0.253019 0.398033 0.000000 
0.234618 0.418205 0.000000 
0.260528 0.413569 0.000000 
0.185189 0.360086 0.000000 
0.215601 0.363703 0.000000 
0.244098 0.370641 0.000000 
0.077398 0.325992 0.000000 
0.092699 0.317157 0.000000 
0.092682 0.300735 0.000000 
0.106913 0.325383 0.000000 
0.078744 0.293938 0.000000 
0.064476 0.302146 0.000000 
0.075919 0.276936 0.000000 
0.058714 0.275622 0.000000 
0.106954 0.291296 0.000000 
0.122223 0.317743 0.000000 
0.105512 0.341189 0.000000 
0.117235 0.353824 0.000000 
0.091271 0.349442 0.000000 
0.109771 0.369381 0.000000 
0.106147 0.274046 0.000000 
0.122281 0.300078 0.000000 
0.134812 0.329456 0.000000 
0.133972 0.383309 0.000000 
0.141681 0.364439 0.000000 
0.358780 0.368403 0.000000 
0.346762 0.355451 0.000000 
0.330756 0.359122 0.000000 
0.351619 0.339763 0.000000 
0.327435 0.374639 0.000000 
0.338611 0.386723 0.000000 
0.312509 0.383256 0.000000 
0.315056 0.400323 0.000000 
0.318377 0.347309 0.000000 
0.340764 0.326537 0.000000 
0.367341 0.337612 0.000000 
0.377050 0.323371 0.000000 
0.378556 0.349660 0.000000 
0.393878 0.327187 0.000000 
0.301739 0.351934 0.000000 
0.323529 0.330411 0.000000 
0.349382 0.311658 0.000000 
0.055780 0.248067 0.000000 
0.086539 0.247794 0.000000 
0.111220 0.101597 0.000000 
0.123238 0.114549 0.000000 
0.139244 0.110878 0.000000 
0.118381 0.130237 0.000000 
0.142769 0.095777 0.000000 
0.131593 0.083693 0.000000 
0.158716 0.089239 0.000000 
0.156169 0.072173 0.000000 
0.151623 0.122691 0.000000 
0.129236 0.143463 0.000000 
0.102659 0.132388 0.000000 
0.092950 0.146629 0.000000 
0.091444 0.120340 0.000000 
0.076122 0.142813 0.000000 
0.168261 0.118066 0.000000 
0.146471 0.139589 0.000000 
0.123380 0.159709 0.000000 
0.337515 0.084638 0.000000 
0.327562 0.099237 0.000000 
0.334702 0.114025 0.000000 
0.311187 0.097993 0.000000 
0.350123 0.114051 0.000000 
0.359417 0.100466 0.000000 
0.359616 0.127889 0.000000 
0.375687 0.121608 0.000000 
0.325940 0.128722 0.000000 
0.300707 0.111519 0.000000 
0.305590 0.083144 0.000000 
0.289547 0.076847 0.000000 
0.314841 0.069529 0.000000 
0.289522 0.059592 0.000000 
0.334152 0.143914 0.000000 
0.308320 0.127460 0.000000 
0.283566 0.109425 0.000000 
0.416474 0.221400 0.000000 
0.398855 0.222721 0.000000 
0.391745 0.237524 0.000000 
0.389618 0.209142 0.000000 
0.401340 0.249596 0.000000 
0.417756 0.248393 0.000000 
0.396439 0.265646 0.000000 
0.411370 0.274295 0.000000 
0.374791 0.239836 0.000000 
0.372509 0.209383 0.000000 
0.397738 0.195509 0.000000 
0.392658 0.179040 0.000000 
0.414150 0.194253 0.000000 
0.406133 0.168262 0.000000 
0.368034 0.255728 0.000000 
0.364792 0.225273 0.000000 
0.366250 0.193368 0.000000 
0.390372 0.145213 0.000000 
0.375239 0.158869 0.000000 
0.182380 0.063181 0.000000 
0.190905 0.094262 0.000000 
0.261984 0.053307 0.000000 
0.254475 0.068843 0.000000 
0.053526 0.221400 0.000000 
0.069705 0.223843 0.000000 
0.078942 0.210264 0.000000 
0.071960 0.240545 0.000000 
0.072262 0.195509 0.000000 
0.055850 0.194253 0.000000 
0.077342 0.179040 0.000000 
0.063867 0.168262 0.000000 
0.096051 0.210505 0.000000 
0.107169 0.193372 0.000000 
0.101393 0.231332 0.000000 
0.207877 0.055049 0.000000 
0.210510 0.072521 0.000000 
0.225803 0.078505 0.000000 
0.194728 0.078435 0.000000 
0.237288 0.067555 0.000000 
0.234861 0.051274 0.000000 
0.260753 0.085665 0.000000 
0.227813 0.096958 0.000000 
0.245576 0.102831 0.000000 
0.208696 0.106801 0.000000 
0.402072 0.300493 0.000000 
0.381959 0.297176 0.000000 
0.287427 0.406295 0.000000 
0.284466 0.383134 0.000000 
0.169113 0.368780 0.000000 
0.299192 0.372365 0.000000 
0.352407 0.143055 0.000000 
0.089049 0.266483 0.000000 
0.171829 0.099714 0.000000 
0.380087 0.269466 0.000000 
0.247534 0.353677 0.000000 
0.338261 0.298396 0.000000 
0.273111 0.123218 0.000000 
0.150216 0.321566 0.000000 
0.134501 0.172971 0.000000 
0.348947 0.193794 0.000000 
0.186906 0.342864 0.000000 
0.289345 0.339854 0.000000 
0.325132 0.158685 0.000000 
0.120682 0.264651 0.000000 
0.180655 0.130146 0.000000 
0.350862 0.257886 0.000000 
0.256499 0.383483 0.000000 
0.369946 0.310644 0.000000 
0.278001 0.089602 0.000000 
0.131224 0.349731 0.000000 
0.102816 0.160723 0.000000 
0.378279 0.176658 0.000000 
0.236174 0.340796 0.000000 
0.151553 0.169955 0.000000 
0.329125 0.176041 0.000000 
0.314967 0.188831 0.000000 
0.314988 0.205157 0.000000 
0.300839 0.180650 0.000000 
0.333397 0.209283 0.000000 
0.300796 0.214679 0.000000 
0.285497 0.188180 0.000000 
0.306470 0.162644 0.000000 
0.301693 0.231919 0.000000 
0.285433 0.205882 0.000000 
0.271015 0.178783 0.000000 
0.317496 0.243894 0.000000 
0.287211 0.241394 0.000000 
0.255568 0.186587 0.000000 
0.268545 0.159110 0.000000 
0.218964 0.346700 0.000000 
0.240547 0.324160 0.000000 
0.157668 0.152818 0.000000 
0.271762 0.233570 0.000000 
0.225842 0.314250 0.000000 
0.258472 0.323629 0.000000 
0.271536 0.339885 0.000000 
0.257257 0.243036 0.000000 
0.270882 0.215299 0.000000 
0.206764 0.320172 0.000000 
0.258203 0.260330 0.000000 
0.241807 0.235208 0.000000 
0.273654 0.268158 0.000000 
0.243699 0.269797 0.000000 
0.227302 0.244674 0.000000 
0.240928 0.215844 0.000000 
0.288157 0.258687 0.000000 
0.244740 0.288251 0.000000 
0.228248 0.261969 0.000000 
0.213744 0.271435 0.000000 
0.212302 0.288569 0.000000 
0.227847 0.297557 0.000000 
0.191761 0.299237 0.000000 
0.198293 0.263607 0.000000 
0.179807 0.273058 0.000000 
0.197347 0.246313 0.000000 
0.174717 0.291553 0.000000 
0.154174 0.301184 0.000000 
0.158473 0.264510 0.000000 
0.181896 0.238485 0.000000 
0.211852 0.236846 0.000000 
0.161508 0.247232 0.000000 
0.180950 0.221190 0.000000 
0.210906 0.219551 0.000000 
0.164030 0.206929 0.000000 
0.195455 0.211723 0.000000 
0.194509 0.194429 0.000000 
0.180725 0.182655 0.000000 
0.185073 0.162105 0.000000 
0.209013 0.184962 0.000000 
0.203376 0.164959 0.000000 
0.224531 0.190721 0.000000 
0.240051 0.179736 0.000000 
0.279803 0.144462 0.000000 
0.175778 0.328959 0.000000 
0.188228 0.314146 0.000000 
0.202015 0.124334 0.000000 
0.318447 0.300045 0.000000 
0.312332 0.317182 0.000000 
0.304952 0.287606 0.000000 
0.287362 0.293104 0.000000 
0.283311 0.310360 0.000000 
0.264805 0.311960 0.000000 
0.258871 0.295250 0.000000 
0.273281 0.284624 0.000000 
0.118440 0.240626 0.000000 
0.339782 0.271830 0.000000 
0.320231 0.264337 0.000000 
0.225477 0.208016 0.000000 
0.264971 0.353296 0.000000 
0.270761 0.373640 0.000000 
0.125965 0.190695 0.000000 
0.164751 0.185688 0.000000 
0.255498 0.205401 0.000000 
0.252369 0.120561 0.000000 
0.204258 0.335986 0.000000 
0.175214 0.148002 0.000000 
0.348836 0.284525 0.000000 
0.371969 0.284320 0.000000 
0.344696 0.176878 0.000000 
0.358958 0.158664 0.000000 
0.138036 0.273232 0.000000 
0.161386 0.334961 0.000000 
0.156439 0.357560 0.000000 
0.294786 0.321998 0.000000 
0.335809 0.241469 0.000000 
0.305374 0.269655 0.000000 
0.297870 0.146610 0.000000 
0.138828 0.291410 0.000000 
0.342983 0.224748 0.000000 
0.251082 0.151546 0.000000 
0.238035 0.164368 0.000000 
0.241597 0.134242 0.000000 
0.216878 0.155350 0.000000 
0.095140 0.176662 0.000000 
0.218393 0.135981 0.000000 
0.149108 0.224050 0.000000 
0.131894 0.217121 0.000000 
0.750743 0.955247 0.000000 
0.646050 0.615842 0.000000 
0.954931 0.793227 0.000000 
0.581575 0.821893 0.000000 
0.860390 0.599779 0.000000 
0.806239 0.948394 0.000000 
0.646050 0.914158 0.000000 
0.750743 0.574753 0.000000 
0.904852 0.894764 0.000000 
0.580966 0.708514 0.000000 
0.936887 0.682223 0.000000 
0.695217 0.943888 0.000000 
0.696321 0.589487 0.000000 
0.936887 0.847777 0.000000 
0.574219 0.765000 0.000000 
0.905489 0.634105 0.000000 
0.607370 0.872470 0.000000 
0.807453 0.579003 0.000000 
0.861487 0.931582 0.000000 
0.606094 0.656334 0.000000 
0.953650 0.736566 0.000000 
0.722547 0.950997 0.000000 
0.668717 0.598834 0.000000 
0.944973 0.820241 0.000000 
0.578605 0.792902 0.000000 
0.883950 0.615842 0.000000 
0.778875 0.956469 0.000000 
0.623699 0.895741 0.000000 
0.779118 0.573011 0.000000 
0.883950 0.914158 0.000000 
0.593113 0.682223 0.000000 
0.949034 0.708514 0.000000 
0.671096 0.928168 0.000000 
0.722547 0.579003 0.000000 
0.923906 0.873666 0.000000 
0.576350 0.736566 0.000000 
0.920400 0.658734 0.000000 
0.593113 0.847777 0.000000 
0.835581 0.585898 0.000000 
0.834700 0.942593 0.000000 
0.625148 0.635236 0.000000 
0.955781 0.765000 0.000000 
0.737877 0.944951 0.000000 
0.740510 0.927479 0.000000 
0.727660 0.917254 0.000000 
[...]
POINT_DATA 616 
VECTORS X_GC float 
0.220743 0.425247 0.000000 
0.116050 0.085842 0.000000 
0.424931 0.263227 0.000000 
0.051575 0.291893 0.000000 
0.330390 0.069779 0.000000 
0.276239 0.418394 0.000000 
0.116050 0.384158 0.000000 
0.220743 0.044753 0.000000 
0.374852 0.364764 0.000000 
0.050966 0.178514 0.000000 
0.406887 0.152223 0.000000 
0.165217 0.413888 0.000000 
0.166321 0.059487 0.000000 
0.406887 0.317777 0.000000 
0.044219 0.235000 0.000000 
0.375489 0.104105 0.000000 
0.077370 0.342470 0.000000 
0.277453 0.049003 0.000000 
0.331487 0.401582 0.000000 
0.076094 0.126334 0.000000 
0.423650 0.206566 0.000000 
0.192547 0.420997 0.000000 
0.138717 0.068834 0.000000 
0.414973 0.290241 0.000000 
0.048605 0.262902 0.000000 
0.353950 0.085842 0.000000 
0.248875 0.426469 0.000000 
0.093699 0.365741 0.000000 
0.249118 0.043011 0.000000 
0.353950 0.384158 0.000000 
0.063113 0.152223 0.000000 
0.419034 0.178514 0.000000 
0.141096 0.398168 0.000000 
0.192547 0.049003 0.000000 
0.393906 0.343666 0.000000 
0.046350 0.206566 0.000000 
0.390400 0.128734 0.000000 
0.063113 0.317777 0.000000 
0.305581 0.055898 0.000000 
0.304700 0.412593 0.000000 
0.095148 0.105236 0.000000 
0.425781 0.235000 0.000000 
0.207877 0.414951 0.000000 
0.210510 0.397479 0.000000 
0.197660 0.387254 0.000000 
0.225803 0.391495 0.000000 
0.183756 0.393921 0.000000 
0.181276 0.410194 0.000000 
0.169198 0.385572 0.000000 
0.157444 0.398204 0.000000 
0.199178 0.370210 0.000000 
0.229376 0.374762 0.000000 
0.237045 0.401925 0.000000 
0.253019 0.398033 0.000000 
0.234618 0.418205 0.000000 
0.260528 0.413569 0.000000 
0.185189 0.360086 0.000000 
0.215601 0.363703 0.000000 
0.244098 0.370641 0.000000 
0.077398 0.325992 0.000000 
0.092699 0.317157 0.000000 
0.092682 0.300735 0.000000 
0.106913 0.325383 0.000000 
0.078744 0.293938 0.000000 
0.064476 0.302146 0.000000 
0.075919 0.276936 0.000000 
0.058714 0.275622 0.000000 
0.106954 0.291296 0.000000 
0.122223 0.317743 0.000000 
0.105512 0.341189 0.000000 
0.117235 0.353824 0.000000 
0.091271 0.349442 0.000000 
0.109771 0.369381 0.000000 
0.106147 0.274046 0.000000 
0.122281 0.300078 0.000000 
0.134812 0.329456 0.000000 
0.133972 0.383309 0.000000 
0.141681 0.364439 0.000000 
0.358780 0.368403 0.000000 
0.346762 0.355451 0.000000 
0.330756 0.359122 0.000000 
0.351619 0.339763 0.000000 
0.327435 0.374639 0.000000 
0.338611 0.386723 0.000000 
0.312509 0.383256 0.000000 
0.315056 0.400323 0.000000 
0.318377 0.347309 0.000000 
0.340764 0.326537 0.000000 
0.367341 0.337612 0.000000 
0.377050 0.323371 0.000000 
0.378556 0.349660 0.000000 
0.393878 0.327187 0.000000 
0.301739 0.351934 0.000000 
0.323529 0.330411 0.000000 
0.349382 0.311658 0.000000 
0.055780 0.248067 0.000000 
0.086539 0.247794 0.000000 
0.111220 0.101597 0.000000 
0.123238 0.114549 0.000000 
0.139244 0.110878 0.000000 
0.118381 0.130237 0.000000 
0.142769 0.095777 0.000000 
0.131593 0.083693 0.000000 
0.158716 0.089239 0.000000 
0.156169 0.072173 0.000000 
0.151623 0.122691 0.000000 
0.129236 0.143463 0.000000 
0.102659 0.132388 0.000000 
0.092950 0.146629 0.000000 
0.091444 0.120340 0.000000 
0.076122 0.142813 0.000000 
0.168261 0.118066 0.000000 
0.146471 0.139589 0.000000 
0.123380 0.159709 0.000000 
0.337515 0.084638 0.000000 
0.327562 0.099237 0.000000 
0.334702 0.114025 0.000000 
0.311187 0.097993 0.000000 
0.350123 0.114051 0.000000 
0.359417 0.100466 0.000000 
0.359616 0.127889 0.000000 
0.375687 0.121608 0.000000 
0.325940 0.128722 0.000000 
0.300707 0.111519 0.000000 
0.305590 0.083144 0.000000 
0.289547 0.076847 0.000000 
0.314841 0.069529 0.000000 
0.289522 0.059592 0.000000 
0.334152 0.143914 0.000000 
0.308320 0.127460 0.000000 
0.283566 0.109425 0.000000 
0.416474 0.221400 0.000000 
0.398855 0.222721 0.000000 
0.391745 0.237524 0.000000 
0.389618 0.209142 0.000000 
0.401340 0.249596 0.000000 
0.417756 0.248393 0.000000 
0.396439 0.265646 0.000000 
0.411370 0.274295 0.000000 
0.374791 0.239836 0.000000 
0.372509 0.209383 0.000000 
0.397738 0.195509 0.000000 
0.392658 0.179040 0.000000 
0.414150 0.194253 0.000000 
0.406133 0.168262 0.000000 
0.368034 0.255728 0.000000 
0.364792 0.225273 0.000000 
0.366250 0.193368 0.000000 
0.390372 0.145213 0.000000 
0.375239 0.158869 0.000000 
0.182380 0.063181 0.000000 
0.190905 0.094262 0.000000 
0.261984 0.053307 0.000000 
0.254475 0.068843 0.000000 
0.053526 0.221400 0.000000 
0.069705 0.223843 0.000000 
0.078942 0.210264 0.000000 
0.071960 0.240545 0.000000 
0.072262 0.195509 0.000000 
0.055850 0.194253 0.000000 
0.077342 0.179040 0.000000 
0.063867 0.168262 0.000000 
0.096051 0.210505 0.000000 
0.107169 0.193372 0.000000 
0.101393 0.231332 0.000000 
0.207877 0.055049 0.000000 
0.210510 0.072521 0.000000 
0.225803 0.078505 0.000000 
0.194728 0.078435 0.000000 
0.237288 0.067555 0.000000 
0.234861 0.051274 0.000000 
0.260753 0.085665 0.000000 
0.227813 0.096958 0.000000 
0.245576 0.102831 0.000000 
0.208696 0.106801 0.000000 
0.402072 0.300493 0.000000 
0.381959 0.297176 0.000000 
0.287427 0.406295 0.000000 
0.284466 0.383134 0.000000 
0.169113 0.368780 0.000000 
0.299192 0.372365 0.000000 
0.352407 0.143055 0.000000 
0.089049 0.266483 0.000000 
0.171829 0.099714 0.000000 
0.380087 0.269466 0.000000 
0.247534 0.353677 0.000000 
0.338261 0.298396 0.000000 
0.273111 0.123218 0.000000 
0.150216 0.321566 0.000000 
0.134501 0.172971 0.000000 
0.348947 0.193794 0.000000 
0.186906 0.342864 0.000000 
0.289345 0.339854 0.000000 
0.325132 0.158685 0.000000 
0.120682 0.264651 0.000000 
0.180655 0.130146 0.000000 
0.350862 0.257886 0.000000 
0.256499 0.383483 0.000000 
0.369946 0.310644 0.000000 
0.278001 0.089602 0.000000 
0.131224 0.349731 0.000000 
0.102816 0.160723 0.000000 
0.378279 0.176658 0.000000 
0.236174 0.340796 0.000000 
0.151553 0.169955 0.000000 
0.329125 0.176041 0.000000 
0.314967 0.188831 0.000000 
0.314988 0.205157 0.000000 
0.300839 0.180650 0.000000 
0.333397 0.209283 0.000000 
0.300796 0.214679 0.000000 
0.285497 0.188180 0.000000 
0.306470 0.162644 0.000000 
0.301693 0.231919 0.000000 
0.285433 0.205882 0.000000 
0.271015 0.178783 0.000000 
0.317496 0.243894 0.000000 
0.287211 0.241394 0.000000 
0.255568 0.186587 0.000000 
0.268545 0.159110 0.000000 
0.218964 0.346700 0.000000 
0.240547 0.324160 0.000000 
0.157668 0.152818 0.000000 
0.271762 0.233570 0.000000 
0.225842 0.314250 0.000000 
0.258472 0.323629 0.000000 
0.271536 0.339885 0.000000 
0.257257 0.243036 0.000000 
0.270882 0.215299 0.000000 
0.206764 0.320172 0.000000 
0.258203 0.260330 0.000000 
0.241807 0.235208 0.000000 
0.273654 0.268158 0.000000 
0.243699 0.269797 0.000000 
0.227302 0.244674 0.000000 
0.240928 0.215844 0.000000 
0.288157 0.258687 0.000000 
0.244740 0.288251 0.000000 
0.228248 0.261969 0.000000 
0.213744 0.271435 0.000000 
0.212302 0.288569 0.000000 
0.227847 0.297557 0.000000 
0.191761 0.299237 0.000000 
0.198293 0.263607 0.000000 
0.179807 0.273058 0.000000 
0.197347 0.246313 0.000000 
0.174717 0.291553 0.000000 
0.154174 0.301184 0.000000 
0.158473 0.264510 0.000000 
0.181896 0.238485 0.000000 
0.211852 0.236846 0.000000 
0.161508 0.247232 0.000000 
0.180950 0.221190 0.000000 
0.210906 0.219551 0.000000 
0.164030 0.206929 0.000000 
0.195455 0.211723 0.000000 
0.194509 0.194429 0.000000 
0.180725 0.182655 0.000000 
0.185073 0.162105 0.000000 
0.209013 0.184962 0.000000 
0.203376 0.164959 0.000000 
0.224531 0.190721 0.000000 
0.240051 0.179736 0.000000 
0.279803 0.144462 0.000000 
0.175778 0.328959 0.000000 
0.188228 0.314146 0.000000 
0.202015 0.124334 0.000000 
0.318447 0.300045 0.000000 
0.312332 0.317182 0.000000 
0.304952 0.287606 0.000000 
0.287362 0.293104 0.000000 
0.283311 0.310360 0.000000 
0.264805 0.311960 0.000000 
0.258871 0.295250 0.000000 
0.273281 0.284624 0.000000 
0.118440 0.240626 0.000000 
0.339782 0.271830 0.000000 
0.320231 0.264337 0.000000 
0.225477 0.208016 0.000000 
0.264971 0.353296 0.000000 
0.270761 0.373640 0.000000 
0.125965 0.190695 0.000000 
0.164751 0.185688 0.000000 
0.255498 0.205401 0.000000 
0.252369 0.120561 0.000000 
0.204258 0.335986 0.000000 
0.175214 0.148002 0.000000 
0.348836 0.284525 0.000000 
0.371969 0.284320 0.000000 
0.344696 0.176878 0.000000 
0.358958 0.158664 0.000000 
0.138036 0.273232 0.000000 
0.161386 0.334961 0.000000 
0.156439 0.357560 0.000000 
0.294786 0.321998 0.000000 
0.335809 0.241469 0.000000 
0.305374 0.269655 0.000000 
0.297870 0.146610 0.000000 
0.138828 0.291410 0.000000 
0.342983 0.224748 0.000000 
0.251082 0.151546 0.000000 
0.238035 0.164368 0.000000 
0.241597 0.134242 0.000000 
0.216878 0.155350 0.000000 
0.095140 0.176662 0.000000 
0.218393 0.135981 0.000000 
0.149108 0.224050 0.000000 
0.131894 0.217121 0.000000 
0.750743 0.955247 0.000000 
0.646050 0.615842 0.000000 
0.954931 0.793227 0.000000 
0.581575 0.821893 0.000000 
0.860390 0.599779 0.000000 
0.806239 0.948394 0.000000 
0.646050 0.914158 0.000000 
0.750743 0.574753 0.000000 
0.904852 0.894764 0.000000 
0.580966 0.708514 0.000000 
0.936887 0.682223 0.000000 
0.695217 0.943888 0.000000 
0.696321 0.589487 0.000000 
0.936887 0.847777 0.000000 
0.574219 0.765000 0.000000 
0.905489 0.634105 0.000000 
0.607370 0.872470 0.000000 
0.807453 0.579003 0.000000 
0.861487 0.931582 0.000000 
0.606094 0.656334 0.000000 
0.953650 0.736566 0.000000 
0.722547 0.950997 0.000000 
0.668717 0.598834 0.000000 
0.944973 0.820241 0.000000 
0.578605 0.792902 0.000000 
0.883950 0.615842 0.000000 
0.778875 0.956469 0.000000 
0.623699 0.895741 0.000000 
0.779118 0.573011 0.000000 
0.883950 0.914158 0.000000 
0.593113 0.682223 0.000000 
0.949034 0.708514 0.000000 
0.671096 0.928168 0.000000 
0.722547 0.579003 0.000000 
0.923906 0.873666 0.000000 
0.576350 0.736566 0.000000 
0.920400 0.658734 0.000000 
0.593113 0.847777 0.000000 
0.835581 0.585898 0.000000 
0.834700 0.942593 0.000000 
0.625148 0.635236 0.000000 
0.955781 0.765000 0.000000 
0.737877 0.944951 0.000000 
0.740510 0.927479 0.000000 
0.727660 0.917254 0.000000 
0.755803 0.921495 0.000000 
0.713756 0.923921 0.000000 
0.711276 0.940194 0.000000 
0.699198 0.915572 0.000000 
0.687444 0.928204 0.000000 
0.729178 0.900210 0.000000 
0.759376 0.904762 0.000000 
0.767045 0.931925 0.000000 
0.783019 0.928033 0.000000 
0.764618 0.948205 0.000000 
0.790528 0.943569 0.000000 
0.715189 0.890086 0.000000 
0.745601 0.893703 0.000000 
0.774098 0.900641 0.000000 
0.607398 0.855992 0.000000 
0.622699 0.847157 0.000000 
0.622682 0.830735 0.000000 
0.636913 0.855383 0.000000 
0.608744 0.823938 0.000000 
0.594476 0.832146 0.000000 
0.605919 0.806936 0.000000 
0.588714 0.805622 0.000000 
0.636954 0.821296 0.000000 
0.652223 0.847743 0.000000 
0.635512 0.871189 0.000000 
0.647235 0.883824 0.000000 
0.621271 0.879442 0.000000 
0.639771 0.899381 0.000000 
0.636147 0.804046 0.000000 
0.652281 0.830078 0.000000 
0.664812 0.859456 0.000000 
0.663972 0.913309 0.000000 
0.671681 0.894439 0.000000 
0.888780 0.898403 0.000000 
0.876762 0.885451 0.000000 
0.860756 0.889122 0.000000 
0.881619 0.869763 0.000000 
0.857435 0.904639 0.000000 
0.868611 0.916723 0.000000 
0.842509 0.913256 0.000000 
0.845056 0.930323 0.000000 
0.848377 0.877309 0.000000 
0.870764 0.856537 0.000000 
0.897341 0.867612 0.000000 
0.907050 0.853371 0.000000 
0.908556 0.879660 0.000000 
0.923878 0.857187 0.000000 
0.831739 0.881934 0.000000 
0.853529 0.860411 0.000000 
0.879382 0.841658 0.000000 
0.585780 0.778067 0.000000 
0.616539 0.777794 0.000000 
0.641220 0.631597 0.000000 
0.653238 0.644549 0.000000 
0.669244 0.640878 0.000000 
0.648381 0.660237 0.000000 
0.672769 0.625777 0.000000 
0.661593 0.613693 0.000000 
0.688716 0.619239 0.000000 
0.686169 0.602173 0.000000 
0.681623 0.652691 0.000000 
0.659236 0.673463 0.000000 
0.632659 0.662388 0.000000 
0.622950 0.676629 0.000000 
0.621444 0.650340 0.000000 
0.606122 0.672813 0.000000 
0.698261 0.648066 0.000000 
0.676471 0.669589 0.000000 
0.653380 0.689709 0.000000 
0.867515 0.614638 0.000000 
0.857562 0.629237 0.000000 
0.864702 0.644025 0.000000 
0.841187 0.627993 0.000000 
0.880123 0.644051 0.000000 
0.889417 0.630466 0.000000 
0.889616 0.657889 0.000000 
0.905687 0.651608 0.000000 
0.855940 0.658722 0.000000 
0.830707 0.641519 0.000000 
0.835590 0.613144 0.000000 
0.819547 0.606847 0.000000 
0.844841 0.599529 0.000000 
0.819522 0.589592 0.000000 
0.864152 0.673914 0.000000 
0.838320 0.657460 0.000000 
0.813566 0.639425 0.000000 
0.946474 0.751400 0.000000 
0.928855 0.752721 0.000000 
0.921745 0.767524 0.000000 
0.919618 0.739142 0.000000 
0.931340 0.779596 0.000000 
0.947756 0.778393 0.000000 
0.926439 0.795646 0.000000 
0.941370 0.804295 0.000000 
0.904791 0.769836 0.000000 
0.902509 0.739383 0.000000 
0.927738 0.725509 0.000000 
0.922658 0.709040 0.000000 
0.944150 0.724253 0.000000 
0.936133 0.698262 0.000000 
0.898034 0.785728 0.000000 
0.894792 0.755273 0.000000 
0.896250 0.723368 0.000000 
0.920372 0.675213 0.000000 
0.905239 0.688869 0.000000 
0.712380 0.593181 0.000000 
0.720905 0.624262 0.000000 
0.791984 0.583307 0.000000 
0.784475 0.598843 0.000000 
0.583526 0.751400 0.000000 
0.599705 0.753843 0.000000 
0.608942 0.740264 0.000000 
0.601960 0.770545 0.000000 
0.602262 0.725509 0.000000 
0.585850 0.724253 0.000000 
0.607342 0.709040 0.000000 
0.593867 0.698262 0.000000 
0.626051 0.740505 0.000000 
0.637169 0.723372 0.000000 
0.631393 0.761332 0.000000 
0.737877 0.585049 0.000000 
0.740510 0.602521 0.000000 
0.755803 0.608505 0.000000 
0.724728 0.608435 0.000000 
0.767288 0.597555 0.000000 
0.764861 0.581274 0.000000 
0.790753 0.615665 0.000000 
0.757813 0.626958 0.000000 
0.775576 0.632831 0.000000 
0.738696 0.636801 0.000000 
0.932072 0.830493 0.000000 
0.911959 0.827176 0.000000 
0.817427 0.936295 0.000000 
0.814466 0.913134 0.000000 
0.699113 0.898780 0.000000 
0.829192 0.902365 0.000000 
0.882407 0.673055 0.000000 
0.619049 0.796483 0.000000 
0.701829 0.629714 0.000000 
0.910087 0.799466 0.000000 
0.777534 0.883677 0.000000 
0.868261 0.828396 0.000000 
0.803111 0.653218 0.000000 
0.680216 0.851566 0.000000 
0.664501 0.702971 0.000000 
0.878947 0.723794 0.000000 
0.716906 0.872864 0.000000 
0.819345 0.869854 0.000000 
0.855132 0.688685 0.000000 
0.650682 0.794651 0.000000 
0.710655 0.660146 0.000000 
0.880862 0.787886 0.000000 
0.786499 0.913483 0.000000 
0.899946 0.840644 0.000000 
0.808001 0.619602 0.000000 
0.661224 0.879731 0.000000 
0.632816 0.690723 0.000000 
0.908279 0.706658 0.000000 
0.766174 0.870796 0.000000 
0.681553 0.699955 0.000000 
0.859125 0.706041 0.000000 
0.844967 0.718831 0.000000 
0.844988 0.735157 0.000000 
0.830839 0.710650 0.000000 
0.863397 0.739283 0.000000 
0.830796 0.744679 0.000000 
0.815497 0.718180 0.000000 
0.836470 0.692644 0.000000 
0.831693 0.761919 0.000000 
0.815433 0.735882 0.000000 
0.801015 0.708783 0.000000 
0.847496 0.773894 0.000000 
0.817211 0.771394 0.000000 
0.785568 0.716587 0.000000 
0.798545 0.689110 0.000000 
0.748964 0.876700 0.000000 
0.770547 0.854160 0.000000 
0.687668 0.682818 0.000000 
0.801762 0.763570 0.000000 
0.755842 0.844250 0.000000 
0.788472 0.853629 0.000000 
0.801536 0.869885 0.000000 
0.787257 0.773036 0.000000 
0.800882 0.745299 0.000000 
0.736764 0.850172 0.000000 
0.788203 0.790330 0.000000 
0.771807 0.765208 0.000000 
0.803654 0.798158 0.000000 
0.773699 0.799797 0.000000 
0.757302 0.774674 0.000000 
0.770928 0.745844 0.000000 
0.818157 0.788687 0.000000 
0.774740 0.818251 0.000000 
0.758248 0.791969 0.000000 
0.743744 0.801435 0.000000 
0.742302 0.818569 0.000000 
0.757847 0.827557 0.000000 
0.721761 0.829237 0.000000 
0.728293 0.793607 0.000000 
0.709807 0.803058 0.000000 
0.727347 0.776313 0.000000 
0.704717 0.821553 0.000000 
0.684174 0.831184 0.000000 
0.688473 0.794510 0.000000 
0.711896 0.768485 0.000000 
0.741852 0.766846 0.000000 
0.691508 0.777232 0.000000 
0.710950 0.751190 0.000000 
0.740906 0.749551 0.000000 
0.694030 0.736929 0.000000 
0.725455 0.741723 0.000000 
0.724509 0.724429 0.000000 
0.710725 0.712655 0.000000 
0.715073 0.692105 0.000000 
0.739013 0.714962 0.000000 
0.733376 0.694959 0.000000 
0.754531 0.720721 0.000000 
0.770051 0.709736 0.000000 
0.809803 0.674462 0.000000 
0.705778 0.858959 0.000000 
0.718228 0.844146 0.000000 
0.732015 0.654334 0.000000 
0.848447 0.830045 0.000000 
0.842332 0.847182 0.000000 
0.834952 0.817606 0.000000 
0.817362 0.823104 0.000000 
0.813311 0.840360 0.000000 
0.794805 0.841960 0.000000 
0.788871 0.825250 0.000000 
0.803281 0.814624 0.000000 
0.648440 0.770626 0.000000 
0.869782 0.801830 0.000000 
0.850231 0.794337 0.000000 
0.755477 0.738016 0.000000 
0.794971 0.883296 0.000000 
0.800761 0.903640 0.000000 
0.655965 0.720695 0.000000 
0.694751 0.715688 0.000000 
0.785498 0.735401 0.000000 
0.782369 0.650561 0.000000 
0.734258 0.865986 0.000000 
0.705214 0.678002 0.000000 
0.878836 0.814525 0.000000 
0.901969 0.814320 0.000000 
0.874696 0.706878 0.000000 
0.888958 0.688664 0.000000 
0.668036 0.803232 0.000000 
0.691386 0.864961 0.000000 
0.686439 0.887560 0.000000 
0.824786 0.851998 0.000000 
0.865809 0.771469 0.000000 
0.835374 0.799655 0.000000 
0.827870 0.676610 0.000000 
0.668828 0.821410 0.000000 
0.872983 0.754748 0.000000 
0.781082 0.681546 0.000000 
0.768035 0.694368 0.000000 
0.771597 0.664242 0.000000 
0.746878 0.685350 0.000000 
0.625140 0.706662 0.000000 
0.748393 0.665981 0.000000 
0.679108 0.754050 0.000000 
0.661894 0.747121 0.000000 
VECTORS X_EC float 
0.495059 -0.585141 0.000000 
-0.716836 -0.678994 0.000000 
-0.264545 -0.501376 0.000000 
-0.837864 0.031502 0.000000 
-0.395585 -0.392195 0.000000 
0.632125 0.524779 0.000000 
-0.683164 -0.678994 0.000000 
0.104941 -0.585141 0.000000 
-0.295274 0.497040 0.000000 
-0.570289 0.019313 0.000000 
-0.044469 -0.862254 0.000000 
0.722238 0.304336 0.000000 
-0.189736 0.326417 0.000000 
0.644469 -0.862254 0.000000 
0.300000 -0.115610 0.000000 
0.917896 0.509782 0.000000 
0.150590 0.547395 0.000000 
0.019945 0.549053 0.000000 
0.968360 -0.370264 0.000000 
0.473314 0.521885 0.000000 
0.868687 -0.527007 0.000000 
0.580055 0.850947 0.000000 
-0.376677 -0.225653 0.000000 
-0.804818 -0.700545 0.000000 
-0.258037 -0.027905 0.000000 
-0.716836 0.078994 0.000000 
0.470625 -0.022498 0.000000 
-0.314825 0.873979 0.000000 
0.139789 -0.017643 0.000000 
-0.683164 0.078994 0.000000 
-0.044469 0.262254 0.000000 
-0.570289 -0.619313 0.000000 
-0.963364 -0.178072 0.000000 
0.019945 0.850947 0.000000 
0.126686 0.878115 0.000000 
0.868687 -0.072993 0.000000 
0.425324 0.808005 0.000000 
0.644469 0.262254 0.000000 
-0.117959 -0.888373 0.000000 
0.748149 -0.906001 0.000000 
0.895274 0.902960 0.000000 
0.300000 -0.484390 0.000000 
0.700986 -0.842464 0.000000 
-0.949589 -0.789797 0.000000 
-0.745071 0.953202 0.000000 
-0.829909 -0.483931 0.000000 
-0.878428 0.675113 0.000000 
0.796124 0.625524 0.000000 
-0.711441 0.383969 0.000000 
-0.964085 0.148876 0.000000 
-0.404206 0.983569 0.000000 
-0.495238 -0.412477 0.000000 
0.961506 -0.259096 0.000000 
-0.960665 0.060371 0.000000 
0.635899 -0.307638 0.000000 
0.728621 0.210552 0.000000 
-0.201726 0.703770 0.000000 
-0.274053 -0.687976 0.000000 
-0.412814 -0.118034 0.000000 
0.480167 0.547957 0.000000 
0.656853 0.853986 0.000000 
0.985299 0.853647 0.000000 
0.492336 -0.861741 0.000000 
-0.878768 0.574889 0.000000 
0.957088 0.289525 0.000000 
-0.538727 0.518373 0.000000 
-0.512444 0.174271 0.000000 
-0.825917 -0.860921 0.000000 
0.645136 -0.555533 0.000000 
0.176214 -0.889752 0.000000 
-0.076472 -0.655293 0.000000 
0.011154 0.825413 0.000000 
-0.387615 -0.804583 0.000000 
-0.480917 -0.877068 0.000000 
0.998436 -0.554375 0.000000 
0.410875 -0.303768 0.000000 
-0.666182 -0.320564 0.000000 
-0.288772 -0.166377 0.000000 
-0.368064 0.175602 0.000000 
-0.109024 -0.064752 0.000000 
-0.182440 -0.384888 0.000000 
0.204730 0.032383 0.000000 
-0.492775 -0.451301 0.000000 
-0.734458 -0.227772 0.000000 
-0.665127 -0.749824 0.000000 
0.993549 -0.698877 0.000000 
0.053827 -0.632454 0.000000 
0.469260 -0.184723 0.000000 
0.247766 0.346812 0.000000 
0.532574 0.540991 0.000000 
0.006801 0.571116 0.000000 
0.456263 0.877553 0.000000 