# vtk DataFile Version 3.0 
vtk output 
ASCII 
DATASET UNSTRUCTURED_GRID 
POINTS 616 float 
0.215743 0.420247 0.000000 
0.111050 0.080842 0.000000 
0.419931 0.258227 0.000000 
0.046575 0.286893 0.000000 
0.325390 0.064779 0.000000 
0.271239 0.413394 0.000000 
0.111050 0.379158 0.000000 
0.215743 0.039753 0.000000 
0.369852 0.359764 0.000000 
0.045966 0.173514 0.000000 
0.401887 0.147223 0.000000 
0.160217 0.408888 0.000000 
0.161321 0.054487 0.000000 
0.401887 0.312777 0.000000 
0.039219 0.230000 0.000000 
0.370489 0.099105 0.000000 
0.072370 0.337470 0.000000 
0.272453 0.044003 0.000000 
0.326487 0.396582 0.000000 
0.071094 0.121334 0.000000 
0.418650 0.201566 0.000000 
0.187547 0.415997 0.000000 
0.133717 0.063834 0.000000 
0.409973 0.285241 0.000000 
0.043605 0.257902 0.000000 
0.348950 0.080842 0.000000 
0.243875 0.421469 0.000000 
0.088699 0.360741 0.000000 
0.244118 0.038011 0.000000 
0.348950 0.379158 0.000000 
0.058113 0.147223 0.000000 
0.414034 0.173514 0.000000 
0.136096 0.393168 0.000000 
0.187547 0.044003 0.000000 
0.388906 0.338666 0.000000 
0.041350 0.201566 0.000000 
0.385400 0.123734 0.000000 
0.058113 0.312777 0.000000 
0.300581 0.050898 0.000000 
0.299700 0.407593 0.000000 
0.090148 0.100236 0.000000 
0.420781 0.230000 0.000000 
0.202877 0.409951 0.000000 
0.205510 0.392479 0.000000 
0.192660 0.382254 0.000000 
0.220803 0.386495 0.000000 
0.178756 0.388921 0.000000 
0.176276 0.405194 0.000000 
0.164198 0.380572 0.000000 
0.152444 0.393204 0.000000 
0.194178 0.365210 0.000000 
0.224376 0.369762 0.000000 
0.232045 0.396925 0.000000 
0.248019 0.393033 0.000000 
0.229618 0.413205 0.000000 
0.255528 0.408569 0.000000 
0.180189 0.355086 0.000000 
0.210601 0.358703 0.000000 
0.239098 0.365641 0.000000 
0.072398 0.320992 0.000000 
0.087699 0.312157 0.000000 
0.087682 0.295735 0.000000 
0.101913 0.320383 0.000000 
0.073744 0.288938 0.000000 
0.059476 0.297146 0.000000 
0.070919 0.271936 0.000000 
0.053714 0.270622 0.000000 
0.101954 0.286296 0.000000 
0.117223 0.312743 0.000000 
0.100512 0.336189 0.000000 
0.112235 0.348824 0.000000 
0.086271 0.344442 0.000000 
0.104771 0.364381 0.000000 
0.101147 0.269046 0.000000 
0.117281 0.295078 0.000000 
0.129812 0.324456 0.000000 
0.128972 0.378309 0.000000 
0.136681 0.359439 0.000000 
0.353780 0.363403 0.000000 
0.341762 0.350451 0.000000 
0.325756 0.354122 0.000000 
0.346619 0.334763 0.000000 
0.322435 0.369639 0.000000 
0.333611 0.381723 0.000000 
0.307509 0.378256 0.000000 
0.310056 0.395323 0.000000 
0.313377 0.342309 0.000000 
0.335764 0.321537 0.000000 
0.362341 0.332612 0.000000 
0.372050 0.318371 0.000000 
0.373556 0.344660 0.000000 
0.388878 0.322187 0.000000 
0.296739 0.346934 0.000000 
0.318529 0.325411 0.000000 
0.344382 0.306658 0.000000 
0.050780 0.243067 0.000000 
0.081539 0.242794 0.000000 
0.106220 0.096597 0.000000 
0.118238 0.109549 0.000000 
0.134244 0.105878 0.000000 
0.113381 0.125237 0.000000 
0.137769 0.090777 0.000000 
0.126593 0.078693 0.000000 
0.153716 0.084239 0.000000 
0.151169 0.067173 0.000000 
0.146623 0.117691 0.000000 
0.124236 0.138463 0.000000 
0.097659 0.127388 0.000000 
0.087950 0.141629 0.000000 
0.086444 0.115340 0.000000 
0.071122 0.137813 0.000000 
0.163261 0.113066 0.000000 
0.141471 0.134589 0.000000 
0.118380 0.154709 0.000000 
0.332515 0.079638 0.000000 
0.322562 0.094237 0.000000 
0.329702 0.109025 0.000000 
0.306187 0.092993 0.000000 
0.345123 0.109051 0.000000 
0.354417 0.095466 0.000000 
0.354616 0.122889 0.000000 
0.370687 0.116608 0.000000 
0.320940 0.123722 0.000000 
0.295707 0.106519 0.000000 
0.300590 0.078144 0.000000 
0.284547 0.071847 0.000000 
0.309841 0.064529 0.000000 
0.284522 0.054592 0.000000 
0.329152 0.138914 0.000000 
0.303320 0.122460 0.000000 
0.278566 0.104425 0.000000 
0.411474 0.216400 0.000000 
0.393855 0.217721 0.000000 
0.386745 0.232524 0.000000 
0.384618 0.204142 0.000000 
0.396340 0.244596 0.000000 
0.412756 0.243393 0.000000 
0.391439 0.260646 0.000000 
0.406370 0.269295 0.000000 
0.369791 0.234836 0.000000 
0.367509 0.204383 0.000000 
0.392738 0.190509 0.000000 
0.387658 0.174040 0.000000 
0.409150 0.189253 0.000000 
0.401133 0.163262 0.000000 
0.363034 0.250728 0.000000 
0.359792 0.220273 0.000000 
0.361250 0.188368 0.000000 
0.385372 0.140213 0.000000 
0.370239 0.153869 0.000000 
0.177380 0.058181 0.000000 
0.185905 0.089262 0.000000 
0.256984 0.048307 0.000000 
0.249475 0.063843 0.000000 
0.048526 0.216400 0.000000 
0.064705 0.218843 0.000000 
0.073942 0.205264 0.000000 
0.066960 0.235545 0.000000 
0.067262 0.190509 0.000000 
0.050850 0.189253 0.000000 
0.072342 0.174040 0.000000 
0.058867 0.163262 0.000000 
0.091051 0.205505 0.000000 
0.102169 0.188372 0.000000 
0.096393 0.226332 0.000000 
0.202877 0.050049 0.000000 
0.205510 0.067521 0.000000 
0.220803 0.073505 0.000000 
0.189728 0.073435 0.000000 
0.232288 0.062555 0.000000 
0.229861 0.046274 0.000000 
0.255753 0.080665 0.000000 
0.222813 0.091958 0.000000 
0.240576 0.097831 0.000000 
0.203696 0.101801 0.000000 
0.397072 0.295493 0.000000 
0.376959 0.292176 0.000000 
0.282427 0.401295 0.000000 
0.279466 0.378134 0.000000 
0.164113 0.363780 0.000000 
0.294192 0.367365 0.000000 
0.347407 0.138055 0.000000 
0.084049 0.261483 0.000000 
0.166829 0.094714 0.000000 
0.375087 0.264466 0.000000 
0.242534 0.348677 0.000000 
0.333261 0.293396 0.000000 
0.268111 0.118218 0.000000 
0.145216 0.316566 0.000000 
0.129501 0.167971 0.000000 
0.343947 0.188794 0.000000 
0.181906 0.337864 0.000000 
0.284345 0.334854 0.000000 
0.320132 0.153685 0.000000 
0.115682 0.259651 0.000000 
0.175655 0.125146 0.000000 
0.345862 0.252886 0.000000 
0.251499 0.378483 0.000000 
0.364946 0.305644 0.000000 
0.273001 0.084602 0.000000 
0.126224 0.344731 0.000000 
0.097816 0.155723 0.000000 
0.373279 0.171658 0.000000 
0.231174 0.335796 0.000000 
0.146553 0.164955 0.000000 
0.324125 0.171041 0.000000 
0.309967 0.183831 0.000000 
0.309988 0.200157 0.000000 
0.295839 0.175650 0.000000 
0.328397 0.204283 0.000000 
0.295796 0.209679 0.000000 
0.280497 0.183180 0.000000 
0.301470 0.157644 0.000000 
0.296693 0.226919 0.000000 
0.280433 0.200882 0.000000 
0.266015 0.173783 0.000000 
0.312496 0.238894 0.000000 
0.282211 0.236394 0.000000 
0.250568 0.181587 0.000000 
0.263545 0.154110 0.000000 
0.213964 0.341700 0.000000 
0.235547 0.319160 0.000000 
0.152668 0.147818 0.000000 
0.266762 0.228570 0.000000 
0.220842 0.309250 0.000000 
0.253472 0.318629 0.000000 
0.266536 0.334885 0.000000 
0.252257 0.238036 0.000000 
0.265882 0.210299 0.000000 
0.201764 0.315172 0.000000 
0.253203 0.255330 0.000000 
0.236807 0.230208 0.000000 
0.268654 0.263158 0.000000 
0.238699 0.264797 0.000000 
0.222302 0.239674 0.000000 
0.235928 0.210844 0.000000 
0.283157 0.253687 0.000000 
0.239740 0.283251 0.000000 
0.223248 0.256969 0.000000 
0.208744 0.266435 0.000000 
0.207302 0.283569 0.000000 
0.222847 0.292557 0.000000 
0.186761 0.294237 0.000000 
0.193293 0.258607 0.000000 
0.174807 0.268058 0.000000 
0.192347 0.241313 0.000000 
0.169717 0.286553 0.000000 
0.149174 0.296184 0.000000 
0.153473 0.259510 0.000000 
0.176896 0.233485 0.000000 
0.206852 0.231846 0.000000 
0.156508 0.242232 0.000000 
0.175950 0.216190 0.000000 
0.205906 0.214551 0.000000 
0.159030 0.201929 0.000000 
0.190455 0.206723 0.000000 
0.189509 0.189429 0.000000 
0.175725 0.177655 0.000000 
0.180073 0.157105 0.000000 
0.204013 0.179962 0.000000 
0.198376 0.159959 0.000000 
0.219531 0.185721 0.000000 
0.235051 0.174736 0.000000 
0.274803 0.139462 0.000000 
0.170778 0.323959 0.000000 
0.183228 0.309146 0.000000 
0.197015 0.119334 0.000000 
0.313447 0.295045 0.000000 
0.307332 0.312182 0.000000 
0.299952 0.282606 0.000000 
0.282362 0.288104 0.000000 
0.278311 0.305360 0.000000 
0.259805 0.306960 0.000000 
0.253871 0.290250 0.000000 
0.268281 0.279624 0.000000 
0.113440 0.235626 0.000000 
0.334782 0.266830 0.000000 
0.315231 0.259337 0.000000 
0.220477 0.203016 0.000000 
0.259971 0.348296 0.000000 
0.265761 0.368640 0.000000 
0.120965 0.185695 0.000000 
0.159751 0.180688 0.000000 
0.250498 0.200401 0.000000 
0.247369 0.115561 0.000000 
0.199258 0.330986 0.000000 
0.170214 0.143002 0.000000 
0.343836 0.279525 0.000000 
0.366969 0.279320 0.000000 
0.339696 0.171878 0.000000 
0.353958 0.153664 0.000000 
0.133036 0.268232 0.000000 
0.156386 0.329961 0.000000 
0.151439 0.352560 0.000000 
0.289786 0.316998 0.000000 
0.330809 0.236469 0.000000 
0.300374 0.264655 0.000000 
0.292870 0.141610 0.000000 
0.133828 0.286410 0.000000 
0.337983 0.219748 0.000000 
0.246082 0.146546 0.000000 
0.233035 0.159368 0.000000 
0.236597 0.129242 0.000000 
0.211878 0.150350 0.000000 
0.090140 0.171662 0.000000 
0.213393 0.130981 0.000000 
0.144108 0.219050 0.000000 
0.126894 0.212121 0.000000 
0.755743 0.960247 0.000000 
0.651050 0.620842 0.000000 
0.959931 0.798227 0.000000 
0.586575 0.826893 0.000000 
0.865390 0.604779 0.000000 
0.811239 0.953394 0.000000 
0.651050 0.919158 0.000000 
0.755743 0.579753 0.000000 
0.909852 0.899764 0.000000 
0.585966 0.713514 0.000000 
0.941887 0.687223 0.000000 
0.700217 0.948888 0.000000 
0.701321 0.594487 0.000000 
0.941887 0.852777 0.000000 
0.579219 0.770000 0.000000 
0.910489 0.639105 0.000000 
0.612370 0.877470 0.000000 
0.812453 0.584003 0.000000 
0.866487 0.936582 0.000000 
0.611094 0.661334 0.000000 
0.958650 0.741566 0.000000 
0.727547 0.955997 0.000000 
0.673717 0.603834 0.000000 
0.949973 0.825241 0.000000 
0.583605 0.797902 0.000000 
0.888950 0.620842 0.000000 
0.783875 0.961469 0.000000 
0.628699 0.900741 0.000000 
0.784118 0.578011 0.000000 
0.888950 0.919158 0.000000 
0.598113 0.687223 0.000000 
0.954034 0.713514 0.000000 
0.676096 0.933168 0.000000 
0.727547 0.584003 0.000000 
0.928906 0.878666 0.000000 
0.581350 0.741566 0.000000 
0.925400 0.663734 0.000000 
0.598113 0.852777 0.000000 
0.840581 0.590898 0.000000 
0.839700 0.947593 0.000000 
0.630148 0.640236 0.000000 
0.960781 0.770000 0.000000 
0.742877 0.949951 0.000000 
0.745510 0.932479 0.000000 
0.732660 0.922254 0.000000 
[...]
POINT_DATA 616 
VECTORS X_GC float 
0.215743 0.420247 0.000000 
0.111050 0.080842 0.000000 
0.419931 0.258227 0.000000 
0.046575 0.286893 0.000000 
0.325390 0.064779 0.000000 
0.271239 0.413394 0.000000 
0.111050 0.379158 0.000000 
0.215743 0.039753 0.000000 
0.369852 0.359764 0.000000 
0.045966 0.173514 0.000000 
0.401887 0.147223 0.000000 
0.160217 0.408888 0.000000 
0.161321 0.054487 0.000000 
0.401887 0.312777 0.000000 
0.039219 0.230000 0.000000 
0.370489 0.099105 0.000000 
0.072370 0.337470 0.000000 
0.272453 0.044003 0.000000 
0.326487 0.396582 0.000000 
0.071094 0.121334 0.000000 
0.418650 0.201566 0.000000 
0.187547 0.415997 0.000000 
0.133717 0.063834 0.000000 
0.409973 0.285241 0.000000 
0.043605 0.257902 0.000000 
0.348950 0.080842 0.000000 
0.243875 0.421469 0.000000 
0.088699 0.360741 0.000000 
0.244118 0.038011 0.000000 
0.348950 0.379158 0.000000 
0.058113 0.147223 0.000000 
0.414034 0.173514 0.000000 
0.136096 0.393168 0.000000 
0.187547 0.044003 0.000000 
0.388906 0.338666 0.000000 
0.041350 0.201566 0.000000 
0.385400 0.123734 0.000000 
0.058113 0.312777 0.000000 
0.300581 0.050898 0.000000 
0.299700 0.407593 0.000000 
0.090148 0.100236 0.000000 
0.420781 0.230000 0.000000 
0.202877 0.409951 0.000000 
0.205510 0.392479 0.000000 
0.192660 0.382254 0.000000 
0.220803 0.386495 0.000000 
0.178756 0.388921 0.000000 
0.176276 0.405194 0.000000 
0.164198 0.380572 0.000000 
0.152444 0.393204 0.000000 
0.194178 0.365210 0.000000 
0.224376 0.369762 0.000000 
0.232045 0.396925 0.000000 
0.248019 0.393033 0.000000 
0.229618 0.413205 0.000000 
0.255528 0.408569 0.000000 
0.180189 0.355086 0.000000 
0.210601 0.358703 0.000000 
0.239098 0.365641 0.000000 
0.072398 0.320992 0.000000 
0.087699 0.312157 0.000000 
0.087682 0.295735 0.000000 
0.101913 0.320383 0.000000 
0.073744 0.288938 0.000000 
0.059476 0.297146 0.000000 
0.070919 0.271936 0.000000 
0.053714 0.270622 0.000000 
0.101954 0.286296 0.000000 
0.117223 0.312743 0.000000 
0.100512 0.336189 0.000000 
0.112235 0.348824 0.000000 
0.086271 0.344442 0.000000 
0.104771 0.364381 0.000000 
0.101147 0.269046 0.000000 
0.117281 0.295078 0.000000 
0.129812 0.324456 0.000000 
0.128972 0.378309 0.000000 
0.136681 0.359439 0.000000 
0.353780 0.363403 0.000000 
0.341762 0.350451 0.000000 
0.325756 0.354122 0.000000 
0.346619 0.334763 0.000000 
0.322435 0.369639 0.000000 
0.333611 0.381723 0.000000 
0.307509 0.378256 0.000000 
0.310056 0.395323 0.000000 
0.313377 0.342309 0.000000 
0.335764 0.321537 0.000000 
0.362341 0.332612 0.000000 
0.372050 0.318371 0.000000 
0.373556 0.344660 0.000000 
0.388878 0.322187 0.000000 
0.296739 0.346934 0.000000 
0.318529 0.325411 0.000000 
0.344382 0.306658 0.000000 
0.050780 0.243067 0.000000 
0.081539 0.242794 0.000000 
0.106220 0.096597 0.000000 
0.118238 0.109549 0.000000 
0.134244 0.105878 0.000000 
0.113381 0.125237 0.000000 
0.137769 0.090777 0.000000 
0.126593 0.078693 0.000000 
0.153716 0.084239 0.000000 
0.151169 0.067173 0.000000 
0.146623 0.117691 0.000000 
0.124236 0.138463 0.000000 
0.097659 0.127388 0.000000 
0.087950 0.141629 0.000000 
0.086444 0.115340 0.000000 
0.071122 0.137813 0.000000 
0.163261 0.113066 0.000000 
0.141471 0.134589 0.000000 
0.118380 0.154709 0.000000 
0.332515 0.079638 0.000000 
0.322562 0.094237 0.000000 
0.329702 0.109025 0.000000 
0.306187 0.092993 0.000000 
0.345123 0.109051 0.000000 
0.354417 0.095466 0.000000 
0.354616 0.122889 0.000000 
0.370687 0.116608 0.000000 
0.320940 0.123722 0.000000 
0.295707 0.106519 0.000000 
0.300590 0.078144 0.000000 
0.284547 0.071847 0.000000 
0.309841 0.064529 0.000000 
0.284522 0.054592 0.000000 
0.329152 0.138914 0.000000 
0.303320 0.122460 0.000000 
0.278566 0.104425 0.000000 
0.411474 0.216400 0.000000 
0.393855 0.217721 0.000000 
0.386745 0.232524 0.000000 
0.384618 0.204142 0.000000 
0.396340 0.244596 0.000000 
0.412756 0.243393 0.000000 
0.391439 0.260646 0.000000 
0.406370 0.269295 0.000000 
0.369791 0.234836 0.000000 
0.367509 0.204383 0.000000 
0.392738 0.190509 0.000000 
0.387658 0.174040 0.000000 
0.409150 0.189253 0.000000 
0.401133 0.163262 0.000000 
0.363034 0.250728 0.000000 
0.359792 0.220273 0.000000 
0.361250 0.188368 0.000000 
0.385372 0.140213 0.000000 
0.370239 0.153869 0.000000 
0.177380 0.058181 0.000000 
0.185905 0.089262 0.000000 
0.256984 0.048307 0.000000 
0.249475 0.063843 0.000000 
0.048526 0.216400 0.000000 
0.064705 0.218843 0.000000 
0.073942 0.205264 0.000000 
0.066960 0.235545 0.000000 
0.067262 0.190509 0.000000 
0.050850 0.189253 0.000000 
0.072342 0.174040 0.000000 
0.058867 0.163262 0.000000 
0.091051 0.205505 0.000000 
0.102169 0.188372 0.000000 
0.096393 0.226332 0.000000 
0.202877 0.050049 0.000000 
0.205510 0.067521 0.000000 
0.220803 0.073505 0.000000 
0.189728 0.073435 0.000000 
0.232288 0.062555 0.000000 
0.229861 0.046274 0.000000 
0.255753 0.080665 0.000000 
0.222813 0.091958 0.000000 
0.240576 0.097831 0.000000 
0.203696 0.101801 0.000000 
0.397072 0.295493 0.000000 
0.376959 0.292176 0.000000 
0.282427 0.401295 0.000000 
0.279466 0.378134 0.000000 
0.164113 0.363780 0.000000 
0.294192 0.367365 0.000000 
0.347407 0.138055 0.000000 
0.084049 0.261483 0.000000 
0.166829 0.094714 0.000000 
0.375087 0.264466 0.000000 
0.242534 0.348677 0.000000 
0.333261 0.293396 0.000000 
0.268111 0.118218 0.000000 
0.145216 0.316566 0.000000 
0.129501 0.167971 0.000000 
0.343947 0.188794 0.000000 
0.181906 0.337864 0.000000 
0.284345 0.334854 0.000000 
0.320132 0.153685 0.000000 
0.115682 0.259651 0.000000 
0.175655 0.125146 0.000000 
0.345862 0.252886 0.000000 
0.251499 0.378483 0.000000 
0.364946 0.305644 0.000000 
0.273001 0.084602 0.000000 
0.126224 0.344731 0.000000 
0.097816 0.155723 0.000000 
0.373279 0.171658 0.000000 
0.231174 0.335796 0.000000 
0.146553 0.164955 0.000000 
0.324125 0.171041 0.000000 
0.309967 0.183831 0.000000 
0.309988 0.200157 0.000000 
0.295839 0.175650 0.000000 
0.328397 0.204283 0.000000 
0.295796 0.209679 0.000000 
0.280497 0.183180 0.000000 
0.301470 0.157644 0.000000 
0.296693 0.226919 0.000000 
0.280433 0.200882 0.000000 
0.266015 0.173783 0.000000 
0.312496 0.238894 0.000000 
0.282211 0.236394 0.000000 
0.250568 0.181587 0.000000 
0.263545 0.154110 0.000000 
0.213964 0.341700 0.000000 
0.235547 0.319160 0.000000 
0.152668 0.147818 0.000000 
0.266762 0.228570 0.000000 
0.220842 0.309250 0.000000 
0.253472 0.318629 0.000000 
0.266536 0.334885 0.000000 
0.252257 0.238036 0.000000 
0.265882 0.210299 0.000000 
0.201764 0.315172 0.000000 
0.253203 0.255330 0.000000 
0.236807 0.230208 0.000000 
0.268654 0.263158 0.000000 
0.238699 0.264797 0.000000 
0.222302 0.239674 0.000000 
0.235928 0.210844 0.000000 
0.283157 0.253687 0.000000 
0.239740 0.283251 0.000000 
0.223248 0.256969 0.000000 
0.208744 0.266435 0.000000 
0.207302 0.283569 0.000000 
0.222847 0.292557 0.000000 
0.186761 0.294237 0.000000 
0.193293 0.258607 0.000000 
0.174807 0.268058 0.000000 
0.192347 0.241313 0.000000 
0.169717 0.286553 0.000000 
0.149174 0.296184 0.000000 
0.153473 0.259510 0.000000 
0.176896 0.233485 0.000000 
0.206852 0.231846 0.000000 
0.156508 0.242232 0.000000 
0.175950 0.216190 0.000000 
0.205906 0.214551 0.000000 
0.159030 0.201929 0.000000 
0.190455 0.206723 0.000000 
0.189509 0.189429 0.000000 
0.175725 0.177655 0.000000 
0.180073 0.157105 0.000000 
0.204013 0.179962 0.000000 
0.198376 0.159959 0.000000 
0.219531 0.185721 0.000000 
0.235051 0.174736 0.000000 
0.274803 0.139462 0.000000 
0.170778 0.323959 0.000000 
0.183228 0.309146 0.000000 
0.197015 0.119334 0.000000 
0.313447 0.295045 0.000000 
0.307332 0.312182 0.000000 
0.299952 0.282606 0.000000 
0.282362 0.288104 0.000000 
0.278311 0.305360 0.000000 
0.259805 0.306960 0.000000 
0.253871 0.290250 0.000000 
0.268281 0.279624 0.000000 
0.113440 0.235626 0.000000 
0.334782 0.266830 0.000000 
0.315231 0.259337 0.000000 
0.220477 0.203016 0.000000 
0.259971 0.348296 0.000000 
0.265761 0.368640 0.000000 
0.120965 0.185695 0.000000 
0.159751 0.180688 0.000000 
0.250498 0.200401 0.000000 
0.247369 0.115561 0.000000 
0.199258 0.330986 0.000000 
0.170214 0.143002 0.000000 
0.343836 0.279525 0.000000 
0.366969 0.279320 0.000000 
0.339696 0.171878 0.000000 
0.353958 0.153664 0.000000 
0.133036 0.268232 0.000000 
0.156386 0.329961 0.000000 
0.151439 0.352560 0.000000 
0.289786 0.316998 0.000000 
0.330809 0.236469 0.000000 
0.300374 0.264655 0.000000 
0.292870 0.141610 0.000000 
0.133828 0.286410 0.000000 
0.337983 0.219748 0.000000 
0.246082 0.146546 0.000000 
0.233035 0.159368 0.000000 
0.236597 0.129242 0.000000 
0.211878 0.150350 0.000000 
0.090140 0.171662 0.000000 
0.213393 0.130981 0.000000 
0.144108 0.219050 0.000000 
0.126894 0.212121 0.000000 
0.755743 0.960247 0.000000 
0.651050 0.620842 0.000000 
0.959931 0.798227 0.000000 
0.586575 0.826893 0.000000 
0.865390 0.604779 0.000000 
0.811239 0.953394 0.000000 
0.651050 0.919158 0.000000 
0.755743 0.579753 0.000000 
0.909852 0.899764 0.000000 
0.585966 0.713514 0.000000 
0.941887 0.687223 0.000000 
0.700217 0.948888 0.000000 
0.701321 0.594487 0.000000 
0.941887 0.852777 0.000000 
0.579219 0.770000 0.000000 
0.910489 0.639105 0.000000 
0.612370 0.877470 0.000000 
0.812453 0.584003 0.000000 
0.866487 0.936582 0.000000 
0.611094 0.661334 0.000000 
0.958650 0.741566 0.000000 
0.727547 0.955997 0.000000 
0.673717 0.603834 0.000000 
0.949973 0.825241 0.000000 
0.583605 0.797902 0.000000 
0.888950 0.620842 0.000000 
0.783875 0.961469 0.000000 
0.628699 0.900741 0.000000 
0.784118 0.578011 0.000000 
0.888950 0.919158 0.000000 
0.598113 0.687223 0.000000 
0.954034 0.713514 0.000000 
0.676096 0.933168 0.000000 
0.727547 0.584003 0.000000 
0.928906 0.878666 0.000000 
0.581350 0.741566 0.000000 
0.925400 0.663734 0.000000 
0.598113 0.852777 0.000000 
0.840581 0.590898 0.000000 
0.839700 0.947593 0.000000 
0.630148 0.640236 0.000000 
0.960781 0.770000 0.000000 
0.742877 0.949951 0.000000 
0.745510 0.932479 0.000000 
0.732660 0.922254 0.000000 
0.760803 0.926495 0.000000 
0.718756 0.928921 0.000000 
0.716276 0.945194 0.000000 
0.704198 0.920572 0.000000 
0.692444 0.933204 0.000000 
0.734178 0.905210 0.000000 
0.764376 0.909762 0.000000 
0.772045 0.936925 0.000000 
0.788019 0.933033 0.000000 
0.769618 0.953205 0.000000 
0.795528 0.948569 0.000000 
0.720189 0.895086 0.000000 
0.750601 0.898703 0.000000 
0.779098 0.905641 0.000000 
0.612398 0.860992 0.000000 
0.627699 0.852157 0.000000 
0.627682 0.835735 0.000000 
0.641913 0.860383 0.000000 
0.613744 0.828938 0.000000 
0.599476 0.837146 0.000000 
0.610919 0.811936 0.000000 
0.593714 0.810622 0.000000 
0.641954 0.826296 0.000000 
0.657223 0.852743 0.000000 
0.640512 0.876189 0.000000 
0.652235 0.888824 0.000000 
0.626271 0.884442 0.000000 
0.644771 0.904381 0.000000 
0.641147 0.809046 0.000000 
0.657281 0.835078 0.000000 
0.669812 0.864456 0.000000 
0.668972 0.918309 0.000000 
0.676681 0.899439 0.000000 
0.893780 0.903403 0.000000 
0.881762 0.890451 0.000000 
0.865756 0.894122 0.000000 
0.886619 0.874763 0.000000 
0.862435 0.909639 0.000000 
0.873611 0.921723 0.000000 
0.847509 0.918256 0.000000 
0.850056 0.935323 0.000000 
0.853377 0.882309 0.000000 
0.875764 0.861537 0.000000 
0.902341 0.872612 0.000000 
0.912050 0.858371 0.000000 
0.913556 0.884660 0.000000 
0.928878 0.862187 0.000000 
0.836739 0.886934 0.000000 
0.858529 0.865411 0.000000 
0.884382 0.846658 0.000000 
0.590780 0.783067 0.000000 
0.621539 0.782794 0.000000 
0.646220 0.636597 0.000000 
0.658238 0.649549 0.000000 
0.674244 0.645878 0.000000 
0.653381 0.665237 0.000000 
0.677769 0.630777 0.000000 
0.666593 0.618693 0.000000 
0.693716 0.624239 0.000000 
0.691169 0.607173 0.000000 
0.686623 0.657691 0.000000 
0.664236 0.678463 0.000000 
0.637659 0.667388 0.000000 
0.627950 0.681629 0.000000 
0.626444 0.655340 0.000000 
0.611122 0.677813 0.000000 
0.703261 0.653066 0.000000 
0.681471 0.674589 0.000000 
0.658380 0.694709 0.000000 
0.872515 0.619638 0.000000 
0.862562 0.634237 0.000000 
0.869702 0.649025 0.000000 
0.846187 0.632993 0.000000 
0.885123 0.649051 0.000000 
0.894417 0.635466 0.000000 
0.894616 0.662889 0.000000 
0.910687 0.656608 0.000000 
0.860940 0.663722 0.000000 
0.835707 0.646519 0.000000 
0.840590 0.618144 0.000000 
0.824547 0.611847 0.000000 
0.849841 0.604529 0.000000 
0.824522 0.594592 0.000000 
0.869152 0.678914 0.000000 
0.843320 0.662460 0.000000 
0.818566 0.644425 0.000000 
0.951474 0.756400 0.000000 
0.933855 0.757721 0.000000 
0.926745 0.772524 0.000000 
0.924618 0.744142 0.000000 
0.936340 0.784596 0.000000 
0.952756 0.783393 0.000000 
0.931439 0.800646 0.000000 
0.946370 0.809295 0.000000 
0.909791 0.774836 0.000000 
0.907509 0.744383 0.000000 
0.932738 0.730509 0.000000 
0.927658 0.714040 0.000000 
0.949150 0.729253 0.000000 
0.941133 0.703262 0.000000 
0.903034 0.790728 0.000000 
0.899792 0.760273 0.000000 
0.901250 0.728368 0.000000 
0.925372 0.680213 0.000000 
0.910239 0.693869 0.000000 
0.717380 0.598181 0.000000 
0.725905 0.629262 0.000000 
0.796984 0.588307 0.000000 
0.789475 0.603843 0.000000 
0.588526 0.756400 0.000000 
0.604705 0.758843 0.000000 
0.613942 0.745264 0.000000 
0.606960 0.775545 0.000000 
0.607262 0.730509 0.000000 
0.590850 0.729253 0.000000 
0.612342 0.714040 0.000000 
0.598867 0.703262 0.000000 
0.631051 0.745505 0.000000 
0.642169 0.728372 0.000000 
0.636393 0.766332 0.000000 
0.742877 0.590049 0.000000 
0.745510 0.607521 0.000000 
0.760803 0.613505 0.000000 
0.729728 0.613435 0.000000 
0.772288 0.602555 0.000000 
0.769861 0.586274 0.000000 
0.795753 0.620665 0.000000 
0.762813 0.631958 0.000000 
0.780576 0.637831 0.000000 
0.743696 0.641801 0.000000 
0.937072 0.835493 0.000000 
0.916959 0.832176 0.000000 
0.822427 0.941295 0.000000 
0.819466 0.918134 0.000000 
0.704113 0.903780 0.000000 
0.834192 0.907365 0.000000 
0.887407 0.678055 0.000000 
0.624049 0.801483 0.000000 
0.706829 0.634714 0.000000 
0.915087 0.804466 0.000000 
0.782534 0.888677 0.000000 
0.873261 0.833396 0.000000 
0.808111 0.658218 0.000000 
0.685216 0.856566 0.000000 
0.669501 0.707971 0.000000 
0.883947 0.728794 0.000000 
0.721906 0.877864 0.000000 
0.824345 0.874854 0.000000 
0.860132 0.693685 0.000000 
0.655682 0.799651 0.000000 
0.715655 0.665146 0.000000 
0.885862 0.792886 0.000000 
0.791499 0.918483 0.000000 
0.904946 0.845644 0.000000 
0.813001 0.624602 0.000000 
0.666224 0.884731 0.000000 
0.637816 0.695723 0.000000 
0.913279 0.711658 0.000000 
0.771174 0.875796 0.000000 
0.686553 0.704955 0.000000 
0.864125 0.711041 0.000000 
0.849967 0.723831 0.000000 
0.849988 0.740157 0.000000 
0.835839 0.715650 0.000000 
0.868397 0.744283 0.000000 
0.835796 0.749679 0.000000 
0.820497 0.723180 0.000000 
0.841470 0.697644 0.000000 
0.836693 0.766919 0.000000 
0.820433 0.740882 0.000000 
0.806015 0.713783 0.000000 
0.852496 0.778894 0.000000 
0.822211 0.776394 0.000000 
0.790568 0.721587 0.000000 
0.803545 0.694110 0.000000 
0.753964 0.881700 0.000000 
0.775547 0.859160 0.000000 
0.692668 0.687818 0.000000 
0.806762 0.768570 0.000000 
0.760842 0.849250 0.000000 
0.793472 0.858629 0.000000 
0.806536 0.874885 0.000000 
0.792257 0.778036 0.000000 
0.805882 0.750299 0.000000 
0.741764 0.855172 0.000000 
0.793203 0.795330 0.000000 
0.776807 0.770208 0.000000 
0.808654 0.803158 0.000000 
0.778699 0.804797 0.000000 
0.762302 0.779674 0.000000 
0.775928 0.750844 0.000000 
0.823157 0.793687 0.000000 
0.779740 0.823251 0.000000 
0.763248 0.796969 0.000000 
0.748744 0.806435 0.000000 
0.747302 0.823569 0.000000 
0.762847 0.832557 0.000000 
0.726761 0.834237 0.000000 
0.733293 0.798607 0.000000 
0.714807 0.808058 0.000000 
0.732347 0.781313 0.000000 
0.709717 0.826553 0.000000 
0.689174 0.836184 0.000000 
0.693473 0.799510 0.000000 
0.716896 0.773485 0.000000 
0.746852 0.771846 0.000000 
0.696508 0.782232 0.000000 
0.715950 0.756190 0.000000 
0.745906 0.754551 0.000000 
0.699030 0.741929 0.000000 
0.730455 0.746723 0.000000 
0.729509 0.729429 0.000000 
0.715725 0.717655 0.000000 
0.720073 0.697105 0.000000 
0.744013 0.719962 0.000000 
0.738376 0.699959 0.000000 
0.759531 0.725721 0.000000 
0.775051 0.714736 0.000000 
0.814803 0.679462 0.000000 
0.710778 0.863959 0.000000 
0.723228 0.849146 0.000000 
0.737015 0.659334 0.000000 
0.853447 0.835045 0.000000 
0.847332 0.852182 0.000000 
0.839952 0.822606 0.000000 
0.822362 0.828104 0.000000 
0.818311 0.845360 0.000000 
0.799805 0.846960 0.000000 
0.793871 0.830250 0.000000 
0.808281 0.819624 0.000000 
0.653440 0.775626 0.000000 
0.874782 0.806830 0.000000 
0.855231 0.799337 0.000000 
0.760477 0.743016 0.000000 
0.799971 0.888296 0.000000 
0.805761 0.908640 0.000000 
0.660965 0.725695 0.000000 
0.699751 0.720688 0.000000 
0.790498 0.740401 0.000000 
0.787369 0.655561 0.000000 
0.739258 0.870986 0.000000 
0.710214 0.683002 0.000000 
0.883836 0.819525 0.000000 
0.906969 0.819320 0.000000 
0.879696 0.711878 0.000000 
0.893958 0.693664 0.000000 
0.673036 0.808232 0.000000 
0.696386 0.869961 0.000000 
0.691439 0.892560 0.000000 
0.829786 0.856998 0.000000 
0.870809 0.776469 0.000000 
0.840374 0.804655 0.000000 
0.832870 0.681610 0.000000 
0.673828 0.826410 0.000000 
0.877983 0.759748 0.000000 
0.786082 0.686546 0.000000 
0.773035 0.699368 0.000000 
0.776597 0.669242 0.000000 
0.751878 0.690350 0.000000 
0.630140 0.711662 0.000000 
0.753393 0.670981 0.000000 
0.684108 0.759050 0.000000 
0.666894 0.752121 0.000000 
VECTORS X_EC float 
0.595059 -0.685141 0.000000 
-0.616836 -0.778994 0.000000 
-0.164545 -0.601376 0.000000 
-0.737864 -0.068498 0.000000 
-0.295585 -0.492195 0.000000 
0.732125 0.424779 0.000000 
-0.583164 -0.778994 0.000000 
0.204941 -0.685141 0.000000 
-0.195274 0.397040 0.000000 
-0.470289 -0.080687 0.000000 
0.055531 -0.962254 0.000000 
0.822238 0.204336 0.000000 
-0.089736 0.226417 0.000000 
0.744469 -0.962254 0.000000 
0.400000 -0.215610 0.000000 
-0.982104 0.409782 0.000000 
0.250590 0.447395 0.000000 
0.119945 0.449053 0.000000 
-0.931640 -0.470264 0.000000 
0.573314 0.421885 0.000000 
0.968687 -0.627007 0.000000 
0.680055 0.750947 0.000000 
-0.276677 -0.325653 0.000000 
-0.704818 -0.800545 0.000000 
-0.158037 -0.127905 0.000000 
-0.616836 -0.021006 0.000000 
0.570625 -0.122498 0.000000 
-0.214825 0.773979 0.000000 
0.239789 -0.117643 0.000000 
-0.583164 -0.021006 0.000000 
0.055531 0.162254 0.000000 
-0.470289 -0.719313 0.000000 
-0.863364 -0.278072 0.000000 
0.119945 0.750947 0.000000 
0.226686 0.778115 0.000000 
0.968687 -0.172993 0.000000 
0.525324 0.708005 0.000000 
0.744469 0.162254 0.000000 
-0.017959 -0.988373 0.000000 
0.848149 0.993999 0.000000 
0.995274 0.802960 0.000000 
0.400000 -0.584390 0.000000 
0.800986 -0.942464 0.000000 
-0.849589 -0.889797 0.000000 
-0.645071 0.853202 0.000000 
-0.729909 -0.583931 0.000000 
-0.778428 0.575113 0.000000 
0.896124 0.525524 0.000000 
-0.611441 0.283969 0.000000 
-0.864085 0.048876 0.000000 
-0.304206 0.883569 0.000000 
-0.395238 -0.512477 0.000000 
-0.938494 -0.359096 0.000000 
-0.860665 -0.039629 0.000000 
0.735899 -0.407638 0.000000 
0.828621 0.110552 0.000000 
-0.101726 0.603770 0.000000 
-0.174053 -0.787976 0.000000 
-0.312814 -0.218034 0.000000 
0.580167 0.447957 0.000000 
0.756853 0.753986 0.000000 
-0.914701 0.753647 0.000000 
0.592336 -0.961741 0.000000 
-0.778768 0.474889 0.000000 
-0.942912 0.189525 0.000000 
-0.438727 0.418373 0.000000 
-0.412444 0.074271 0.000000 
-0.725917 -0.960921 0.000000 
0.745136 -0.655533 0.000000 
0.276214 -0.989752 0.000000 
0.023528 -0.755293 0.000000 
0.111154 0.725413 0.000000 
-0.287615 -0.904583 0.000000 
-0.380917 -0.977068 0.000000 
-0.901564 -0.654375 0.000000 
0.510875 -0.403768 0.000000 
-0.566182 -0.420564 0.000000 
-0.188772 -0.266377 0.000000 
-0.268064 0.075602 0.000000 
-0.009024 -0.164752 0.000000 
-0.082440 -0.484888 0.000000 
0.304730 -0.067617 0.000000 
-0.392775 -0.551301 0.000000 
-0.634458 -0.327772 0.000000 
-0.565127 -0.849824 0.000000 
-0.906451 -0.798877 0.000000 
0.153827 -0.732454 0.000000 
0.569260 -0.284723 0.000000 
0.347766 0.246812 0.000000 
0.632574 0.440991 0.000000 
0.106801 0.471116 0.000000 
0.556263 0.777553 0.000000 