# vtk DataFile Version 3.0 
vtk output 
ASCII 
DATASET UNSTRUCTURED_GRID 
POINTS 616 float 
0.283104 0.487840 0.000000 
0.178625 0.148264 0.000000 
0.487387 0.326116 0.000000 
0.113987 0.354406 0.000000 
0.393066 0.132476 0.000000 
0.338657 0.481006 0.000000 
0.178371 0.446744 0.000000 
0.283417 0.107273 0.000000 
0.435901 0.426138 0.000000 
0.113430 0.240955 0.000000 
0.469496 0.214970 0.000000 
0.227526 0.476496 0.000000 
0.228953 0.121941 0.000000 
0.469172 0.380586 0.000000 
0.106641 0.297487 0.000000 
0.438140 0.166826 0.000000 
0.139760 0.405023 0.000000 
0.340137 0.111614 0.000000 
0.393801 0.464075 0.000000 
0.138610 0.188750 0.000000 
0.486189 0.269381 0.000000 
0.254878 0.483599 0.000000 
0.201328 0.131262 0.000000 
0.477367 0.353113 0.000000 
0.111022 0.325402 0.000000 
0.416616 0.148558 0.000000 
0.311261 0.489060 0.000000 
0.156045 0.428306 0.000000 
0.311805 0.105574 0.000000 
0.415535 0.445947 0.000000 
0.125600 0.214649 0.000000 
0.481610 0.241294 0.000000 
0.203409 0.460777 0.000000 
0.255205 0.111487 0.000000 
0.455936 0.406175 0.000000 
0.108794 0.269029 0.000000 
0.453029 0.191464 0.000000 
0.125517 0.380308 0.000000 
0.368265 0.118556 0.000000 
0.367122 0.475198 0.000000 
0.157690 0.167654 0.000000 
0.488282 0.297851 0.000000 
0.270217 0.477548 0.000000 
0.272839 0.460078 0.000000 
0.259982 0.449855 0.000000 
0.288128 0.454092 0.000000 
0.246078 0.456525 0.000000 
0.243597 0.472798 0.000000 
0.231523 0.448178 0.000000 
0.219760 0.460813 0.000000 
0.261492 0.432812 0.000000 
0.291678 0.437359 0.000000 
0.299384 0.464516 0.000000 
0.315340 0.460609 0.000000 
0.296983 0.480794 0.000000 
0.322897 0.476156 0.000000 
0.247510 0.422690 0.000000 
0.277899 0.426304 0.000000 
0.306378 0.433229 0.000000 
0.139797 0.388538 0.000000 
0.155093 0.379711 0.000000 
0.155075 0.363278 0.000000 
0.169303 0.387954 0.000000 
0.141143 0.356468 0.000000 
0.126881 0.364671 0.000000 
0.138319 0.339456 0.000000 
0.121124 0.338132 0.000000 
0.169339 0.353841 0.000000 
0.184607 0.380320 0.000000 
0.167899 0.403767 0.000000 
0.179602 0.416412 0.000000 
0.153646 0.412008 0.000000 
0.172113 0.431961 0.000000 
0.168530 0.336578 0.000000 
0.184661 0.362640 0.000000 
0.197194 0.392054 0.000000 
0.196301 0.445914 0.000000 
0.204034 0.427046 0.000000 
0.420204 0.430095 0.000000 
0.408385 0.417364 0.000000 
0.392530 0.421180 0.000000 
0.413247 0.401725 0.000000 
0.389418 0.436871 0.000000 
0.400723 0.449028 0.000000 
0.374637 0.445626 0.000000 
0.377360 0.462828 0.000000 
0.380126 0.409370 0.000000 
0.402469 0.388527 0.000000 
0.429149 0.399813 0.000000 
0.439039 0.385775 0.000000 
0.440261 0.411767 0.000000 
0.456011 0.389816 0.000000 
0.363628 0.414138 0.000000 
0.385301 0.392476 0.000000 
0.411232 0.373787 0.000000 
0.118194 0.310565 0.000000 
0.148932 0.310301 0.000000 
0.173774 0.164024 0.000000 
0.185782 0.176992 0.000000 
0.201799 0.173328 0.000000 
0.180905 0.192685 0.000000 
0.205344 0.158221 0.000000 
0.194180 0.146125 0.000000 
0.221304 0.151693 0.000000 
0.218780 0.134619 0.000000 
0.214162 0.185152 0.000000 
0.191741 0.205923 0.000000 
0.165179 0.194825 0.000000 
0.155446 0.209068 0.000000 
0.153970 0.182763 0.000000 
0.138620 0.205239 0.000000 
0.230810 0.180535 0.000000 
0.208984 0.202053 0.000000 
0.185859 0.222174 0.000000 
0.400179 0.147350 0.000000 
0.390207 0.161928 0.000000 
0.397338 0.176730 0.000000 
0.373825 0.160652 0.000000 
0.412763 0.176766 0.000000 
0.422070 0.163183 0.000000 
0.422243 0.190609 0.000000 
0.438322 0.184332 0.000000 
0.388554 0.191406 0.000000 
0.363324 0.174156 0.000000 
0.368242 0.145796 0.000000 
0.352199 0.139472 0.000000 
0.377512 0.132201 0.000000 
0.352196 0.122221 0.000000 
0.396752 0.206606 0.000000 
0.370923 0.190109 0.000000 
0.346174 0.172029 0.000000 
0.478988 0.284208 0.000000 
0.461356 0.285473 0.000000 
0.454218 0.300251 0.000000 
0.452134 0.271867 0.000000 
0.463780 0.312352 0.000000 
0.480215 0.311218 0.000000 
0.458819 0.328366 0.000000 
0.473773 0.337116 0.000000 
0.437246 0.302499 0.000000 
0.435014 0.272061 0.000000 
0.460279 0.258255 0.000000 
0.455221 0.241774 0.000000 
0.476701 0.257035 0.000000 
0.468718 0.231015 0.000000 
0.430406 0.318318 0.000000 
0.427266 0.287915 0.000000 
0.428777 0.256043 0.000000 
0.452986 0.207947 0.000000 
0.437827 0.221586 0.000000 
0.245013 0.125654 0.000000 
0.253494 0.156745 0.000000 
0.324659 0.115890 0.000000 
0.317125 0.131407 0.000000 
0.115953 0.283878 0.000000 
0.132122 0.286328 0.000000 
0.141368 0.272742 0.000000 
0.134364 0.303044 0.000000 
0.134706 0.257973 0.000000 
0.118300 0.256709 0.000000 
0.139802 0.241494 0.000000 
0.126339 0.230701 0.000000 
0.158469 0.272989 0.000000 
0.169604 0.255849 0.000000 
0.163783 0.293831 0.000000 
0.270530 0.117552 0.000000 
0.273138 0.135024 0.000000 
0.288427 0.141022 0.000000 
0.257342 0.140922 0.000000 
0.299934 0.130089 0.000000 
0.297531 0.113810 0.000000 
0.323382 0.148234 0.000000 
0.290409 0.159472 0.000000 
0.308170 0.165365 0.000000 
0.271272 0.169298 0.000000 
0.464364 0.363243 0.000000 
0.444133 0.359720 0.000000 
0.349783 0.468861 0.000000 
0.346667 0.445596 0.000000 
0.231445 0.431386 0.000000 
0.361262 0.434709 0.000000 
0.415015 0.205768 0.000000 
0.151442 0.329002 0.000000 
0.234406 0.162182 0.000000 
0.442403 0.332074 0.000000 
0.309769 0.416252 0.000000 
0.400215 0.360573 0.000000 
0.335693 0.185797 0.000000 
0.212582 0.384154 0.000000 
0.196959 0.235450 0.000000 
0.411464 0.256429 0.000000 
0.249223 0.405464 0.000000 
0.351282 0.402119 0.000000 
0.387693 0.221335 0.000000 
0.183056 0.327182 0.000000 
0.243189 0.192625 0.000000 
0.413188 0.320379 0.000000 
0.318775 0.446039 0.000000 
0.431954 0.373006 0.000000 
0.340632 0.152201 0.000000 
0.193596 0.412332 0.000000 
0.165294 0.223177 0.000000 
0.440839 0.239369 0.000000 
0.298422 0.403388 0.000000 
0.214013 0.232430 0.000000 
0.391654 0.238668 0.000000 
0.377451 0.251410 0.000000 
0.377435 0.267709 0.000000 
0.363324 0.243218 0.000000 
0.395862 0.271855 0.000000 
0.363199 0.277192 0.000000 
0.347945 0.250709 0.000000 
0.369005 0.225252 0.000000 
0.364057 0.294406 0.000000 
0.347836 0.268385 0.000000 
0.333470 0.241301 0.000000 
0.379857 0.306381 0.000000 
0.349526 0.303846 0.000000 
0.317983 0.249067 0.000000 
0.331052 0.221651 0.000000 
0.281240 0.409298 0.000000 
0.302779 0.386714 0.000000 
0.220156 0.215288 0.000000 
0.334070 0.296011 0.000000 
0.288098 0.376794 0.000000 
0.320630 0.386106 0.000000 
0.333593 0.402281 0.000000 
0.319515 0.305445 0.000000 
0.333237 0.277764 0.000000 
0.269047 0.382735 0.000000 
0.320435 0.322746 0.000000 
0.304067 0.297611 0.000000 
0.335875 0.330572 0.000000 
0.305930 0.332237 0.000000 
0.289561 0.307090 0.000000 
0.303246 0.278271 0.000000 
0.350413 0.321109 0.000000 
0.306966 0.350726 0.000000 
0.290500 0.324410 0.000000 
0.276015 0.333910 0.000000 
0.274576 0.351074 0.000000 
0.290100 0.360068 0.000000 
0.254064 0.361775 0.000000 
0.260584 0.326085 0.000000 
0.242123 0.335568 0.000000 
0.259640 0.308767 0.000000 
0.237043 0.354093 0.000000 
0.216531 0.363749 0.000000 
0.220816 0.327033 0.000000 
0.244213 0.300953 0.000000 
0.274138 0.299279 0.000000 
0.223844 0.309732 0.000000 
0.243301 0.283661 0.000000 
0.273237 0.281998 0.000000 
0.226421 0.269411 0.000000 
0.257816 0.274185 0.000000 
0.256909 0.256897 0.000000 
0.243155 0.245129 0.000000 
0.247545 0.224582 0.000000 
0.271430 0.247429 0.000000 
0.265842 0.227437 0.000000 
0.286928 0.253180 0.000000 
0.302473 0.242203 0.000000 
0.342356 0.207045 0.000000 
0.238109 0.391547 0.000000 
0.250538 0.376708 0.000000 
0.264563 0.186824 0.000000 
0.380449 0.362283 0.000000 
0.374249 0.379372 0.000000 
0.367063 0.349934 0.000000 
0.349486 0.355466 0.000000 
0.345385 0.372710 0.000000 
0.326951 0.374396 0.000000 
0.321062 0.357699 0.000000 
0.335461 0.347031 0.000000 
0.180811 0.303136 0.000000 
0.401964 0.334184 0.000000 
0.382472 0.326740 0.000000 
0.287828 0.270460 0.000000 
0.327106 0.415764 0.000000 
0.332954 0.436123 0.000000 
0.188399 0.253179 0.000000 
0.227180 0.248166 0.000000 
0.317859 0.267856 0.000000 
0.314940 0.183101 0.000000 
0.266549 0.398577 0.000000 
0.237714 0.210477 0.000000 
0.410923 0.346830 0.000000 
0.434163 0.346813 0.000000 
0.407239 0.239532 0.000000 
0.421541 0.221364 0.000000 
0.200402 0.335777 0.000000 
0.223740 0.397561 0.000000 
0.218787 0.420165 0.000000 
0.356762 0.384268 0.000000 
0.398214 0.303988 0.000000 
0.367583 0.332044 0.000000 
0.360434 0.209226 0.000000 
0.201198 0.353972 0.000000 
0.405436 0.287318 0.000000 
0.313594 0.214065 0.000000 
0.300501 0.226850 0.000000 
0.304141 0.196756 0.000000 
0.279367 0.217837 0.000000 
0.157599 0.239123 0.000000 
0.280927 0.198478 0.000000 
0.211479 0.286549 0.000000 
0.194286 0.279622 0.000000 
0.688055 0.892681 0.000000 
0.584453 0.554040 0.000000 
0.892470 0.730779 0.000000 
0.519009 0.759099 0.000000 
0.798071 0.537181 0.000000 
0.743579 0.885913 0.000000 
0.583399 0.851430 0.000000 
0.688348 0.512170 0.000000 
0.842308 0.832378 0.000000 
0.518575 0.645622 0.000000 
0.874489 0.619685 0.000000 
0.632537 0.881225 0.000000 
0.633914 0.526878 0.000000 
0.874390 0.785368 0.000000 
0.511764 0.702157 0.000000 
0.843134 0.571536 0.000000 
0.544741 0.809719 0.000000 
0.745108 0.516415 0.000000 
0.798869 0.869169 0.000000 
0.544055 0.593842 0.000000 
0.891221 0.674071 0.000000 
0.659862 0.888382 0.000000 
0.606398 0.536311 0.000000 
0.882496 0.757813 0.000000 
0.516094 0.730087 0.000000 
0.821617 0.553262 0.000000 
0.716193 0.893949 0.000000 
0.561062 0.833002 0.000000 
0.716745 0.510426 0.000000 
0.821373 0.851764 0.000000 
0.530834 0.619432 0.000000 
0.886621 0.646000 0.000000 
0.608432 0.865468 0.000000 
0.660107 0.516373 0.000000 
0.861385 0.811275 0.000000 
0.513935 0.673700 0.000000 
0.858015 0.596168 0.000000 
0.530502 0.785008 0.000000 
0.773260 0.523303 0.000000 
0.772058 0.880150 0.000000 
0.564088 0.573866 0.000000 
0.893339 0.702526 0.000000 
0.675204 0.882365 0.000000 
0.677866 0.864905 0.000000 
0.665029 0.854660 0.000000 
[...]
POINT_DATA 616 
VECTORS X_GC float 
0.283104 0.487840 0.000000 
0.178625 0.148264 0.000000 
0.487387 0.326116 0.000000 
0.113987 0.354406 0.000000 
0.393066 0.132476 0.000000 
0.338657 0.481006 0.000000 
0.178371 0.446744 0.000000 
0.283417 0.107273 0.000000 
0.435901 0.426138 0.000000 
0.113430 0.240955 0.000000 
0.469496 0.214970 0.000000 
0.227526 0.476496 0.000000 
0.228953 0.121941 0.000000 
0.469172 0.380586 0.000000 
0.106641 0.297487 0.000000 
0.438140 0.166826 0.000000 
0.139760 0.405023 0.000000 
0.340137 0.111614 0.000000 
0.393801 0.464075 0.000000 
0.138610 0.188750 0.000000 
0.486189 0.269381 0.000000 
0.254878 0.483599 0.000000 
0.201328 0.131262 0.000000 
0.477367 0.353113 0.000000 
0.111022 0.325402 0.000000 
0.416616 0.148558 0.000000 
0.311261 0.489060 0.000000 
0.156045 0.428306 0.000000 
0.311805 0.105574 0.000000 
0.415535 0.445947 0.000000 
0.125600 0.214649 0.000000 
0.481610 0.241294 0.000000 
0.203409 0.460777 0.000000 
0.255205 0.111487 0.000000 
0.455936 0.406175 0.000000 
0.108794 0.269029 0.000000 
0.453029 0.191464 0.000000 
0.125517 0.380308 0.000000 
0.368265 0.118556 0.000000 
0.367122 0.475198 0.000000 
0.157690 0.167654 0.000000 
0.488282 0.297851 0.000000 
0.270217 0.477548 0.000000 
0.272839 0.460078 0.000000 
0.259982 0.449855 0.000000 
0.288128 0.454092 0.000000 
0.246078 0.456525 0.000000 
0.243597 0.472798 0.000000 
0.231523 0.448178 0.000000 
0.219760 0.460813 0.000000 
0.261492 0.432812 0.000000 
0.291678 0.437359 0.000000 
0.299384 0.464516 0.000000 
0.315340 0.460609 0.000000 
0.296983 0.480794 0.000000 
0.322897 0.476156 0.000000 
0.247510 0.422690 0.000000 
0.277899 0.426304 0.000000 
0.306378 0.433229 0.000000 
0.139797 0.388538 0.000000 
0.155093 0.379711 0.000000 
0.155075 0.363278 0.000000 
0.169303 0.387954 0.000000 
0.141143 0.356468 0.000000 
0.126881 0.364671 0.000000 
0.138319 0.339456 0.000000 
0.121124 0.338132 0.000000 
0.169339 0.353841 0.000000 
0.184607 0.380320 0.000000 
0.167899 0.403767 0.000000 
0.179602 0.416412 0.000000 
0.153646 0.412008 0.000000 
0.172113 0.431961 0.000000 
0.168530 0.336578 0.000000 
0.184661 0.362640 0.000000 
0.197194 0.392054 0.000000 
0.196301 0.445914 0.000000 
0.204034 0.427046 0.000000 
0.420204 0.430095 0.000000 
0.408385 0.417364 0.000000 
0.392530 0.421180 0.000000 
0.413247 0.401725 0.000000 
0.389418 0.436871 0.000000 
0.400723 0.449028 0.000000 
0.374637 0.445626 0.000000 
0.377360 0.462828 0.000000 
0.380126 0.409370 0.000000 
0.402469 0.388527 0.000000 
0.429149 0.399813 0.000000 
0.439039 0.385775 0.000000 
0.440261 0.411767 0.000000 
0.456011 0.389816 0.000000 
0.363628 0.414138 0.000000 
0.385301 0.392476 0.000000 
0.411232 0.373787 0.000000 
0.118194 0.310565 0.000000 
0.148932 0.310301 0.000000 
0.173774 0.164024 0.000000 
0.185782 0.176992 0.000000 
0.201799 0.173328 0.000000 
0.180905 0.192685 0.000000 
0.205344 0.158221 0.000000 
0.194180 0.146125 0.000000 
0.221304 0.151693 0.000000 
0.218780 0.134619 0.000000 
0.214162 0.185152 0.000000 
0.191741 0.205923 0.000000 
0.165179 0.194825 0.000000 
0.155446 0.209068 0.000000 
0.153970 0.182763 0.000000 
0.138620 0.205239 0.000000 
0.230810 0.180535 0.000000 
0.208984 0.202053 0.000000 
0.185859 0.222174 0.000000 
0.400179 0.147350 0.000000 
0.390207 0.161928 0.000000 
0.397338 0.176730 0.000000 
0.373825 0.160652 0.000000 
0.412763 0.176766 0.000000 
0.422070 0.163183 0.000000 
0.422243 0.190609 0.000000 
0.438322 0.184332 0.000000 
0.388554 0.191406 0.000000 
0.363324 0.174156 0.000000 
0.368242 0.145796 0.000000 
0.352199 0.139472 0.000000 
0.377512 0.132201 0.000000 
0.352196 0.122221 0.000000 
0.396752 0.206606 0.000000 
0.370923 0.190109 0.000000 
0.346174 0.172029 0.000000 
0.478988 0.284208 0.000000 
0.461356 0.285473 0.000000 
0.454218 0.300251 0.000000 
0.452134 0.271867 0.000000 
0.463780 0.312352 0.000000 
0.480215 0.311218 0.000000 
0.458819 0.328366 0.000000 
0.473773 0.337116 0.000000 
0.437246 0.302499 0.000000 
0.435014 0.272061 0.000000 
0.460279 0.258255 0.000000 
0.455221 0.241774 0.000000 
0.476701 0.257035 0.000000 
0.468718 0.231015 0.000000 
0.430406 0.318318 0.000000 
0.427266 0.287915 0.000000 
0.428777 0.256043 0.000000 
0.452986 0.207947 0.000000 
0.437827 0.221586 0.000000 
0.245013 0.125654 0.000000 
0.253494 0.156745 0.000000 
0.324659 0.115890 0.000000 
0.317125 0.131407 0.000000 
0.115953 0.283878 0.000000 
0.132122 0.286328 0.000000 
0.141368 0.272742 0.000000 
0.134364 0.303044 0.000000 
0.134706 0.257973 0.000000 
0.118300 0.256709 0.000000 
0.139802 0.241494 0.000000 
0.126339 0.230701 0.000000 
0.158469 0.272989 0.000000 
0.169604 0.255849 0.000000 
0.163783 0.293831 0.000000 
0.270530 0.117552 0.000000 
0.273138 0.135024 0.000000 
0.288427 0.141022 0.000000 
0.257342 0.140922 0.000000 
0.299934 0.130089 0.000000 
0.297531 0.113810 0.000000 
0.323382 0.148234 0.000000 
0.290409 0.159472 0.000000 
0.308170 0.165365 0.000000 
0.271272 0.169298 0.000000 
0.464364 0.363243 0.000000 
0.444133 0.359720 0.000000 
0.349783 0.468861 0.000000 
0.346667 0.445596 0.000000 
0.231445 0.431386 0.000000 
0.361262 0.434709 0.000000 
0.415015 0.205768 0.000000 
0.151442 0.329002 0.000000 
0.234406 0.162182 0.000000 
0.442403 0.332074 0.000000 
0.309769 0.416252 0.000000 
0.400215 0.360573 0.000000 
0.335693 0.185797 0.000000 
0.212582 0.384154 0.000000 
0.196959 0.235450 0.000000 
0.411464 0.256429 0.000000 
0.249223 0.405464 0.000000 
0.351282 0.402119 0.000000 
0.387693 0.221335 0.000000 
0.183056 0.327182 0.000000 
0.243189 0.192625 0.000000 
0.413188 0.320379 0.000000 
0.318775 0.446039 0.000000 
0.431954 0.373006 0.000000 
0.340632 0.152201 0.000000 
0.193596 0.412332 0.000000 
0.165294 0.223177 0.000000 
0.440839 0.239369 0.000000 
0.298422 0.403388 0.000000 
0.214013 0.232430 0.000000 
0.391654 0.238668 0.000000 
0.377451 0.251410 0.000000 
0.377435 0.267709 0.000000 
0.363324 0.243218 0.000000 
0.395862 0.271855 0.000000 
0.363199 0.277192 0.000000 
0.347945 0.250709 0.000000 
0.369005 0.225252 0.000000 
0.364057 0.294406 0.000000 
0.347836 0.268385 0.000000 
0.333470 0.241301 0.000000 
0.379857 0.306381 0.000000 
0.349526 0.303846 0.000000 
0.317983 0.249067 0.000000 
0.331052 0.221651 0.000000 
0.281240 0.409298 0.000000 
0.302779 0.386714 0.000000 
0.220156 0.215288 0.000000 
0.334070 0.296011 0.000000 
0.288098 0.376794 0.000000 
0.320630 0.386106 0.000000 
0.333593 0.402281 0.000000 
0.319515 0.305445 0.000000 
0.333237 0.277764 0.000000 
0.269047 0.382735 0.000000 
0.320435 0.322746 0.000000 
0.304067 0.297611 0.000000 
0.335875 0.330572 0.000000 
0.305930 0.332237 0.000000 
0.289561 0.307090 0.000000 
0.303246 0.278271 0.000000 
0.350413 0.321109 0.000000 
0.306966 0.350726 0.000000 
0.290500 0.324410 0.000000 
0.276015 0.333910 0.000000 
0.274576 0.351074 0.000000 
0.290100 0.360068 0.000000 
0.254064 0.361775 0.000000 
0.260584 0.326085 0.000000 
0.242123 0.335568 0.000000 
0.259640 0.308767 0.000000 
0.237043 0.354093 0.000000 
0.216531 0.363749 0.000000 
0.220816 0.327033 0.000000 
0.244213 0.300953 0.000000 
0.274138 0.299279 0.000000 
0.223844 0.309732 0.000000 
0.243301 0.283661 0.000000 
0.273237 0.281998 0.000000 
0.226421 0.269411 0.000000 
0.257816 0.274185 0.000000 
0.256909 0.256897 0.000000 
0.243155 0.245129 0.000000 
0.247545 0.224582 0.000000 
0.271430 0.247429 0.000000 
0.265842 0.227437 0.000000 
0.286928 0.253180 0.000000 
0.302473 0.242203 0.000000 
0.342356 0.207045 0.000000 
0.238109 0.391547 0.000000 
0.250538 0.376708 0.000000 
0.264563 0.186824 0.000000 
0.380449 0.362283 0.000000 
0.374249 0.379372 0.000000 
0.367063 0.349934 0.000000 
0.349486 0.355466 0.000000 
0.345385 0.372710 0.000000 
0.326951 0.374396 0.000000 
0.321062 0.357699 0.000000 
0.335461 0.347031 0.000000 
0.180811 0.303136 0.000000 
0.401964 0.334184 0.000000 
0.382472 0.326740 0.000000 
0.287828 0.270460 0.000000 
0.327106 0.415764 0.000000 
0.332954 0.436123 0.000000 
0.188399 0.253179 0.000000 
0.227180 0.248166 0.000000 
0.317859 0.267856 0.000000 
0.314940 0.183101 0.000000 
0.266549 0.398577 0.000000 
0.237714 0.210477 0.000000 
0.410923 0.346830 0.000000 
0.434163 0.346813 0.000000 
0.407239 0.239532 0.000000 
0.421541 0.221364 0.000000 
0.200402 0.335777 0.000000 
0.223740 0.397561 0.000000 
0.218787 0.420165 0.000000 
0.356762 0.384268 0.000000 
0.398214 0.303988 0.000000 
0.367583 0.332044 0.000000 
0.360434 0.209226 0.000000 
0.201198 0.353972 0.000000 
0.405436 0.287318 0.000000 
0.313594 0.214065 0.000000 
0.300501 0.226850 0.000000 
0.304141 0.196756 0.000000 
0.279367 0.217837 0.000000 
0.157599 0.239123 0.000000 
0.280927 0.198478 0.000000 
0.211479 0.286549 0.000000 
0.194286 0.279622 0.000000 
0.688055 0.892681 0.000000 
0.584453 0.554040 0.000000 
0.892470 0.730779 0.000000 
0.519009 0.759099 0.000000 
0.798071 0.537181 0.000000 
0.743579 0.885913 0.000000 
0.583399 0.851430 0.000000 
0.688348 0.512170 0.000000 
0.842308 0.832378 0.000000 
0.518575 0.645622 0.000000 
0.874489 0.619685 0.000000 
0.632537 0.881225 0.000000 
0.633914 0.526878 0.000000 
0.874390 0.785368 0.000000 
0.511764 0.702157 0.000000 
0.843134 0.571536 0.000000 
0.544741 0.809719 0.000000 
0.745108 0.516415 0.000000 
0.798869 0.869169 0.000000 
0.544055 0.593842 0.000000 
0.891221 0.674071 0.000000 
0.659862 0.888382 0.000000 
0.606398 0.536311 0.000000 
0.882496 0.757813 0.000000 
0.516094 0.730087 0.000000 
0.821617 0.553262 0.000000 
0.716193 0.893949 0.000000 
0.561062 0.833002 0.000000 
0.716745 0.510426 0.000000 
0.821373 0.851764 0.000000 
0.530834 0.619432 0.000000 
0.886621 0.646000 0.000000 
0.608432 0.865468 0.000000 
0.660107 0.516373 0.000000 
0.861385 0.811275 0.000000 
0.513935 0.673700 0.000000 
0.858015 0.596168 0.000000 
0.530502 0.785008 0.000000 
0.773260 0.523303 0.000000 
0.772058 0.880150 0.000000 
0.564088 0.573866 0.000000 
0.893339 0.702526 0.000000 
0.675204 0.882365 0.000000 
0.677866 0.864905 0.000000 
0.665029 0.854660 0.000000 
0.693175 0.858952 0.000000 
0.651109 0.861299 0.000000 
0.648605 0.877561 0.000000 
0.636559 0.852926 0.000000 
0.624783 0.865532 0.000000 
0.666575 0.837626 0.000000 
0.696780 0.842232 0.000000 
0.704404 0.869396 0.000000 
0.720387 0.865524 0.000000 
0.701945 0.885667 0.000000 
0.727871 0.881067 0.000000 
0.652593 0.827479 0.000000 
0.683017 0.831151 0.000000 
0.711513 0.838129 0.000000 
0.544781 0.793238 0.000000 
0.560108 0.784425 0.000000 
0.560121 0.768013 0.000000 
0.574315 0.792660 0.000000 
0.546188 0.761195 0.000000 
0.531897 0.769377 0.000000 
0.543393 0.744191 0.000000 
0.526183 0.742837 0.000000 
0.574417 0.758607 0.000000 
0.589649 0.785047 0.000000 
0.572896 0.808461 0.000000 
0.584612 0.821102 0.000000 
0.558643 0.816702 0.000000 
0.577133 0.836651 0.000000 
0.573641 0.741373 0.000000 
0.589738 0.767407 0.000000 
0.602223 0.796762 0.000000 
0.601322 0.850596 0.000000 
0.609055 0.831748 0.000000 
0.826224 0.836002 0.000000 
0.814216 0.823027 0.000000 
0.798198 0.826685 0.000000 
0.819093 0.807332 0.000000 
0.794855 0.842208 0.000000 
0.806020 0.854311 0.000000 
0.779914 0.850814 0.000000 
0.782436 0.867889 0.000000 
0.785838 0.814859 0.000000 
0.808256 0.794091 0.000000 
0.834819 0.805192 0.000000 
0.844547 0.790948 0.000000 
0.846026 0.817262 0.000000 
0.861371 0.794778 0.000000 
0.769192 0.819473 0.000000 
0.791017 0.797958 0.000000 
0.816897 0.779210 0.000000 
0.523301 0.715266 0.000000 
0.554073 0.715088 0.000000 
0.579777 0.569895 0.000000 
0.591579 0.582614 0.000000 
0.607432 0.578793 0.000000 
0.586709 0.598256 0.000000 
0.610764 0.563521 0.000000 
0.599467 0.551364 0.000000 
0.626591 0.556865 0.000000 
0.623880 0.539664 0.000000 
0.619834 0.590608 0.000000 
0.597484 0.611449 0.000000 
0.570819 0.600181 0.000000 
0.560943 0.614224 0.000000 
0.559722 0.588238 0.000000 
0.543982 0.610195 0.000000 
0.636343 0.585847 0.000000 
0.614657 0.607504 0.000000 
0.591496 0.627571 0.000000 
0.805182 0.552044 0.000000 
0.795216 0.566633 0.000000 
0.802341 0.581421 0.000000 
0.778849 0.565391 0.000000 
0.817760 0.581459 0.000000 
0.827068 0.567885 0.000000 
0.827238 0.595301 0.000000 
0.843312 0.589033 0.000000 
0.793571 0.596113 0.000000 
0.768373 0.578917 0.000000 
0.773260 0.550545 0.000000 
0.757217 0.544253 0.000000 
0.782518 0.536930 0.000000 
0.757190 0.527000 0.000000 
0.801777 0.611317 0.000000 
0.775974 0.594856 0.000000 
0.751245 0.576826 0.000000 
0.884044 0.688913 0.000000 
0.866438 0.690229 0.000000 
0.859328 0.705044 0.000000 
0.857212 0.676638 0.000000 
0.868904 0.717128 0.000000 
0.885310 0.715929 0.000000 
0.863991 0.733190 0.000000 
0.878907 0.741852 0.000000 
0.842384 0.707353 0.000000 
0.840115 0.676873 0.000000 
0.865330 0.662997 0.000000 
0.860257 0.646513 0.000000 
0.881732 0.661746 0.000000 
0.873729 0.635734 0.000000 
0.835613 0.723254 0.000000 
0.832402 0.692776 0.000000 
0.833861 0.660841 0.000000 
0.857981 0.612657 0.000000 
0.842850 0.626316 0.000000 
0.650013 0.530601 0.000000 
0.658718 0.561802 0.000000 
0.729629 0.520722 0.000000 
0.722132 0.536256 0.000000 
0.521108 0.688590 0.000000 
0.537287 0.691093 0.000000 
0.546574 0.677571 0.000000 
0.539503 0.707795 0.000000 
0.539928 0.662795 0.000000 
0.523466 0.661424 0.000000 
0.545083 0.646384 0.000000 
0.531562 0.635484 0.000000 
0.563707 0.677896 0.000000 
0.574959 0.660908 0.000000 
0.568962 0.698687 0.000000 
0.675492 0.522460 0.000000 
0.678186 0.539957 0.000000 
0.693478 0.545925 0.000000 
0.662446 0.545908 0.000000 
0.704938 0.534975 0.000000 
0.702484 0.518701 0.000000 
0.728429 0.553074 0.000000 
0.695519 0.564375 0.000000 
0.713278 0.570239 0.000000 
0.676493 0.574291 0.000000 
0.869590 0.768068 0.000000 
0.849485 0.764737 0.000000 
0.754790 0.873828 0.000000 
0.751866 0.850661 0.000000 
0.636496 0.836140 0.000000 
0.766612 0.839906 0.000000 
0.820027 0.610471 0.000000 
0.556549 0.733774 0.000000 
0.639751 0.567363 0.000000 
0.847644 0.737006 0.000000 
0.714979 0.821173 0.000000 
0.805797 0.765933 0.000000 
0.740808 0.590621 0.000000 
0.617655 0.788913 0.000000 
0.602499 0.640758 0.000000 
0.816570 0.661260 0.000000 
0.654337 0.810266 0.000000 
0.756816 0.807381 0.000000 
0.792766 0.626106 0.000000 
0.588202 0.732026 0.000000 
0.648690 0.597869 0.000000 
0.818448 0.725407 0.000000 
0.723893 0.850981 0.000000 
0.837460 0.778208 0.000000 
0.745676 0.557007 0.000000 
0.598609 0.817023 0.000000 
0.570803 0.628380 0.000000 
0.845886 0.644122 0.000000 
0.703641 0.808287 0.000000 
0.619527 0.637701 0.000000 
0.796758 0.643481 0.000000 
0.782617 0.656293 0.000000 
0.782639 0.672638 0.000000 
0.768508 0.648112 0.000000 
0.801031 0.676761 0.000000 
0.768468 0.682184 0.000000 
0.753188 0.655663 0.000000 
0.774130 0.630079 0.000000 
0.769359 0.699442 0.000000 
0.753126 0.673391 0.000000 
0.738725 0.646262 0.000000 
0.785125 0.711407 0.000000 
0.754876 0.708928 0.000000 
0.723301 0.654090 0.000000 
0.736258 0.626560 0.000000 
0.686410 0.814162 0.000000 
0.708046 0.791660 0.000000 
0.625720 0.620611 0.000000 
0.739462 0.701119 0.000000 
0.693362 0.781745 0.000000 
0.725972 0.791140 0.000000 
0.739006 0.807400 0.000000 
0.724950 0.710590 0.000000 
0.738595 0.682835 0.000000 
0.674252 0.787626 0.000000 
0.725854 0.727874 0.000000 
0.709538 0.702779 0.000000 
0.741275 0.735693 0.000000 
0.711337 0.737340 0.000000 
0.695020 0.712246 0.000000 
0.708682 0.683410 0.000000 
0.755787 0.726219 0.000000 
0.712329 0.755780 0.000000 
0.695917 0.729522 0.000000 
0.681374 0.738963 0.000000 
0.679882 0.756072 0.000000 
0.695416 0.765072 0.000000 
0.659291 0.766691 0.000000 
0.665924 0.731121 0.000000 
0.647388 0.740529 0.000000 
0.665022 0.713848 0.000000 
0.642247 0.758989 0.000000 
0.621661 0.768570 0.000000 
0.626045 0.731961 0.000000 
0.649566 0.706009 0.000000 
0.679575 0.704413 0.000000 
0.629124 0.714714 0.000000 
0.648661 0.688739 0.000000 
0.678665 0.687131 0.000000 
0.631783 0.674506 0.000000 
0.663211 0.679295 0.000000 
0.662306 0.662012 0.000000 
0.648573 0.650277 0.000000 
0.652981 0.629749 0.000000 
0.676813 0.652521 0.000000 
0.671217 0.632527 0.000000 
0.692307 0.658260 0.000000 
0.707806 0.647239 0.000000 
0.747499 0.611885 0.000000 
0.643222 0.796346 0.000000 
0.655716 0.781574 0.000000 
0.669911 0.591901 0.000000 
0.785986 0.767580 0.000000 
0.779845 0.784721 0.000000 
0.772517 0.755136 0.000000 
0.754924 0.760633 0.000000 
0.750839 0.777886 0.000000 
0.732332 0.779478 0.000000 
0.726438 0.762775 0.000000 
0.740867 0.752154 0.000000 
0.585999 0.708026 0.000000 
0.807355 0.739354 0.000000 
0.787826 0.731857 0.000000 
0.693251 0.675584 0.000000 
0.732418 0.820806 0.000000 
0.738175 0.841154 0.000000 
0.593830 0.658363 0.000000 
0.632610 0.653336 0.000000 
0.723233 0.672936 0.000000 
0.720088 0.587967 0.000000 
0.671712 0.803424 0.000000 
0.643212 0.615720 0.000000 
0.816387 0.752061 0.000000 
0.839512 0.751866 0.000000 
0.812320 0.644324 0.000000 
0.826576 0.626100 0.000000 
0.605563 0.740636 0.000000 
0.628810 0.802316 0.000000 
0.623829 0.824899 0.000000 
0.762291 0.789529 0.000000 
0.803430 0.708976 0.000000 
0.772971 0.737181 0.000000 
0.765541 0.614029 0.000000 
0.606319 0.758785 0.000000 
0.810610 0.692244 0.000000 
0.718820 0.618993 0.000000 
0.705793 0.631845 0.000000 
0.709344 0.601660 0.000000 
0.684681 0.622856 0.000000 
0.562983 0.644174 0.000000 
0.686202 0.603455 0.000000 
0.616757 0.691556 0.000000 
0.599555 0.684636 0.000000 
VECTORS X_EC float 
-0.756807 0.662087 0.000000 
0.034720 0.572490 0.000000 
0.477686 0.747732 0.000000 
-0.088113 -0.720267 0.000000 
0.350475 0.861315 0.000000 
-0.620123 -0.226867 0.000000 
0.065126 0.567425 0.000000 
0.854543 0.668337 0.000000 
0.477242 -0.281986 0.000000 
0.180894 -0.731391 0.000000 
0.700592 0.389921 0.000000 
-0.529925 -0.449481 0.000000 
0.561181 -0.420931 0.000000 
-0.611725 0.383440 0.000000 
-0.949737 -0.867185 0.000000 
-0.336524 -0.237206 0.000000 
0.899548 -0.204808 0.000000 
0.767729 -0.197251 0.000000 
-0.281498 0.876023 0.000000 
-0.774992 -0.227796 0.000000 
-0.387624 0.723773 0.000000 
-0.671970 0.097558 0.000000 
0.374760 -0.973440 0.000000 
-0.062258 0.547339 0.000000 
0.491951 -0.779560 0.000000 
0.028848 -0.667678 0.000000 
-0.781194 -0.774770 0.000000 
0.433874 0.120906 0.000000 
0.888530 -0.763907 0.000000 
0.081061 -0.689301 0.000000 
0.707016 -0.487999 0.000000 
0.174129 0.632202 0.000000 
-0.215547 -0.931821 0.000000 
0.770260 0.104093 0.000000 
0.876496 0.118726 0.000000 
-0.380572 -0.824129 0.000000 
-0.829278 0.060588 0.000000 
-0.606150 -0.489661 0.000000 
0.628885 0.365290 0.000000 
-0.503953 0.342436 0.000000 
-0.353077 0.153805 0.000000 
-0.957022 0.765647 0.000000 
-0.550967 0.404345 0.000000 
-0.201559 0.456773 0.000000 
0.002900 0.199630 0.000000 
-0.081835 0.762558 0.000000 
-0.130501 -0.078438 0.000000 
-0.455961 -0.128057 0.000000 
0.036438 -0.369544 0.000000 
-0.216264 -0.604804 0.000000 
0.343753 0.229839 0.000000 
0.252824 0.833558 0.000000 
-0.290327 0.987686 0.000000 
-0.212185 -0.693208 0.000000 
-0.615890 0.939652 0.000000 
-0.523113 -0.542067 0.000000 
0.546200 -0.049803 0.000000 
0.473930 0.557979 0.000000 
0.335421 -0.872450 0.000000 
-0.770761 -0.204059 0.000000 
-0.594215 0.101865 0.000000 
-0.265557 0.101504 0.000000 
-0.759071 0.386063 0.000000 
-0.129366 -0.177134 0.000000 
-0.293411 -0.462377 0.000000 
0.210889 -0.233618 0.000000 
0.237353 -0.577529 0.000000 
-0.076821 0.386787 0.000000 
-0.606395 0.692144 0.000000 
0.924663 0.357982 0.000000 
0.671760 0.592043 0.000000 
0.759848 0.072925 0.000000 
0.360779 0.442266 0.000000 
0.268441 0.370601 0.000000 
-0.252798 0.693225 0.000000 
-0.841075 0.943885 0.000000 
0.081720 0.926018 0.000000 
0.459071 -0.919319 0.000000 
0.398097 -0.595929 0.000000 
0.652720 -0.832294 0.000000 
0.576404 0.850609 0.000000 
0.965507 -0.735062 0.000000 
0.262582 0.788358 0.000000 
0.019447 -0.985534 0.000000 
0.087485 0.492745 0.000000 
-0.256561 0.547199 0.000000 
0.812602 0.602517 0.000000 
-0.770538 -0.950623 0.000000 
-0.996270 -0.417021 0.000000 
-0.715506 -0.219226 0.000000 
0.764654 -0.194789 0.000000 
-0.796329 0.120220 0.000000 
0.717249 0.272551 0.000000 