# vtk DataFile Version 3.0 
vtk output 
ASCII 
DATASET UNSTRUCTURED_GRID 
POINTS 616 float 
0.190743 0.395247 0.000000 
0.086050 0.055842 0.000000 
0.394931 0.233227 0.000000 
0.021575 0.261893 0.000000 
0.300390 0.039779 0.000000 
0.246239 0.388394 0.000000 
0.086050 0.354158 0.000000 
0.190743 0.014753 0.000000 
0.344852 0.334764 0.000000 
0.020966 0.148514 0.000000 
0.376887 0.122223 0.000000 
0.135217 0.383888 0.000000 
0.136321 0.029487 0.000000 
0.376887 0.287777 0.000000 
0.014219 0.205000 0.000000 
0.345489 0.074105 0.000000 
0.047370 0.312470 0.000000 
0.247453 0.019003 0.000000 
0.301487 0.371582 0.000000 
0.046094 0.096334 0.000000 
0.393650 0.176566 0.000000 
0.162547 0.390997 0.000000 
0.108717 0.038834 0.000000 
0.384973 0.260241 0.000000 
0.018605 0.232902 0.000000 
0.323950 0.055842 0.000000 
0.218875 0.396469 0.000000 
0.063699 0.335741 0.000000 
0.219118 0.013011 0.000000 
0.323950 0.354158 0.000000 
0.033113 0.122223 0.000000 
0.389034 0.148514 0.000000 
0.111096 0.368168 0.000000 
0.162547 0.019003 0.000000 
0.363906 0.313666 0.000000 
0.016350 0.176566 0.000000 
0.360400 0.098734 0.000000 
0.033113 0.287777 0.000000 
0.275581 0.025898 0.000000 
0.274700 0.382593 0.000000 
0.065148 0.075236 0.000000 
0.395781 0.205000 0.000000 
0.177877 0.384951 0.000000 
0.180510 0.367479 0.000000 
0.167660 0.357254 0.000000 
0.195803 0.361495 0.000000 
0.153756 0.363921 0.000000 
0.151276 0.380194 0.000000 
0.139198 0.355572 0.000000 
0.127444 0.368204 0.000000 
0.169178 0.340210 0.000000 
0.199376 0.344762 0.000000 
0.207045 0.371925 0.000000 
0.223019 0.368033 0.000000 
0.204618 0.388205 0.000000 
0.230528 0.383569 0.000000 
0.155189 0.330086 0.000000 
0.185601 0.333703 0.000000 
0.214098 0.340641 0.000000 
0.047398 0.295992 0.000000 
0.062699 0.287157 0.000000 
0.062682 0.270735 0.000000 
0.076913 0.295383 0.000000 
0.048744 0.263938 0.000000 
0.034476 0.272146 0.000000 
0.045919 0.246936 0.000000 
0.028714 0.245622 0.000000 
0.076954 0.261296 0.000000 
0.092223 0.287743 0.000000 
0.075512 0.311189 0.000000 
0.087235 0.323824 0.000000 
0.061271 0.319442 0.000000 
0.079771 0.339381 0.000000 
0.076147 0.244046 0.000000 
0.092281 0.270078 0.000000 
0.104812 0.299456 0.000000 
0.103972 0.353309 0.000000 
0.111681 0.334439 0.000000 
0.328780 0.338403 0.000000 
0.316762 0.325451 0.000000 
0.300756 0.329122 0.000000 
0.321619 0.309763 0.000000 
0.297435 0.344639 0.000000 
0.308611 0.356723 0.000000 
0.282509 0.353256 0.000000 
0.285056 0.370323 0.000000 
0.288377 0.317309 0.000000 
0.310764 0.296537 0.000000 
0.337341 0.307612 0.000000 
0.347050 0.293371 0.000000 
0.348556 0.319660 0.000000 
0.363878 0.297187 0.000000 
0.271739 0.321934 0.000000 
0.293529 0.300411 0.000000 
0.319382 0.281658 0.000000 
0.025780 0.218067 0.000000 
0.056539 0.217794 0.000000 
0.081220 0.071597 0.000000 
0.093238 0.084549 0.000000 
0.109244 0.080878 0.000000 
0.088381 0.100237 0.000000 
0.112769 0.065777 0.000000 
0.101593 0.053693 0.000000 
0.128716 0.059239 0.000000 
0.126169 0.042173 0.000000 
0.121623 0.092691 0.000000 
0.099236 0.113463 0.000000 
0.072659 0.102388 0.000000 
0.062950 0.116629 0.000000 
0.061444 0.090340 0.000000 
0.046122 0.112813 0.000000 
0.138261 0.088066 0.000000 
0.116471 0.109589 0.000000 
0.093380 0.129709 0.000000 
0.307515 0.054638 0.000000 
0.297562 0.069237 0.000000 
0.304702 0.084025 0.000000 
0.281187 0.067993 0.000000 
0.320123 0.084051 0.000000 
0.329417 0.070466 0.000000 
0.329616 0.097889 0.000000 
0.345687 0.091608 0.000000 
0.295940 0.098722 0.000000 
0.270707 0.081519 0.000000 
0.275590 0.053144 0.000000 
0.259547 0.046847 0.000000 
0.284841 0.039529 0.000000 
0.259522 0.029592 0.000000 
0.304152 0.113914 0.000000 
0.278320 0.097460 0.000000 
0.253566 0.079425 0.000000 
0.386474 0.191400 0.000000 
0.368855 0.192721 0.000000 
0.361745 0.207524 0.000000 
0.359618 0.179142 0.000000 
0.371340 0.219596 0.000000 
0.387756 0.218393 0.000000 
0.366439 0.235646 0.000000 
0.381370 0.244295 0.000000 
0.344791 0.209836 0.000000 
0.342509 0.179383 0.000000 
0.367738 0.165509 0.000000 
0.362658 0.149040 0.000000 
0.384150 0.164253 0.000000 
0.376133 0.138262 0.000000 
0.338034 0.225728 0.000000 
0.334792 0.195273 0.000000 
0.336250 0.163368 0.000000 
0.360372 0.115213 0.000000 
0.345239 0.128869 0.000000 
0.152380 0.033181 0.000000 
0.160905 0.064262 0.000000 
0.231984 0.023307 0.000000 
0.224475 0.038843 0.000000 
0.023526 0.191400 0.000000 
0.039705 0.193843 0.000000 
0.048942 0.180264 0.000000 
0.041960 0.210545 0.000000 
0.042262 0.165509 0.000000 
0.025850 0.164253 0.000000 
0.047342 0.149040 0.000000 
0.033867 0.138262 0.000000 
0.066051 0.180505 0.000000 
0.077169 0.163372 0.000000 
0.071393 0.201332 0.000000 
0.177877 0.025049 0.000000 
0.180510 0.042521 0.000000 
0.195803 0.048505 0.000000 
0.164728 0.048435 0.000000 
0.207288 0.037555 0.000000 
0.204861 0.021274 0.000000 
0.230753 0.055665 0.000000 
0.197813 0.066958 0.000000 
0.215576 0.072831 0.000000 
0.178696 0.076801 0.000000 
0.372072 0.270493 0.000000 
0.351959 0.267176 0.000000 
0.257427 0.376295 0.000000 
0.254466 0.353134 0.000000 
0.139113 0.338780 0.000000 
0.269192 0.342365 0.000000 
0.322407 0.113055 0.000000 
0.059049 0.236483 0.000000 
0.141829 0.069714 0.000000 
0.350087 0.239466 0.000000 
0.217534 0.323677 0.000000 
0.308261 0.268396 0.000000 
0.243111 0.093218 0.000000 
0.120216 0.291566 0.000000 
0.104501 0.142971 0.000000 
0.318947 0.163794 0.000000 
0.156906 0.312864 0.000000 
0.259345 0.309854 0.000000 
0.295132 0.128685 0.000000 
0.090682 0.234651 0.000000 
0.150655 0.100146 0.000000 
0.320862 0.227886 0.000000 
0.226499 0.353483 0.000000 
0.339946 0.280644 0.000000 
0.248001 0.059602 0.000000 
0.101224 0.319731 0.000000 
0.072816 0.130723 0.000000 
0.348279 0.146658 0.000000 
0.206174 0.310796 0.000000 
0.121553 0.139955 0.000000 
0.299125 0.146041 0.000000 
0.284967 0.158831 0.000000 
0.284988 0.175157 0.000000 
0.270839 0.150650 0.000000 
0.303397 0.179283 0.000000 
0.270796 0.184679 0.000000 
0.255497 0.158180 0.000000 
0.276470 0.132644 0.000000 
0.271693 0.201919 0.000000 
0.255433 0.175882 0.000000 
0.241015 0.148783 0.000000 
0.287496 0.213894 0.000000 
0.257211 0.211394 0.000000 
0.225568 0.156587 0.000000 
0.238545 0.129110 0.000000 
0.188964 0.316700 0.000000 
0.210547 0.294160 0.000000 
0.127668 0.122818 0.000000 
0.241762 0.203570 0.000000 
0.195842 0.284250 0.000000 
0.228472 0.293629 0.000000 
0.241536 0.309885 0.000000 
0.227257 0.213036 0.000000 
0.240882 0.185299 0.000000 
0.176764 0.290172 0.000000 
0.228203 0.230330 0.000000 
0.211807 0.205208 0.000000 
0.243654 0.238158 0.000000 
0.213699 0.239797 0.000000 
0.197302 0.214674 0.000000 
0.210928 0.185844 0.000000 
0.258157 0.228687 0.000000 
0.214740 0.258251 0.000000 
0.198248 0.231969 0.000000 
0.183744 0.241435 0.000000 
0.182302 0.258569 0.000000 
0.197847 0.267557 0.000000 
0.161761 0.269237 0.000000 
0.168293 0.233607 0.000000 
0.149807 0.243058 0.000000 
0.167347 0.216313 0.000000 
0.144717 0.261553 0.000000 
0.124174 0.271184 0.000000 
0.128473 0.234510 0.000000 
0.151896 0.208485 0.000000 
0.181852 0.206846 0.000000 
0.131508 0.217232 0.000000 
0.150950 0.191190 0.000000 
0.180906 0.189551 0.000000 
0.134030 0.176929 0.000000 
0.165455 0.181723 0.000000 
0.164509 0.164429 0.000000 
0.150725 0.152655 0.000000 
0.155073 0.132105 0.000000 
0.179013 0.154962 0.000000 
0.173376 0.134959 0.000000 
0.194531 0.160721 0.000000 
0.210051 0.149736 0.000000 
0.249803 0.114462 0.000000 
0.145778 0.298959 0.000000 
0.158228 0.284146 0.000000 
0.172015 0.094334 0.000000 
0.288447 0.270045 0.000000 
0.282332 0.287182 0.000000 
0.274952 0.257606 0.000000 
0.257362 0.263104 0.000000 
0.253311 0.280360 0.000000 
0.234805 0.281960 0.000000 
0.228871 0.265250 0.000000 
0.243281 0.254624 0.000000 
0.088440 0.210626 0.000000 
0.309782 0.241830 0.000000 
0.290231 0.234337 0.000000 
0.195477 0.178016 0.000000 
0.234971 0.323296 0.000000 
0.240761 0.343640 0.000000 
0.095965 0.160695 0.000000 
0.134751 0.155688 0.000000 
0.225498 0.175401 0.000000 
0.222369 0.090561 0.000000 
0.174258 0.305986 0.000000 
0.145214 0.118002 0.000000 
0.318836 0.254525 0.000000 
0.341969 0.254320 0.000000 
0.314696 0.146878 0.000000 
0.328958 0.128664 0.000000 
0.108036 0.243232 0.000000 
0.131386 0.304961 0.000000 
0.126439 0.327560 0.000000 
0.264786 0.291998 0.000000 
0.305809 0.211469 0.000000 
0.275374 0.239655 0.000000 
0.267870 0.116610 0.000000 
0.108828 0.261410 0.000000 
0.312983 0.194748 0.000000 
0.221082 0.121546 0.000000 
0.208035 0.134368 0.000000 
0.211597 0.104242 0.000000 
0.186878 0.125350 0.000000 
0.065140 0.146662 0.000000 
0.188393 0.105981 0.000000 
0.119108 0.194050 0.000000 
0.101894 0.187121 0.000000 
0.780743 0.985247 0.000000 
0.676050 0.645842 0.000000 
0.984931 0.823227 0.000000 
0.611575 0.851893 0.000000 
0.890390 0.629779 0.000000 
0.836239 0.978394 0.000000 
0.676050 0.944158 0.000000 
0.780743 0.604753 0.000000 
0.934852 0.924764 0.000000 
0.610966 0.738514 0.000000 
0.966887 0.712223 0.000000 
0.725217 0.973888 0.000000 
0.726321 0.619487 0.000000 
0.966887 0.877777 0.000000 
0.604219 0.795000 0.000000 
0.935489 0.664105 0.000000 
0.637370 0.902470 0.000000 
0.837453 0.609003 0.000000 
0.891487 0.961582 0.000000 
0.636094 0.686334 0.000000 
0.983650 0.766566 0.000000 
0.752547 0.980997 0.000000 
0.698717 0.628834 0.000000 
0.974973 0.850241 0.000000 
0.608605 0.822902 0.000000 
0.913950 0.645842 0.000000 
0.808875 0.986469 0.000000 
0.653699 0.925741 0.000000 
0.809118 0.603011 0.000000 
0.913950 0.944158 0.000000 
0.623113 0.712223 0.000000 
0.979034 0.738514 0.000000 
0.701096 0.958168 0.000000 
0.752547 0.609003 0.000000 
0.953906 0.903666 0.000000 
0.606350 0.766566 0.000000 
0.950400 0.688734 0.000000 
0.623113 0.877777 0.000000 
0.865581 0.615898 0.000000 
0.864700 0.972593 0.000000 
0.655148 0.665236 0.000000 
0.985781 0.795000 0.000000 
0.767877 0.974951 0.000000 
0.770510 0.957479 0.000000 
0.757660 0.947254 0.000000 
[...]
POINT_DATA 616 
VECTORS X_GC float 
0.190743 0.395247 0.000000 
0.086050 0.055842 0.000000 
0.394931 0.233227 0.000000 
0.021575 0.261893 0.000000 
0.300390 0.039779 0.000000 
0.246239 0.388394 0.000000 
0.086050 0.354158 0.000000 
0.190743 0.014753 0.000000 
0.344852 0.334764 0.000000 
0.020966 0.148514 0.000000 
0.376887 0.122223 0.000000 
0.135217 0.383888 0.000000 
0.136321 0.029487 0.000000 
0.376887 0.287777 0.000000 
0.014219 0.205000 0.000000 
0.345489 0.074105 0.000000 
0.047370 0.312470 0.000000 
0.247453 0.019003 0.000000 
0.301487 0.371582 0.000000 
0.046094 0.096334 0.000000 
0.393650 0.176566 0.000000 
0.162547 0.390997 0.000000 
0.108717 0.038834 0.000000 
0.384973 0.260241 0.000000 
0.018605 0.232902 0.000000 
0.323950 0.055842 0.000000 
0.218875 0.396469 0.000000 
0.063699 0.335741 0.000000 
0.219118 0.013011 0.000000 
0.323950 0.354158 0.000000 
0.033113 0.122223 0.000000 
0.389034 0.148514 0.000000 
0.111096 0.368168 0.000000 
0.162547 0.019003 0.000000 
0.363906 0.313666 0.000000 
0.016350 0.176566 0.000000 
0.360400 0.098734 0.000000 
0.033113 0.287777 0.000000 
0.275581 0.025898 0.000000 
0.274700 0.382593 0.000000 
0.065148 0.075236 0.000000 
0.395781 0.205000 0.000000 
0.177877 0.384951 0.000000 
0.180510 0.367479 0.000000 
0.167660 0.357254 0.000000 
0.195803 0.361495 0.000000 
0.153756 0.363921 0.000000 
0.151276 0.380194 0.000000 
0.139198 0.355572 0.000000 
0.127444 0.368204 0.000000 
0.169178 0.340210 0.000000 
0.199376 0.344762 0.000000 
0.207045 0.371925 0.000000 
0.223019 0.368033 0.000000 
0.204618 0.388205 0.000000 
0.230528 0.383569 0.000000 
0.155189 0.330086 0.000000 
0.185601 0.333703 0.000000 
0.214098 0.340641 0.000000 
0.047398 0.295992 0.000000 
0.062699 0.287157 0.000000 
0.062682 0.270735 0.000000 
0.076913 0.295383 0.000000 
0.048744 0.263938 0.000000 
0.034476 0.272146 0.000000 
0.045919 0.246936 0.000000 
0.028714 0.245622 0.000000 
0.076954 0.261296 0.000000 
0.092223 0.287743 0.000000 
0.075512 0.311189 0.000000 
0.087235 0.323824 0.000000 
0.061271 0.319442 0.000000 
0.079771 0.339381 0.000000 
0.076147 0.244046 0.000000 
0.092281 0.270078 0.000000 
0.104812 0.299456 0.000000 
0.103972 0.353309 0.000000 
0.111681 0.334439 0.000000 
0.328780 0.338403 0.000000 
0.316762 0.325451 0.000000 
0.300756 0.329122 0.000000 
0.321619 0.309763 0.000000 
0.297435 0.344639 0.000000 
0.308611 0.356723 0.000000 
0.282509 0.353256 0.000000 
0.285056 0.370323 0.000000 
0.288377 0.317309 0.000000 
0.310764 0.296537 0.000000 
0.337341 0.307612 0.000000 
0.347050 0.293371 0.000000 
0.348556 0.319660 0.000000 
0.363878 0.297187 0.000000 
0.271739 0.321934 0.000000 
0.293529 0.300411 0.000000 
0.319382 0.281658 0.000000 
0.025780 0.218067 0.000000 
0.056539 0.217794 0.000000 
0.081220 0.071597 0.000000 
0.093238 0.084549 0.000000 
0.109244 0.080878 0.000000 
0.088381 0.100237 0.000000 
0.112769 0.065777 0.000000 
0.101593 0.053693 0.000000 
0.128716 0.059239 0.000000 
0.126169 0.042173 0.000000 
0.121623 0.092691 0.000000 
0.099236 0.113463 0.000000 
0.072659 0.102388 0.000000 
0.062950 0.116629 0.000000 
0.061444 0.090340 0.000000 
0.046122 0.112813 0.000000 
0.138261 0.088066 0.000000 
0.116471 0.109589 0.000000 
0.093380 0.129709 0.000000 
0.307515 0.054638 0.000000 
0.297562 0.069237 0.000000 
0.304702 0.084025 0.000000 
0.281187 0.067993 0.000000 
0.320123 0.084051 0.000000 
0.329417 0.070466 0.000000 
0.329616 0.097889 0.000000 
0.345687 0.091608 0.000000 
0.295940 0.098722 0.000000 
0.270707 0.081519 0.000000 
0.275590 0.053144 0.000000 
0.259547 0.046847 0.000000 
0.284841 0.039529 0.000000 
0.259522 0.029592 0.000000 
0.304152 0.113914 0.000000 
0.278320 0.097460 0.000000 
0.253566 0.079425 0.000000 
0.386474 0.191400 0.000000 
0.368855 0.192721 0.000000 
0.361745 0.207524 0.000000 
0.359618 0.179142 0.000000 
0.371340 0.219596 0.000000 
0.387756 0.218393 0.000000 
0.366439 0.235646 0.000000 
0.381370 0.244295 0.000000 
0.344791 0.209836 0.000000 
0.342509 0.179383 0.000000 
0.367738 0.165509 0.000000 
0.362658 0.149040 0.000000 
0.384150 0.164253 0.000000 
0.376133 0.138262 0.000000 
0.338034 0.225728 0.000000 
0.334792 0.195273 0.000000 
0.336250 0.163368 0.000000 
0.360372 0.115213 0.000000 
0.345239 0.128869 0.000000 
0.152380 0.033181 0.000000 
0.160905 0.064262 0.000000 
0.231984 0.023307 0.000000 
0.224475 0.038843 0.000000 
0.023526 0.191400 0.000000 
0.039705 0.193843 0.000000 
0.048942 0.180264 0.000000 
0.041960 0.210545 0.000000 
0.042262 0.165509 0.000000 
0.025850 0.164253 0.000000 
0.047342 0.149040 0.000000 
0.033867 0.138262 0.000000 
0.066051 0.180505 0.000000 
0.077169 0.163372 0.000000 
0.071393 0.201332 0.000000 
0.177877 0.025049 0.000000 
0.180510 0.042521 0.000000 
0.195803 0.048505 0.000000 
0.164728 0.048435 0.000000 
0.207288 0.037555 0.000000 
0.204861 0.021274 0.000000 
0.230753 0.055665 0.000000 
0.197813 0.066958 0.000000 
0.215576 0.072831 0.000000 
0.178696 0.076801 0.000000 
0.372072 0.270493 0.000000 
0.351959 0.267176 0.000000 
0.257427 0.376295 0.000000 
0.254466 0.353134 0.000000 
0.139113 0.338780 0.000000 
0.269192 0.342365 0.000000 
0.322407 0.113055 0.000000 
0.059049 0.236483 0.000000 
0.141829 0.069714 0.000000 
0.350087 0.239466 0.000000 
0.217534 0.323677 0.000000 
0.308261 0.268396 0.000000 
0.243111 0.093218 0.000000 
0.120216 0.291566 0.000000 
0.104501 0.142971 0.000000 
0.318947 0.163794 0.000000 
0.156906 0.312864 0.000000 
0.259345 0.309854 0.000000 
0.295132 0.128685 0.000000 
0.090682 0.234651 0.000000 
0.150655 0.100146 0.000000 
0.320862 0.227886 0.000000 
0.226499 0.353483 0.000000 
0.339946 0.280644 0.000000 
0.248001 0.059602 0.000000 
0.101224 0.319731 0.000000 
0.072816 0.130723 0.000000 
0.348279 0.146658 0.000000 
0.206174 0.310796 0.000000 
0.121553 0.139955 0.000000 
0.299125 0.146041 0.000000 
0.284967 0.158831 0.000000 
0.284988 0.175157 0.000000 
0.270839 0.150650 0.000000 
0.303397 0.179283 0.000000 
0.270796 0.184679 0.000000 
0.255497 0.158180 0.000000 
0.276470 0.132644 0.000000 
0.271693 0.201919 0.000000 
0.255433 0.175882 0.000000 
0.241015 0.148783 0.000000 
0.287496 0.213894 0.000000 
0.257211 0.211394 0.000000 
0.225568 0.156587 0.000000 
0.238545 0.129110 0.000000 
0.188964 0.316700 0.000000 
0.210547 0.294160 0.000000 
0.127668 0.122818 0.000000 
0.241762 0.203570 0.000000 
0.195842 0.284250 0.000000 
0.228472 0.293629 0.000000 
0.241536 0.309885 0.000000 
0.227257 0.213036 0.000000 
0.240882 0.185299 0.000000 
0.176764 0.290172 0.000000 
0.228203 0.230330 0.000000 
0.211807 0.205208 0.000000 
0.243654 0.238158 0.000000 
0.213699 0.239797 0.000000 
0.197302 0.214674 0.000000 
0.210928 0.185844 0.000000 
0.258157 0.228687 0.000000 
0.214740 0.258251 0.000000 
0.198248 0.231969 0.000000 
0.183744 0.241435 0.000000 
0.182302 0.258569 0.000000 
0.197847 0.267557 0.000000 
0.161761 0.269237 0.000000 
0.168293 0.233607 0.000000 
0.149807 0.243058 0.000000 
0.167347 0.216313 0.000000 
0.144717 0.261553 0.000000 
0.124174 0.271184 0.000000 
0.128473 0.234510 0.000000 
0.151896 0.208485 0.000000 
0.181852 0.206846 0.000000 
0.131508 0.217232 0.000000 
0.150950 0.191190 0.000000 
0.180906 0.189551 0.000000 
0.134030 0.176929 0.000000 
0.165455 0.181723 0.000000 
0.164509 0.164429 0.000000 
0.150725 0.152655 0.000000 
0.155073 0.132105 0.000000 
0.179013 0.154962 0.000000 
0.173376 0.134959 0.000000 
0.194531 0.160721 0.000000 
0.210051 0.149736 0.000000 
0.249803 0.114462 0.000000 
0.145778 0.298959 0.000000 
0.158228 0.284146 0.000000 
0.172015 0.094334 0.000000 
0.288447 0.270045 0.000000 
0.282332 0.287182 0.000000 
0.274952 0.257606 0.000000 
0.257362 0.263104 0.000000 
0.253311 0.280360 0.000000 
0.234805 0.281960 0.000000 
0.228871 0.265250 0.000000 
0.243281 0.254624 0.000000 
0.088440 0.210626 0.000000 
0.309782 0.241830 0.000000 
0.290231 0.234337 0.000000 
0.195477 0.178016 0.000000 
0.234971 0.323296 0.000000 
0.240761 0.343640 0.000000 
0.095965 0.160695 0.000000 
0.134751 0.155688 0.000000 
0.225498 0.175401 0.000000 
0.222369 0.090561 0.000000 
0.174258 0.305986 0.000000 
0.145214 0.118002 0.000000 
0.318836 0.254525 0.000000 
0.341969 0.254320 0.000000 
0.314696 0.146878 0.000000 
0.328958 0.128664 0.000000 
0.108036 0.243232 0.000000 
0.131386 0.304961 0.000000 
0.126439 0.327560 0.000000 
0.264786 0.291998 0.000000 
0.305809 0.211469 0.000000 
0.275374 0.239655 0.000000 
0.267870 0.116610 0.000000 
0.108828 0.261410 0.000000 
0.312983 0.194748 0.000000 
0.221082 0.121546 0.000000 
0.208035 0.134368 0.000000 
0.211597 0.104242 0.000000 
0.186878 0.125350 0.000000 
0.065140 0.146662 0.000000 
0.188393 0.105981 0.000000 
0.119108 0.194050 0.000000 
0.101894 0.187121 0.000000 
0.780743 0.985247 0.000000 
0.676050 0.645842 0.000000 
0.984931 0.823227 0.000000 
0.611575 0.851893 0.000000 
0.890390 0.629779 0.000000 
0.836239 0.978394 0.000000 
0.676050 0.944158 0.000000 
0.780743 0.604753 0.000000 
0.934852 0.924764 0.000000 
0.610966 0.738514 0.000000 
0.966887 0.712223 0.000000 
0.725217 0.973888 0.000000 
0.726321 0.619487 0.000000 
0.966887 0.877777 0.000000 
0.604219 0.795000 0.000000 
0.935489 0.664105 0.000000 
0.637370 0.902470 0.000000 
0.837453 0.609003 0.000000 
0.891487 0.961582 0.000000 
0.636094 0.686334 0.000000 
0.983650 0.766566 0.000000 
0.752547 0.980997 0.000000 
0.698717 0.628834 0.000000 
0.974973 0.850241 0.000000 
0.608605 0.822902 0.000000 
0.913950 0.645842 0.000000 
0.808875 0.986469 0.000000 
0.653699 0.925741 0.000000 
0.809118 0.603011 0.000000 
0.913950 0.944158 0.000000 
0.623113 0.712223 0.000000 
0.979034 0.738514 0.000000 
0.701096 0.958168 0.000000 
0.752547 0.609003 0.000000 
0.953906 0.903666 0.000000 
0.606350 0.766566 0.000000 
0.950400 0.688734 0.000000 
0.623113 0.877777 0.000000 
0.865581 0.615898 0.000000 
0.864700 0.972593 0.000000 
0.655148 0.665236 0.000000 
0.985781 0.795000 0.000000 
0.767877 0.974951 0.000000 
0.770510 0.957479 0.000000 
0.757660 0.947254 0.000000 
0.785803 0.951495 0.000000 
0.743756 0.953921 0.000000 
0.741276 0.970194 0.000000 
0.729198 0.945572 0.000000 
0.717444 0.958204 0.000000 
0.759178 0.930210 0.000000 
0.789376 0.934762 0.000000 
0.797045 0.961925 0.000000 
0.813019 0.958033 0.000000 
0.794618 0.978205 0.000000 
0.820528 0.973569 0.000000 
0.745189 0.920086 0.000000 
0.775601 0.923703 0.000000 
0.804098 0.930641 0.000000 
0.637398 0.885992 0.000000 
0.652699 0.877157 0.000000 
0.652682 0.860735 0.000000 
0.666913 0.885383 0.000000 
0.638744 0.853938 0.000000 
0.624476 0.862146 0.000000 
0.635919 0.836936 0.000000 
0.618714 0.835622 0.000000 
0.666954 0.851296 0.000000 
0.682223 0.877743 0.000000 
0.665512 0.901189 0.000000 
0.677235 0.913824 0.000000 
0.651271 0.909442 0.000000 
0.669771 0.929381 0.000000 
0.666147 0.834046 0.000000 
0.682281 0.860078 0.000000 
0.694812 0.889456 0.000000 
0.693972 0.943309 0.000000 
0.701681 0.924439 0.000000 
0.918780 0.928403 0.000000 
0.906762 0.915451 0.000000 
0.890756 0.919122 0.000000 
0.911619 0.899763 0.000000 
0.887435 0.934639 0.000000 
0.898611 0.946723 0.000000 
0.872509 0.943256 0.000000 
0.875056 0.960323 0.000000 
0.878377 0.907309 0.000000 
0.900764 0.886537 0.000000 
0.927341 0.897612 0.000000 
0.937050 0.883371 0.000000 
0.938556 0.909660 0.000000 
0.953878 0.887187 0.000000 
0.861739 0.911934 0.000000 
0.883529 0.890411 0.000000 
0.909382 0.871658 0.000000 
0.615780 0.808067 0.000000 
0.646539 0.807794 0.000000 
0.671220 0.661597 0.000000 
0.683238 0.674549 0.000000 
0.699244 0.670878 0.000000 
0.678381 0.690237 0.000000 
0.702769 0.655777 0.000000 
0.691593 0.643693 0.000000 
0.718716 0.649239 0.000000 
0.716169 0.632173 0.000000 
0.711623 0.682691 0.000000 
0.689236 0.703463 0.000000 
0.662659 0.692388 0.000000 
0.652950 0.706629 0.000000 
0.651444 0.680340 0.000000 
0.636122 0.702813 0.000000 
0.728261 0.678066 0.000000 
0.706471 0.699589 0.000000 
0.683380 0.719709 0.000000 
0.897515 0.644638 0.000000 
0.887562 0.659237 0.000000 
0.894702 0.674025 0.000000 
0.871187 0.657993 0.000000 
0.910123 0.674051 0.000000 
0.919417 0.660466 0.000000 
0.919616 0.687889 0.000000 
0.935687 0.681608 0.000000 
0.885940 0.688722 0.000000 
0.860707 0.671519 0.000000 
0.865590 0.643144 0.000000 
0.849547 0.636847 0.000000 
0.874841 0.629529 0.000000 
0.849522 0.619592 0.000000 
0.894152 0.703914 0.000000 
0.868320 0.687460 0.000000 
0.843566 0.669425 0.000000 
0.976474 0.781400 0.000000 
0.958855 0.782721 0.000000 
0.951745 0.797524 0.000000 
0.949618 0.769142 0.000000 
0.961340 0.809596 0.000000 
0.977756 0.808393 0.000000 
0.956439 0.825646 0.000000 
0.971370 0.834295 0.000000 
0.934791 0.799836 0.000000 
0.932509 0.769383 0.000000 
0.957738 0.755509 0.000000 
0.952658 0.739040 0.000000 
0.974150 0.754253 0.000000 
0.966133 0.728262 0.000000 
0.928034 0.815728 0.000000 
0.924792 0.785273 0.000000 
0.926250 0.753368 0.000000 
0.950372 0.705213 0.000000 
0.935239 0.718869 0.000000 
0.742380 0.623181 0.000000 
0.750905 0.654262 0.000000 
0.821984 0.613307 0.000000 
0.814475 0.628843 0.000000 
0.613526 0.781400 0.000000 
0.629705 0.783843 0.000000 
0.638942 0.770264 0.000000 
0.631960 0.800545 0.000000 
0.632262 0.755509 0.000000 
0.615850 0.754253 0.000000 
0.637342 0.739040 0.000000 
0.623867 0.728262 0.000000 
0.656051 0.770505 0.000000 
0.667169 0.753372 0.000000 
0.661393 0.791332 0.000000 
0.767877 0.615049 0.000000 
0.770510 0.632521 0.000000 
0.785803 0.638505 0.000000 
0.754728 0.638435 0.000000 
0.797288 0.627555 0.000000 
0.794861 0.611274 0.000000 
0.820753 0.645665 0.000000 
0.787813 0.656958 0.000000 
0.805576 0.662831 0.000000 
0.768696 0.666801 0.000000 
0.962072 0.860493 0.000000 
0.941959 0.857176 0.000000 
0.847427 0.966295 0.000000 
0.844466 0.943134 0.000000 
0.729113 0.928780 0.000000 
0.859192 0.932365 0.000000 
0.912407 0.703055 0.000000 
0.649049 0.826483 0.000000 
0.731829 0.659714 0.000000 
0.940087 0.829466 0.000000 
0.807534 0.913677 0.000000 
0.898261 0.858396 0.000000 
0.833111 0.683218 0.000000 
0.710216 0.881566 0.000000 
0.694501 0.732971 0.000000 
0.908947 0.753794 0.000000 
0.746906 0.902864 0.000000 
0.849345 0.899854 0.000000 
0.885132 0.718685 0.000000 
0.680682 0.824651 0.000000 
0.740655 0.690146 0.000000 
0.910862 0.817886 0.000000 
0.816499 0.943483 0.000000 
0.929946 0.870644 0.000000 
0.838001 0.649602 0.000000 
0.691224 0.909731 0.000000 
0.662816 0.720723 0.000000 
0.938279 0.736658 0.000000 
0.796174 0.900796 0.000000 
0.711553 0.729955 0.000000 
0.889125 0.736041 0.000000 
0.874967 0.748831 0.000000 
0.874988 0.765157 0.000000 
0.860839 0.740650 0.000000 
0.893397 0.769283 0.000000 
0.860796 0.774679 0.000000 
0.845497 0.748180 0.000000 
0.866470 0.722644 0.000000 
0.861693 0.791919 0.000000 
0.845433 0.765882 0.000000 
0.831015 0.738783 0.000000 
0.877496 0.803894 0.000000 
0.847211 0.801394 0.000000 
0.815568 0.746587 0.000000 
0.828545 0.719110 0.000000 
0.778964 0.906700 0.000000 
0.800547 0.884160 0.000000 
0.717668 0.712818 0.000000 
0.831762 0.793570 0.000000 
0.785842 0.874250 0.000000 
0.818472 0.883629 0.000000 
0.831536 0.899885 0.000000 
0.817257 0.803036 0.000000 
0.830882 0.775299 0.000000 
0.766764 0.880172 0.000000 
0.818203 0.820330 0.000000 
0.801807 0.795208 0.000000 
0.833654 0.828158 0.000000 
0.803699 0.829797 0.000000 
0.787302 0.804674 0.000000 
0.800928 0.775844 0.000000 
0.848157 0.818687 0.000000 
0.804740 0.848251 0.000000 
0.788248 0.821969 0.000000 
0.773744 0.831435 0.000000 
0.772302 0.848569 0.000000 
0.787847 0.857557 0.000000 
0.751761 0.859237 0.000000 
0.758293 0.823607 0.000000 
0.739807 0.833058 0.000000 
0.757347 0.806313 0.000000 
0.734717 0.851553 0.000000 
0.714174 0.861184 0.000000 
0.718473 0.824510 0.000000 
0.741896 0.798485 0.000000 
0.771852 0.796846 0.000000 
0.721508 0.807232 0.000000 
0.740950 0.781190 0.000000 
0.770906 0.779551 0.000000 
0.724030 0.766929 0.000000 
0.755455 0.771723 0.000000 
0.754509 0.754429 0.000000 
0.740725 0.742655 0.000000 
0.745073 0.722105 0.000000 
0.769013 0.744962 0.000000 
0.763376 0.724959 0.000000 
0.784531 0.750721 0.000000 
0.800051 0.739736 0.000000 
0.839803 0.704462 0.000000 
0.735778 0.888959 0.000000 
0.748228 0.874146 0.000000 
0.762015 0.684334 0.000000 
0.878447 0.860045 0.000000 
0.872332 0.877182 0.000000 
0.864952 0.847606 0.000000 
0.847362 0.853104 0.000000 
0.843311 0.870360 0.000000 
0.824805 0.871960 0.000000 
0.818871 0.855250 0.000000 
0.833281 0.844624 0.000000 
0.678440 0.800626 0.000000 
0.899782 0.831830 0.000000 
0.880231 0.824337 0.000000 
0.785477 0.768016 0.000000 
0.824971 0.913296 0.000000 
0.830761 0.933640 0.000000 
0.685965 0.750695 0.000000 
0.724751 0.745688 0.000000 
0.815498 0.765401 0.000000 
0.812369 0.680561 0.000000 
0.764258 0.895986 0.000000 
0.735214 0.708002 0.000000 
0.908836 0.844525 0.000000 
0.931969 0.844320 0.000000 
0.904696 0.736878 0.000000 
0.918958 0.718664 0.000000 
0.698036 0.833232 0.000000 
0.721386 0.894961 0.000000 
0.716439 0.917560 0.000000 
0.854786 0.881998 0.000000 
0.895809 0.801469 0.000000 
0.865374 0.829655 0.000000 
0.857870 0.706610 0.000000 
0.698828 0.851410 0.000000 
0.902983 0.784748 0.000000 
0.811082 0.711546 0.000000 
0.798035 0.724368 0.000000 
0.801597 0.694242 0.000000 
0.776878 0.715350 0.000000 
0.655140 0.736662 0.000000 
0.778393 0.695981 0.000000 
0.709108 0.784050 0.000000 
0.691894 0.777121 0.000000 
VECTORS X_EC float 
-0.904941 0.814859 0.000000 
-0.116836 0.721006 0.000000 
0.335455 0.898624 0.000000 
-0.237864 -0.568498 0.000000 
0.204415 -0.992195 0.000000 
-0.767875 -0.075221 0.000000 
-0.083164 0.721006 0.000000 
0.704941 0.814859 0.000000 
0.304726 -0.102960 0.000000 
0.029711 -0.580687 0.000000 
0.555531 0.537746 0.000000 
-0.677762 -0.295664 0.000000 
0.410264 -0.273583 0.000000 
-0.755531 0.537746 0.000000 
0.900000 -0.715610 0.000000 
-0.482104 -0.090218 0.000000 
0.750590 -0.052605 0.000000 
0.619945 -0.050947 0.000000 
-0.431640 -0.970264 0.000000 
-0.926686 -0.078115 0.000000 
-0.531313 0.872993 0.000000 
-0.819945 0.250947 0.000000 
0.223323 -0.825653 0.000000 
-0.204818 0.699455 0.000000 
0.341963 -0.627905 0.000000 
-0.116836 -0.521006 0.000000 
-0.929375 -0.622498 0.000000 
0.285175 0.273979 0.000000 
0.739789 -0.617643 0.000000 
-0.083164 -0.521006 0.000000 
0.555531 -0.337746 0.000000 
0.029711 0.780687 0.000000 
-0.363364 -0.778072 0.000000 
0.619945 0.250947 0.000000 
0.726686 0.278115 0.000000 
-0.531313 -0.672993 0.000000 
-0.974676 0.208005 0.000000 
-0.755531 -0.337746 0.000000 
0.482041 0.511627 0.000000 
-0.651851 0.493999 0.000000 
-0.504726 0.302960 0.000000 
0.900000 0.915610 0.000000 
-0.699014 0.557536 0.000000 
-0.349589 0.610203 0.000000 
-0.145071 0.353202 0.000000 
-0.229909 0.916069 0.000000 
-0.278428 0.075113 0.000000 
-0.603876 0.025524 0.000000 
-0.111441 -0.216031 0.000000 
-0.364085 -0.451124 0.000000 
0.195794 0.383569 0.000000 
0.104762 0.987523 0.000000 
-0.438494 -0.859096 0.000000 
-0.360665 -0.539629 0.000000 
-0.764101 -0.907638 0.000000 
-0.671379 -0.389448 0.000000 
0.398274 0.103770 0.000000 
0.325947 0.712024 0.000000 
0.187186 -0.718034 0.000000 
-0.919833 -0.052043 0.000000 
-0.743147 0.253986 0.000000 
-0.414701 0.253647 0.000000 
-0.907664 0.538259 0.000000 
-0.278768 -0.025111 0.000000 
-0.442912 -0.310475 0.000000 
0.061273 -0.081627 0.000000 
0.087556 -0.425729 0.000000 
-0.225917 0.539079 0.000000 
-0.754865 0.844467 0.000000 
0.776214 0.510248 0.000000 
0.523528 0.744707 0.000000 
0.611154 0.225413 0.000000 
0.212385 0.595417 0.000000 
0.119083 0.522932 0.000000 
-0.401564 0.845625 0.000000 
-0.989125 -0.903768 0.000000 
-0.066182 -0.920564 0.000000 
0.311228 -0.766377 0.000000 
0.231936 -0.424398 0.000000 
0.490976 -0.664752 0.000000 
0.417560 -0.984888 0.000000 
0.804730 -0.567617 0.000000 
0.107225 0.948699 0.000000 
-0.134458 -0.827772 0.000000 
-0.065127 0.650176 0.000000 
-0.406451 0.701123 0.000000 
0.653827 0.767546 0.000000 
-0.930740 -0.784723 0.000000 
0.847766 -0.253188 0.000000 
-0.867426 -0.059009 0.000000 
0.606801 -0.028884 0.000000 
-0.943737 0.277553 0.000000 