# vtk DataFile Version 3.0 
vtk output 
ASCII 
DATASET UNSTRUCTURED_GRID 
POINTS 616 float 
0.254024 0.458450 0.000000 
0.149249 0.119076 0.000000 
0.458095 0.296464 0.000000 
0.084816 0.325173 0.000000 
0.363567 0.102941 0.000000 
0.309525 0.451554 0.000000 
0.149301 0.417436 0.000000 
0.253902 0.077917 0.000000 
0.408000 0.397825 0.000000 
0.084141 0.211805 0.000000 
0.440086 0.185355 0.000000 
0.198464 0.447132 0.000000 
0.199509 0.092666 0.000000 
0.440019 0.350955 0.000000 
0.077446 0.268293 0.000000 
0.408687 0.137244 0.000000 
0.110634 0.375761 0.000000 
0.310616 0.082177 0.000000 
0.364723 0.434671 0.000000 
0.109281 0.159610 0.000000 
0.456843 0.239754 0.000000 
0.225811 0.454220 0.000000 
0.171921 0.102039 0.000000 
0.448124 0.323450 0.000000 
0.081860 0.296189 0.000000 
0.387140 0.118995 0.000000 
0.282169 0.459649 0.000000 
0.126953 0.399030 0.000000 
0.282282 0.076169 0.000000 
0.387137 0.417194 0.000000 
0.096290 0.185506 0.000000 
0.452233 0.211670 0.000000 
0.174346 0.431432 0.000000 
0.225722 0.082188 0.000000 
0.427056 0.376796 0.000000 
0.079548 0.239855 0.000000 
0.423599 0.161865 0.000000 
0.096374 0.351059 0.000000 
0.338756 0.089077 0.000000 
0.337973 0.445721 0.000000 
0.128341 0.138493 0.000000 
0.458971 0.268223 0.000000 
0.241142 0.448167 0.000000 
0.243762 0.430704 0.000000 
0.230901 0.420493 0.000000 
0.259052 0.424713 0.000000 
0.216998 0.427166 0.000000 
0.214528 0.443430 0.000000 
0.202434 0.418832 0.000000 
0.190687 0.431460 0.000000 
0.232406 0.403459 0.000000 
0.262607 0.407985 0.000000 
0.270306 0.435129 0.000000 
0.286275 0.431224 0.000000 
0.267898 0.451403 0.000000 
0.293806 0.446745 0.000000 
0.218415 0.393346 0.000000 
0.248823 0.396942 0.000000 
0.277321 0.403852 0.000000 
0.110659 0.359277 0.000000 
0.125949 0.350437 0.000000 
0.125926 0.334009 0.000000 
0.140159 0.358662 0.000000 
0.111991 0.327213 0.000000 
0.097732 0.335425 0.000000 
0.109159 0.310206 0.000000 
0.091960 0.308897 0.000000 
0.140188 0.324564 0.000000 
0.155459 0.351017 0.000000 
0.138760 0.374472 0.000000 
0.150478 0.387106 0.000000 
0.124531 0.382732 0.000000 
0.143020 0.402666 0.000000 
0.139375 0.307309 0.000000 
0.155512 0.333347 0.000000 
0.168045 0.362731 0.000000 
0.167219 0.416584 0.000000 
0.174916 0.397718 0.000000 
0.391914 0.401446 0.000000 
0.379876 0.388512 0.000000 
0.363877 0.392216 0.000000 
0.384725 0.372842 0.000000 
0.360592 0.407738 0.000000 
0.371803 0.419793 0.000000 
0.345703 0.416376 0.000000 
0.348294 0.433439 0.000000 
0.351504 0.380420 0.000000 
0.373881 0.359644 0.000000 
0.400449 0.370691 0.000000 
0.410165 0.356488 0.000000 
0.411691 0.382746 0.000000 
0.426997 0.360334 0.000000 
0.334891 0.385069 0.000000 
0.356662 0.363530 0.000000 
0.382508 0.344764 0.000000 
0.089013 0.281347 0.000000 
0.119764 0.281060 0.000000 
0.144416 0.134838 0.000000 
0.156433 0.147780 0.000000 
0.172442 0.144092 0.000000 
0.151573 0.163475 0.000000 
0.175969 0.128990 0.000000 
0.164795 0.116909 0.000000 
0.191912 0.122434 0.000000 
0.189366 0.105368 0.000000 
0.184819 0.155900 0.000000 
0.162433 0.176693 0.000000 
0.135851 0.165639 0.000000 
0.126137 0.179889 0.000000 
0.124634 0.153602 0.000000 
0.109309 0.176088 0.000000 
0.201458 0.151264 0.000000 
0.179667 0.172805 0.000000 
0.156571 0.192947 0.000000 
0.370703 0.117801 0.000000 
0.360757 0.132396 0.000000 
0.367910 0.147184 0.000000 
0.344377 0.131151 0.000000 
0.383333 0.147207 0.000000 
0.392618 0.133622 0.000000 
0.392834 0.161044 0.000000 
0.408896 0.154750 0.000000 
0.359153 0.161876 0.000000 
0.333903 0.144675 0.000000 
0.338770 0.116303 0.000000 
0.322718 0.110006 0.000000 
0.348014 0.102691 0.000000 
0.322687 0.092760 0.000000 
0.367376 0.177065 0.000000 
0.341528 0.160614 0.000000 
0.316755 0.142580 0.000000 
0.449669 0.254600 0.000000 
0.432055 0.255906 0.000000 
0.424942 0.270710 0.000000 
0.422825 0.242312 0.000000 
0.434525 0.282796 0.000000 
0.450939 0.281611 0.000000 
0.429607 0.298844 0.000000 
0.444531 0.307508 0.000000 
0.407990 0.273004 0.000000 
0.405723 0.242541 0.000000 
0.430945 0.228674 0.000000 
0.425873 0.212193 0.000000 
0.447350 0.227423 0.000000 
0.439342 0.201407 0.000000 
0.401218 0.288887 0.000000 
0.398002 0.258429 0.000000 
0.399474 0.226520 0.000000 
0.423582 0.178348 0.000000 
0.408464 0.192015 0.000000 
0.215566 0.096360 0.000000 
0.224095 0.127444 0.000000 
0.295144 0.086468 0.000000 
0.287640 0.102000 0.000000 
0.086737 0.254683 0.000000 
0.102919 0.257113 0.000000 
0.112147 0.243532 0.000000 
0.105184 0.273812 0.000000 
0.105458 0.228781 0.000000 
0.089040 0.227536 0.000000 
0.110529 0.212310 0.000000 
0.097042 0.201541 0.000000 
0.129257 0.243765 0.000000 
0.140368 0.226626 0.000000 
0.134608 0.264591 0.000000 
0.241048 0.088220 0.000000 
0.243691 0.105692 0.000000 
0.258981 0.111672 0.000000 
0.227915 0.111613 0.000000 
0.270459 0.100719 0.000000 
0.268025 0.084441 0.000000 
0.293928 0.118822 0.000000 
0.260996 0.130127 0.000000 
0.278758 0.135992 0.000000 
0.241886 0.139979 0.000000 
0.435214 0.333675 0.000000 
0.415100 0.330326 0.000000 
0.320688 0.439444 0.000000 
0.317681 0.416291 0.000000 
0.202342 0.402052 0.000000 
0.332370 0.405504 0.000000 
0.385635 0.176204 0.000000 
0.122281 0.299747 0.000000 
0.205025 0.132905 0.000000 
0.413253 0.302638 0.000000 
0.280745 0.386887 0.000000 
0.371404 0.331520 0.000000 
0.306305 0.156372 0.000000 
0.183439 0.354834 0.000000 
0.167699 0.206206 0.000000 
0.382172 0.226945 0.000000 
0.220124 0.376117 0.000000 
0.322509 0.373006 0.000000 
0.358357 0.191833 0.000000 
0.153903 0.297909 0.000000 
0.213851 0.163342 0.000000 
0.384045 0.291036 0.000000 
0.289732 0.416674 0.000000 
0.403072 0.343760 0.000000 
0.311177 0.122758 0.000000 
0.164464 0.383011 0.000000 
0.136001 0.193976 0.000000 
0.411503 0.209808 0.000000 
0.269387 0.374015 0.000000 
0.184756 0.203177 0.000000 
0.362353 0.209190 0.000000 
0.348185 0.221979 0.000000 
0.348198 0.238305 0.000000 
0.334058 0.213800 0.000000 
0.366609 0.242427 0.000000 
0.333998 0.247827 0.000000 
0.318709 0.221331 0.000000 
0.339695 0.195794 0.000000 
0.334887 0.265067 0.000000 
0.318637 0.239033 0.000000 
0.304228 0.211935 0.000000 
0.350688 0.277041 0.000000 
0.320398 0.274545 0.000000 
0.288774 0.219748 0.000000 
0.301755 0.192261 0.000000 
0.252180 0.379933 0.000000 
0.273750 0.357366 0.000000 
0.190872 0.186031 0.000000 
0.304949 0.266722 0.000000 
0.259045 0.347466 0.000000 
0.291661 0.356816 0.000000 
0.304719 0.373059 0.000000 
0.290441 0.276198 0.000000 
0.304077 0.248451 0.000000 
0.239972 0.353405 0.000000 
0.291379 0.293494 0.000000 
0.274991 0.268379 0.000000 
0.306825 0.301314 0.000000 
0.276878 0.302978 0.000000 
0.260487 0.277862 0.000000 
0.274120 0.249017 0.000000 
0.321334 0.291840 0.000000 
0.277925 0.321439 0.000000 
0.261429 0.295159 0.000000 
0.246933 0.304644 0.000000 
0.245498 0.321785 0.000000 
0.261043 0.330765 0.000000 
0.224967 0.332474 0.000000 
0.231485 0.296825 0.000000 
0.213009 0.306296 0.000000 
0.230541 0.279527 0.000000 
0.207925 0.324802 0.000000 
0.187391 0.334445 0.000000 
0.191677 0.297757 0.000000 
0.215097 0.271710 0.000000 
0.245042 0.270043 0.000000 
0.194712 0.280474 0.000000 
0.214151 0.254411 0.000000 
0.244101 0.252748 0.000000 
0.197235 0.240157 0.000000 
0.228654 0.244930 0.000000 
0.227711 0.227632 0.000000 
0.213929 0.215865 0.000000 
0.218276 0.195305 0.000000 
0.242217 0.218153 0.000000 
0.236583 0.198149 0.000000 
0.257733 0.223903 0.000000 
0.273257 0.212907 0.000000 
0.313012 0.177615 0.000000 
0.208996 0.362219 0.000000 
0.221439 0.347391 0.000000 
0.235210 0.157518 0.000000 
0.351599 0.333181 0.000000 
0.345480 0.350316 0.000000 
0.338115 0.320752 0.000000 
0.320530 0.326259 0.000000 
0.316480 0.343518 0.000000 
0.297987 0.345133 0.000000 
0.292052 0.328426 0.000000 
0.306454 0.317784 0.000000 
0.151657 0.273883 0.000000 
0.372949 0.304974 0.000000 
0.353403 0.297485 0.000000 
0.258674 0.241199 0.000000 
0.298167 0.386482 0.000000 
0.303970 0.406818 0.000000 
0.159166 0.223938 0.000000 
0.197955 0.218909 0.000000 
0.288696 0.238562 0.000000 
0.285560 0.153721 0.000000 
0.237475 0.369228 0.000000 
0.208413 0.181204 0.000000 
0.381989 0.317655 0.000000 
0.405120 0.317465 0.000000 
0.377925 0.210025 0.000000 
0.392189 0.191811 0.000000 
0.171254 0.306489 0.000000 
0.194610 0.368230 0.000000 
0.189668 0.390828 0.000000 
0.327946 0.355147 0.000000 
0.369008 0.274614 0.000000 
0.338544 0.302805 0.000000 
0.331083 0.179762 0.000000 
0.172050 0.324671 0.000000 
0.376189 0.257892 0.000000 
0.284287 0.184704 0.000000 
0.271243 0.197537 0.000000 
0.274796 0.167409 0.000000 
0.250083 0.188532 0.000000 
0.128330 0.209921 0.000000 
0.251590 0.169158 0.000000 
0.182315 0.257289 0.000000 
0.165102 0.250369 0.000000 
0.717591 0.922086 0.000000 
0.612820 0.582761 0.000000 
0.921745 0.759932 0.000000 
0.548365 0.788694 0.000000 
0.827147 0.566544 0.000000 
0.773078 0.915215 0.000000 
0.612870 0.880987 0.000000 
0.717457 0.541625 0.000000 
0.871673 0.861497 0.000000 
0.547814 0.675298 0.000000 
0.903639 0.648953 0.000000 
0.662056 0.910719 0.000000 
0.663060 0.556369 0.000000 
0.903721 0.814470 0.000000 
0.541041 0.731754 0.000000 
0.872230 0.600849 0.000000 
0.574179 0.839310 0.000000 
0.774189 0.545808 0.000000 
0.828301 0.898362 0.000000 
0.572881 0.623186 0.000000 
0.920419 0.703268 0.000000 
0.689391 0.917826 0.000000 
0.635476 0.565725 0.000000 
0.911801 0.786938 0.000000 
0.545410 0.759680 0.000000 
0.850702 0.582595 0.000000 
0.745725 0.923309 0.000000 
0.590517 0.862575 0.000000 
0.745841 0.539841 0.000000 
0.850768 0.880915 0.000000 
0.559954 0.649041 0.000000 
0.915804 0.675233 0.000000 
0.637922 0.894998 0.000000 
0.689264 0.545884 0.000000 
0.890731 0.840375 0.000000 
0.543207 0.703322 0.000000 
0.887145 0.625471 0.000000 
0.559911 0.814606 0.000000 
0.802332 0.552673 0.000000 
0.801528 0.909398 0.000000 
0.591923 0.602129 0.000000 
0.922569 0.731701 0.000000 
0.704730 0.911800 0.000000 
0.707354 0.894331 0.000000 
0.694494 0.884104 0.000000 
[...]
POINT_DATA 616 
VECTORS X_GC float 
0.254024 0.458450 0.000000 
0.149249 0.119076 0.000000 
0.458095 0.296464 0.000000 
0.084816 0.325173 0.000000 
0.363567 0.102941 0.000000 
0.309525 0.451554 0.000000 
0.149301 0.417436 0.000000 
0.253902 0.077917 0.000000 
0.408000 0.397825 0.000000 
0.084141 0.211805 0.000000 
0.440086 0.185355 0.000000 
0.198464 0.447132 0.000000 
0.199509 0.092666 0.000000 
0.440019 0.350955 0.000000 
0.077446 0.268293 0.000000 
0.408687 0.137244 0.000000 
0.110634 0.375761 0.000000 
0.310616 0.082177 0.000000 
0.364723 0.434671 0.000000 
0.109281 0.159610 0.000000 
0.456843 0.239754 0.000000 
0.225811 0.454220 0.000000 
0.171921 0.102039 0.000000 
0.448124 0.323450 0.000000 
0.081860 0.296189 0.000000 
0.387140 0.118995 0.000000 
0.282169 0.459649 0.000000 
0.126953 0.399030 0.000000 
0.282282 0.076169 0.000000 
0.387137 0.417194 0.000000 
0.096290 0.185506 0.000000 
0.452233 0.211670 0.000000 
0.174346 0.431432 0.000000 
0.225722 0.082188 0.000000 
0.427056 0.376796 0.000000 
0.079548 0.239855 0.000000 
0.423599 0.161865 0.000000 
0.096374 0.351059 0.000000 
0.338756 0.089077 0.000000 
0.337973 0.445721 0.000000 
0.128341 0.138493 0.000000 
0.458971 0.268223 0.000000 
0.241142 0.448167 0.000000 
0.243762 0.430704 0.000000 
0.230901 0.420493 0.000000 
0.259052 0.424713 0.000000 
0.216998 0.427166 0.000000 
0.214528 0.443430 0.000000 
0.202434 0.418832 0.000000 
0.190687 0.431460 0.000000 
0.232406 0.403459 0.000000 
0.262607 0.407985 0.000000 
0.270306 0.435129 0.000000 
0.286275 0.431224 0.000000 
0.267898 0.451403 0.000000 
0.293806 0.446745 0.000000 
0.218415 0.393346 0.000000 
0.248823 0.396942 0.000000 
0.277321 0.403852 0.000000 
0.110659 0.359277 0.000000 
0.125949 0.350437 0.000000 
0.125926 0.334009 0.000000 
0.140159 0.358662 0.000000 
0.111991 0.327213 0.000000 
0.097732 0.335425 0.000000 
0.109159 0.310206 0.000000 
0.091960 0.308897 0.000000 
0.140188 0.324564 0.000000 
0.155459 0.351017 0.000000 
0.138760 0.374472 0.000000 
0.150478 0.387106 0.000000 
0.124531 0.382732 0.000000 
0.143020 0.402666 0.000000 
0.139375 0.307309 0.000000 
0.155512 0.333347 0.000000 
0.168045 0.362731 0.000000 
0.167219 0.416584 0.000000 
0.174916 0.397718 0.000000 
0.391914 0.401446 0.000000 
0.379876 0.388512 0.000000 
0.363877 0.392216 0.000000 
0.384725 0.372842 0.000000 
0.360592 0.407738 0.000000 
0.371803 0.419793 0.000000 
0.345703 0.416376 0.000000 
0.348294 0.433439 0.000000 
0.351504 0.380420 0.000000 
0.373881 0.359644 0.000000 
0.400449 0.370691 0.000000 
0.410165 0.356488 0.000000 
0.411691 0.382746 0.000000 
0.426997 0.360334 0.000000 
0.334891 0.385069 0.000000 
0.356662 0.363530 0.000000 
0.382508 0.344764 0.000000 
0.089013 0.281347 0.000000 
0.119764 0.281060 0.000000 
0.144416 0.134838 0.000000 
0.156433 0.147780 0.000000 
0.172442 0.144092 0.000000 
0.151573 0.163475 0.000000 
0.175969 0.128990 0.000000 
0.164795 0.116909 0.000000 
0.191912 0.122434 0.000000 
0.189366 0.105368 0.000000 
0.184819 0.155900 0.000000 
0.162433 0.176693 0.000000 
0.135851 0.165639 0.000000 
0.126137 0.179889 0.000000 
0.124634 0.153602 0.000000 
0.109309 0.176088 0.000000 
0.201458 0.151264 0.000000 
0.179667 0.172805 0.000000 
0.156571 0.192947 0.000000 
0.370703 0.117801 0.000000 
0.360757 0.132396 0.000000 
0.367910 0.147184 0.000000 
0.344377 0.131151 0.000000 
0.383333 0.147207 0.000000 
0.392618 0.133622 0.000000 
0.392834 0.161044 0.000000 
0.408896 0.154750 0.000000 
0.359153 0.161876 0.000000 
0.333903 0.144675 0.000000 
0.338770 0.116303 0.000000 
0.322718 0.110006 0.000000 
0.348014 0.102691 0.000000 
0.322687 0.092760 0.000000 
0.367376 0.177065 0.000000 
0.341528 0.160614 0.000000 
0.316755 0.142580 0.000000 
0.449669 0.254600 0.000000 
0.432055 0.255906 0.000000 
0.424942 0.270710 0.000000 
0.422825 0.242312 0.000000 
0.434525 0.282796 0.000000 
0.450939 0.281611 0.000000 
0.429607 0.298844 0.000000 
0.444531 0.307508 0.000000 
0.407990 0.273004 0.000000 
0.405723 0.242541 0.000000 
0.430945 0.228674 0.000000 
0.425873 0.212193 0.000000 
0.447350 0.227423 0.000000 
0.439342 0.201407 0.000000 
0.401218 0.288887 0.000000 
0.398002 0.258429 0.000000 
0.399474 0.226520 0.000000 
0.423582 0.178348 0.000000 
0.408464 0.192015 0.000000 
0.215566 0.096360 0.000000 
0.224095 0.127444 0.000000 
0.295144 0.086468 0.000000 
0.287640 0.102000 0.000000 
0.086737 0.254683 0.000000 
0.102919 0.257113 0.000000 
0.112147 0.243532 0.000000 
0.105184 0.273812 0.000000 
0.105458 0.228781 0.000000 
0.089040 0.227536 0.000000 
0.110529 0.212310 0.000000 
0.097042 0.201541 0.000000 
0.129257 0.243765 0.000000 
0.140368 0.226626 0.000000 
0.134608 0.264591 0.000000 
0.241048 0.088220 0.000000 
0.243691 0.105692 0.000000 
0.258981 0.111672 0.000000 
0.227915 0.111613 0.000000 
0.270459 0.100719 0.000000 
0.268025 0.084441 0.000000 
0.293928 0.118822 0.000000 
0.260996 0.130127 0.000000 
0.278758 0.135992 0.000000 
0.241886 0.139979 0.000000 
0.435214 0.333675 0.000000 
0.415100 0.330326 0.000000 
0.320688 0.439444 0.000000 
0.317681 0.416291 0.000000 
0.202342 0.402052 0.000000 
0.332370 0.405504 0.000000 
0.385635 0.176204 0.000000 
0.122281 0.299747 0.000000 
0.205025 0.132905 0.000000 
0.413253 0.302638 0.000000 
0.280745 0.386887 0.000000 
0.371404 0.331520 0.000000 
0.306305 0.156372 0.000000 
0.183439 0.354834 0.000000 
0.167699 0.206206 0.000000 
0.382172 0.226945 0.000000 
0.220124 0.376117 0.000000 
0.322509 0.373006 0.000000 
0.358357 0.191833 0.000000 
0.153903 0.297909 0.000000 
0.213851 0.163342 0.000000 
0.384045 0.291036 0.000000 
0.289732 0.416674 0.000000 
0.403072 0.343760 0.000000 
0.311177 0.122758 0.000000 
0.164464 0.383011 0.000000 
0.136001 0.193976 0.000000 
0.411503 0.209808 0.000000 
0.269387 0.374015 0.000000 
0.184756 0.203177 0.000000 
0.362353 0.209190 0.000000 
0.348185 0.221979 0.000000 
0.348198 0.238305 0.000000 
0.334058 0.213800 0.000000 
0.366609 0.242427 0.000000 
0.333998 0.247827 0.000000 
0.318709 0.221331 0.000000 
0.339695 0.195794 0.000000 
0.334887 0.265067 0.000000 
0.318637 0.239033 0.000000 
0.304228 0.211935 0.000000 
0.350688 0.277041 0.000000 
0.320398 0.274545 0.000000 
0.288774 0.219748 0.000000 
0.301755 0.192261 0.000000 
0.252180 0.379933 0.000000 
0.273750 0.357366 0.000000 
0.190872 0.186031 0.000000 
0.304949 0.266722 0.000000 
0.259045 0.347466 0.000000 
0.291661 0.356816 0.000000 
0.304719 0.373059 0.000000 
0.290441 0.276198 0.000000 
0.304077 0.248451 0.000000 
0.239972 0.353405 0.000000 
0.291379 0.293494 0.000000 
0.274991 0.268379 0.000000 
0.306825 0.301314 0.000000 
0.276878 0.302978 0.000000 
0.260487 0.277862 0.000000 
0.274120 0.249017 0.000000 
0.321334 0.291840 0.000000 
0.277925 0.321439 0.000000 
0.261429 0.295159 0.000000 
0.246933 0.304644 0.000000 
0.245498 0.321785 0.000000 
0.261043 0.330765 0.000000 
0.224967 0.332474 0.000000 
0.231485 0.296825 0.000000 
0.213009 0.306296 0.000000 
0.230541 0.279527 0.000000 
0.207925 0.324802 0.000000 
0.187391 0.334445 0.000000 
0.191677 0.297757 0.000000 
0.215097 0.271710 0.000000 
0.245042 0.270043 0.000000 
0.194712 0.280474 0.000000 
0.214151 0.254411 0.000000 
0.244101 0.252748 0.000000 
0.197235 0.240157 0.000000 
0.228654 0.244930 0.000000 
0.227711 0.227632 0.000000 
0.213929 0.215865 0.000000 
0.218276 0.195305 0.000000 
0.242217 0.218153 0.000000 
0.236583 0.198149 0.000000 
0.257733 0.223903 0.000000 
0.273257 0.212907 0.000000 
0.313012 0.177615 0.000000 
0.208996 0.362219 0.000000 
0.221439 0.347391 0.000000 
0.235210 0.157518 0.000000 
0.351599 0.333181 0.000000 
0.345480 0.350316 0.000000 
0.338115 0.320752 0.000000 
0.320530 0.326259 0.000000 
0.316480 0.343518 0.000000 
0.297987 0.345133 0.000000 
0.292052 0.328426 0.000000 
0.306454 0.317784 0.000000 
0.151657 0.273883 0.000000 
0.372949 0.304974 0.000000 
0.353403 0.297485 0.000000 
0.258674 0.241199 0.000000 
0.298167 0.386482 0.000000 
0.303970 0.406818 0.000000 
0.159166 0.223938 0.000000 
0.197955 0.218909 0.000000 
0.288696 0.238562 0.000000 
0.285560 0.153721 0.000000 
0.237475 0.369228 0.000000 
0.208413 0.181204 0.000000 
0.381989 0.317655 0.000000 
0.405120 0.317465 0.000000 
0.377925 0.210025 0.000000 
0.392189 0.191811 0.000000 
0.171254 0.306489 0.000000 
0.194610 0.368230 0.000000 
0.189668 0.390828 0.000000 
0.327946 0.355147 0.000000 
0.369008 0.274614 0.000000 
0.338544 0.302805 0.000000 
0.331083 0.179762 0.000000 
0.172050 0.324671 0.000000 
0.376189 0.257892 0.000000 
0.284287 0.184704 0.000000 
0.271243 0.197537 0.000000 
0.274796 0.167409 0.000000 
0.250083 0.188532 0.000000 
0.128330 0.209921 0.000000 
0.251590 0.169158 0.000000 
0.182315 0.257289 0.000000 
0.165102 0.250369 0.000000 
0.717591 0.922086 0.000000 
0.612820 0.582761 0.000000 
0.921745 0.759932 0.000000 
0.548365 0.788694 0.000000 
0.827147 0.566544 0.000000 
0.773078 0.915215 0.000000 
0.612870 0.880987 0.000000 
0.717457 0.541625 0.000000 
0.871673 0.861497 0.000000 
0.547814 0.675298 0.000000 
0.903639 0.648953 0.000000 
0.662056 0.910719 0.000000 
0.663060 0.556369 0.000000 
0.903721 0.814470 0.000000 
0.541041 0.731754 0.000000 
0.872230 0.600849 0.000000 
0.574179 0.839310 0.000000 
0.774189 0.545808 0.000000 
0.828301 0.898362 0.000000 
0.572881 0.623186 0.000000 
0.920419 0.703268 0.000000 
0.689391 0.917826 0.000000 
0.635476 0.565725 0.000000 
0.911801 0.786938 0.000000 
0.545410 0.759680 0.000000 
0.850702 0.582595 0.000000 
0.745725 0.923309 0.000000 
0.590517 0.862575 0.000000 
0.745841 0.539841 0.000000 
0.850768 0.880915 0.000000 
0.559954 0.649041 0.000000 
0.915804 0.675233 0.000000 
0.637922 0.894998 0.000000 
0.689264 0.545884 0.000000 
0.890731 0.840375 0.000000 
0.543207 0.703322 0.000000 
0.887145 0.625471 0.000000 
0.559911 0.814606 0.000000 
0.802332 0.552673 0.000000 
0.801528 0.909398 0.000000 
0.591923 0.602129 0.000000 
0.922569 0.731701 0.000000 
0.704730 0.911800 0.000000 
0.707354 0.894331 0.000000 
0.694494 0.884104 0.000000 
0.722643 0.888339 0.000000 
0.680591 0.890767 0.000000 
0.678121 0.907034 0.000000 
0.666023 0.882411 0.000000 
0.654274 0.895039 0.000000 
0.695998 0.867059 0.000000 
0.726201 0.871600 0.000000 
0.733891 0.898764 0.000000 
0.749856 0.894862 0.000000 
0.731467 0.915040 0.000000 
0.757370 0.910396 0.000000 
0.681997 0.856929 0.000000 
0.712416 0.860546 0.000000 
0.740921 0.867471 0.000000 
0.574193 0.822822 0.000000 
0.589483 0.813980 0.000000 
0.589457 0.797549 0.000000 
0.603693 0.822201 0.000000 
0.575527 0.790748 0.000000 
0.561258 0.798956 0.000000 
0.572712 0.773739 0.000000 
0.555510 0.772415 0.000000 
0.603731 0.788113 0.000000 
0.618999 0.814565 0.000000 
0.602301 0.838007 0.000000 
0.614034 0.850649 0.000000 
0.588076 0.846273 0.000000 
0.606579 0.866199 0.000000 
0.602935 0.770864 0.000000 
0.619052 0.796900 0.000000 
0.631596 0.826282 0.000000 
0.630787 0.880132 0.000000 
0.638486 0.861267 0.000000 
0.855599 0.865154 0.000000 
0.843580 0.852213 0.000000 
0.827572 0.855901 0.000000 
0.848438 0.836518 0.000000 
0.824252 0.871419 0.000000 
0.835428 0.883495 0.000000 
0.809329 0.880049 0.000000 
0.811878 0.897111 0.000000 
0.815195 0.844097 0.000000 
0.837579 0.823304 0.000000 
0.864162 0.834350 0.000000 
0.873874 0.820098 0.000000 
0.875379 0.846387 0.000000 
0.890703 0.823895 0.000000 
0.798556 0.848734 0.000000 
0.820345 0.827195 0.000000 
0.846203 0.808413 0.000000 
0.552592 0.744841 0.000000 
0.583347 0.744597 0.000000 
0.608012 0.598497 0.000000 
0.620055 0.611446 0.000000 
0.636063 0.607756 0.000000 
0.615213 0.627120 0.000000 
0.639568 0.592653 0.000000 
0.628372 0.580597 0.000000 
0.655502 0.586111 0.000000 
0.652930 0.569053 0.000000 
0.648449 0.619562 0.000000 
0.626069 0.640323 0.000000 
0.599486 0.629269 0.000000 
0.589790 0.643485 0.000000 
0.588237 0.617216 0.000000 
0.572962 0.639653 0.000000 
0.665080 0.614929 0.000000 
0.643298 0.636450 0.000000 
0.620217 0.656568 0.000000 
0.834270 0.581397 0.000000 
0.824321 0.595995 0.000000 
0.831462 0.610781 0.000000 
0.807950 0.594755 0.000000 
0.846878 0.610802 0.000000 
0.856165 0.597215 0.000000 
0.856370 0.624637 0.000000 
0.872432 0.618351 0.000000 
0.822706 0.625481 0.000000 
0.797477 0.608285 0.000000 
0.802350 0.579910 0.000000 
0.786303 0.573630 0.000000 
0.811597 0.566297 0.000000 
0.786269 0.556382 0.000000 
0.830915 0.640669 0.000000 
0.805091 0.624225 0.000000 
0.780341 0.606203 0.000000 
0.913255 0.718105 0.000000 
0.895640 0.719437 0.000000 
0.888540 0.734246 0.000000 
0.886397 0.705868 0.000000 
0.898141 0.746308 0.000000 
0.914554 0.745094 0.000000 
0.893250 0.762359 0.000000 
0.908187 0.770995 0.000000 
0.871587 0.736570 0.000000 
0.869290 0.706120 0.000000 
0.894509 0.692234 0.000000 
0.889422 0.675769 0.000000 
0.910919 0.690968 0.000000 
0.902891 0.664987 0.000000 
0.864837 0.752466 0.000000 
0.861583 0.722015 0.000000 
0.863024 0.690111 0.000000 
0.887123 0.641948 0.000000 
0.871998 0.655609 0.000000 
0.679121 0.560057 0.000000 
0.687692 0.591118 0.000000 
0.758718 0.550124 0.000000 
0.751222 0.565659 0.000000 
0.550360 0.718167 0.000000 
0.566535 0.720625 0.000000 
0.575789 0.707060 0.000000 
0.568775 0.737331 0.000000 
0.569112 0.692305 0.000000 
0.552702 0.691029 0.000000 
0.574189 0.675854 0.000000 
0.560712 0.665068 0.000000 
0.592893 0.707320 0.000000 
0.604014 0.690208 0.000000 
0.598210 0.728149 0.000000 
0.704600 0.551925 0.000000 
0.707262 0.569383 0.000000 
0.722562 0.575346 0.000000 
0.691490 0.575299 0.000000 
0.734031 0.564390 0.000000 
0.731585 0.548123 0.000000 
0.757516 0.582468 0.000000 
0.724595 0.593787 0.000000 
0.742358 0.599637 0.000000 
0.705499 0.603641 0.000000 
0.898905 0.797193 0.000000 
0.878785 0.793897 0.000000 
0.784260 0.903106 0.000000 
0.781291 0.879944 0.000000 
0.665925 0.865618 0.000000 
0.796013 0.869168 0.000000 
0.849166 0.639804 0.000000 
0.585846 0.763291 0.000000 
0.668629 0.596576 0.000000 
0.876898 0.766192 0.000000 
0.744345 0.850504 0.000000 
0.835076 0.795161 0.000000 
0.769893 0.620006 0.000000 
0.646995 0.818395 0.000000 
0.631336 0.669822 0.000000 
0.845724 0.690546 0.000000 
0.683700 0.839706 0.000000 
0.786157 0.836659 0.000000 
0.821904 0.655447 0.000000 
0.617476 0.761474 0.000000 
0.677473 0.627000 0.000000 
0.847664 0.754638 0.000000 
0.753328 0.880308 0.000000 
0.866772 0.807376 0.000000 
0.774766 0.586389 0.000000 
0.628019 0.846554 0.000000 
0.599658 0.657580 0.000000 
0.875044 0.673395 0.000000 
0.732975 0.837627 0.000000 
0.648384 0.666803 0.000000 
0.825900 0.672803 0.000000 
0.811748 0.685603 0.000000 
0.811772 0.701932 0.000000 
0.797621 0.677429 0.000000 
0.830182 0.706047 0.000000 
0.797586 0.711462 0.000000 
0.782288 0.684970 0.000000 
0.803247 0.659416 0.000000 
0.798486 0.728705 0.000000 
0.782228 0.702676 0.000000 
0.767810 0.675580 0.000000 
0.814291 0.740671 0.000000 
0.784008 0.738189 0.000000 
0.752372 0.683395 0.000000 
0.765338 0.655906 0.000000 
0.715765 0.843540 0.000000 
0.737338 0.820986 0.000000 
0.654494 0.649671 0.000000 
0.768562 0.730374 0.000000 
0.722619 0.811079 0.000000 
0.755269 0.820447 0.000000 
0.768344 0.836698 0.000000 
0.754057 0.739847 0.000000 
0.767682 0.712101 0.000000 
0.703541 0.817017 0.000000 
0.754999 0.757142 0.000000 
0.738612 0.732028 0.000000 
0.770450 0.764963 0.000000 
0.740490 0.766617 0.000000 
0.724101 0.741503 0.000000 
0.737739 0.712665 0.000000 
0.784954 0.755483 0.000000 
0.741525 0.785072 0.000000 
0.725039 0.758798 0.000000 
0.710528 0.768272 0.000000 
0.709076 0.785407 0.000000 
0.724621 0.794386 0.000000 
0.688526 0.796079 0.000000 
0.695081 0.760451 0.000000 
0.676591 0.769898 0.000000 
0.694147 0.743156 0.000000 
0.671489 0.788392 0.000000 
0.650942 0.798017 0.000000 
0.655265 0.761348 0.000000 
0.678703 0.735326 0.000000 
0.708655 0.733684 0.000000 
0.658311 0.744071 0.000000 
0.677769 0.718030 0.000000 
0.707722 0.716391 0.000000 
0.660864 0.703768 0.000000 
0.692279 0.708564 0.000000 
0.691338 0.691270 0.000000 
0.677553 0.679498 0.000000 
0.681896 0.658951 0.000000 
0.705837 0.681801 0.000000 
0.700197 0.661801 0.000000 
0.721349 0.687549 0.000000 
0.736861 0.676554 0.000000 
0.776587 0.641249 0.000000 
0.672560 0.825797 0.000000 
0.684998 0.810986 0.000000 
0.698828 0.621180 0.000000 
0.815257 0.796829 0.000000 
0.809142 0.813974 0.000000 
0.801756 0.784397 0.000000 
0.784161 0.789904 0.000000 
0.780113 0.807166 0.000000 
0.761600 0.808773 0.000000 
0.755659 0.792065 0.000000 
0.770076 0.781430 0.000000 
0.615248 0.737448 0.000000 
0.836588 0.768592 0.000000 
0.817032 0.761117 0.000000 
0.722296 0.704846 0.000000 
0.761784 0.850114 0.000000 
0.767584 0.870457 0.000000 
0.622805 0.687535 0.000000 
0.661583 0.682531 0.000000 
0.752307 0.702212 0.000000 
0.749156 0.617362 0.000000 
0.701047 0.832832 0.000000 
0.672036 0.644852 0.000000 
0.845648 0.781279 0.000000 
0.868786 0.781052 0.000000 
0.841467 0.673632 0.000000 
0.855721 0.655411 0.000000 
0.634825 0.770064 0.000000 
0.658173 0.831794 0.000000 
0.653241 0.854393 0.000000 
0.791596 0.818800 0.000000 
0.832606 0.738232 0.000000 
0.802175 0.766444 0.000000 
0.794647 0.643384 0.000000 
0.635605 0.788240 0.000000 
0.839774 0.721505 0.000000 
0.747880 0.648354 0.000000 
0.734843 0.661187 0.000000 
0.738391 0.631053 0.000000 
0.713690 0.652183 0.000000 
0.591984 0.673499 0.000000 
0.715202 0.632813 0.000000 
0.645927 0.720888 0.000000 
0.628716 0.713950 0.000000 
VECTORS X_EC float 
-0.169006 0.080488 0.000000 
0.618486 -0.015012 0.000000 
-0.929272 0.161906 0.000000 
0.496548 0.696311 0.000000 
0.941187 0.271338 0.000000 
-0.031082 -0.809494 0.000000 
0.651278 -0.013977 0.000000 
-0.558347 0.078042 0.000000 
-0.956505 -0.839993 0.000000 
0.763901 0.682810 0.000000 
-0.707097 -0.198282 0.000000 
0.057364 0.969278 0.000000 
-0.853315 0.990180 0.000000 
-0.019104 -0.199619 0.000000 
-0.365853 0.548929 0.000000 
0.255122 -0.826256 0.000000 
-0.515217 -0.787326 0.000000 
-0.643549 -0.787676 0.000000 
0.306589 0.294463 0.000000 
-0.192197 -0.814388 0.000000 
0.204918 0.136860 0.000000 
-0.084393 -0.483787 0.000000 
0.959216 0.438429 0.000000 
0.530999 -0.037527 0.000000 
-0.923776 0.637190 0.000000 
0.620106 0.742793 0.000000 
-0.192987 0.643386 0.000000 
-0.980606 -0.460938 0.000000 
-0.523382 0.645648 0.000000 
0.656119 0.742746 0.000000 
-0.710115 0.925807 0.000000 
0.766609 0.044667 0.000000 
0.371366 0.486914 0.000000 
-0.643757 -0.485550 0.000000 
-0.535928 -0.458870 0.000000 
0.202897 0.590958 0.000000 
-0.237303 -0.528026 0.000000 
-0.021186 0.927489 0.000000 
-0.781534 -0.224886 0.000000 
0.085586 -0.240548 0.000000 
0.230131 -0.433180 0.000000 
-0.364462 0.179422 0.000000 
0.036653 -0.177150 0.000000 
0.385914 -0.124769 0.000000 
0.590142 -0.381985 0.000000 
0.505734 0.181046 0.000000 
0.456678 -0.660033 0.000000 
0.131403 -0.709445 0.000000 
0.623358 -0.951312 0.000000 
0.370798 0.813739 0.000000 
0.930826 -0.351874 0.000000 
0.840305 0.252148 0.000000 
0.297422 0.406116 0.000000 
0.375516 0.725504 0.000000 
-0.028051 0.357962 0.000000 
0.065101 0.876126 0.000000 
-0.866917 -0.631707 0.000000 
-0.938847 -0.023537 0.000000 
0.922966 0.546425 0.000000 
-0.185538 -0.786826 0.000000 
-0.008733 -0.481017 0.000000 
0.319817 -0.481481 0.000000 
-0.173243 -0.196823 0.000000 
0.455745 -0.760176 0.000000 
0.291509 0.954637 0.000000 
0.795889 -0.816814 0.000000 
0.822059 0.839197 0.000000 
0.508710 -0.196235 0.000000 
-0.020337 0.109187 0.000000 
-0.489445 -0.224807 0.000000 
-0.742128 0.009562 0.000000 
-0.654638 -0.509384 0.000000 
0.946690 -0.139604 0.000000 
0.853811 -0.212493 0.000000 
0.333066 0.110240 0.000000 
-0.254619 0.360890 0.000000 
0.668324 0.344371 0.000000 
-0.954367 0.498311 0.000000 
0.971071 0.838276 0.000000 
-0.770233 0.597516 0.000000 
-0.844320 0.277538 0.000000 
-0.456834 0.694493 0.000000 
0.845246 0.211842 0.000000 
0.604149 0.436061 0.000000 
0.672478 -0.085945 0.000000 
0.331227 -0.034112 0.000000 
-0.608397 0.030071 0.000000 
-0.192875 0.477622 0.000000 
-0.413827 -0.991019 0.000000 
-0.129756 -0.796692 0.000000 
-0.654922 -0.766183 0.000000 
-0.206670 -0.460054 0.000000 
-0.701374 -0.302179 0.000000 