# vtk DataFile Version 3.0 
vtk output 
ASCII 
DATASET UNSTRUCTURED_GRID 
POINTS 616 float 
0.244204 0.448514 0.000000 
0.139193 0.109097 0.000000 
0.448219 0.286341 0.000000 
0.074881 0.315279 0.000000 
0.353572 0.092917 0.000000 
0.299686 0.441599 0.000000 
0.139421 0.407509 0.000000 
0.243879 0.067964 0.000000 
0.398112 0.387776 0.000000 
0.074151 0.201862 0.000000 
0.430131 0.175281 0.000000 
0.188649 0.437190 0.000000 
0.189453 0.082722 0.000000 
0.430168 0.340864 0.000000 
0.067480 0.258377 0.000000 
0.398699 0.127186 0.000000 
0.100721 0.365858 0.000000 
0.300624 0.072193 0.000000 
0.354847 0.424697 0.000000 
0.099256 0.149627 0.000000 
0.446919 0.229648 0.000000 
0.216002 0.444284 0.000000 
0.161860 0.092074 0.000000 
0.438256 0.313348 0.000000 
0.071904 0.286281 0.000000 
0.377147 0.108948 0.000000 
0.272333 0.449710 0.000000 
0.117055 0.389117 0.000000 
0.272276 0.066202 0.000000 
0.377261 0.407180 0.000000 
0.086301 0.175550 0.000000 
0.442284 0.201574 0.000000 
0.164493 0.421490 0.000000 
0.215681 0.072245 0.000000 
0.417202 0.366722 0.000000 
0.069570 0.229928 0.000000 
0.413631 0.151805 0.000000 
0.086453 0.341173 0.000000 
0.328759 0.079070 0.000000 
0.328111 0.435764 0.000000 
0.118299 0.128509 0.000000 
0.449072 0.258108 0.000000 
0.231320 0.438224 0.000000 
0.233923 0.420745 0.000000 
0.221051 0.410526 0.000000 
0.249210 0.414746 0.000000 
0.207155 0.417207 0.000000 
0.204709 0.433486 0.000000 
0.192576 0.408863 0.000000 
0.180843 0.421509 0.000000 
0.222544 0.393473 0.000000 
0.252758 0.398001 0.000000 
0.260468 0.425169 0.000000 
0.276436 0.421258 0.000000 
0.258067 0.441458 0.000000 
0.283965 0.436792 0.000000 
0.208536 0.383355 0.000000 
0.238963 0.386950 0.000000 
0.267482 0.393862 0.000000 
0.100738 0.349369 0.000000 
0.116025 0.340510 0.000000 
0.115993 0.324077 0.000000 
0.130240 0.348723 0.000000 
0.102055 0.317293 0.000000 
0.087800 0.325528 0.000000 
0.099215 0.300283 0.000000 
0.082012 0.298989 0.000000 
0.130250 0.314615 0.000000 
0.145537 0.341060 0.000000 
0.128850 0.364539 0.000000 
0.140578 0.377165 0.000000 
0.114623 0.372817 0.000000 
0.133127 0.392738 0.000000 
0.129428 0.297356 0.000000 
0.145579 0.323385 0.000000 
0.158131 0.352764 0.000000 
0.157344 0.406642 0.000000 
0.165027 0.387754 0.000000 
0.382047 0.391415 0.000000 
0.370009 0.378479 0.000000 
0.354018 0.382191 0.000000 
0.374850 0.362800 0.000000 
0.350737 0.397717 0.000000 
0.361933 0.409789 0.000000 
0.335850 0.406375 0.000000 
0.338431 0.423464 0.000000 
0.341640 0.370393 0.000000 
0.364002 0.349600 0.000000 
0.390572 0.360644 0.000000 
0.400280 0.346420 0.000000 
0.401808 0.372687 0.000000 
0.417135 0.350254 0.000000 
0.325036 0.375050 0.000000 
0.346785 0.353493 0.000000 
0.372622 0.334711 0.000000 
0.079051 0.271429 0.000000 
0.109802 0.271116 0.000000 
0.134369 0.124856 0.000000 
0.146392 0.137797 0.000000 
0.162397 0.134111 0.000000 
0.141541 0.153490 0.000000 
0.165916 0.119015 0.000000 
0.154736 0.106936 0.000000 
0.181855 0.112466 0.000000 
0.179303 0.095408 0.000000 
0.174777 0.145914 0.000000 
0.152406 0.166702 0.000000 
0.125824 0.155655 0.000000 
0.116122 0.169906 0.000000 
0.114602 0.143618 0.000000 
0.099296 0.166109 0.000000 
0.191410 0.141280 0.000000 
0.169633 0.162812 0.000000 
0.146555 0.182954 0.000000 
0.360711 0.107765 0.000000 
0.350764 0.122364 0.000000 
0.357915 0.137144 0.000000 
0.334383 0.121129 0.000000 
0.373339 0.137158 0.000000 
0.382625 0.123569 0.000000 
0.382842 0.150986 0.000000 
0.398911 0.144688 0.000000 
0.349155 0.151839 0.000000 
0.323906 0.134656 0.000000 
0.328779 0.106288 0.000000 
0.312730 0.100002 0.000000 
0.338022 0.092677 0.000000 
0.312695 0.082764 0.000000 
0.357378 0.167020 0.000000 
0.331528 0.150588 0.000000 
0.306758 0.132573 0.000000 
0.439756 0.244494 0.000000 
0.422139 0.245810 0.000000 
0.415037 0.260615 0.000000 
0.412894 0.232225 0.000000 
0.424633 0.272692 0.000000 
0.441049 0.271497 0.000000 
0.419728 0.288739 0.000000 
0.434649 0.297403 0.000000 
0.398083 0.262919 0.000000 
0.395786 0.232466 0.000000 
0.421005 0.218586 0.000000 
0.415916 0.202111 0.000000 
0.437413 0.217326 0.000000 
0.429384 0.191322 0.000000 
0.391322 0.278809 0.000000 
0.388073 0.248356 0.000000 
0.389513 0.216451 0.000000 
0.413614 0.168280 0.000000 
0.398485 0.181945 0.000000 
0.205512 0.086409 0.000000 
0.214047 0.117468 0.000000 
0.285147 0.076491 0.000000 
0.277640 0.092020 0.000000 
0.076764 0.244755 0.000000 
0.092945 0.247174 0.000000 
0.102166 0.233575 0.000000 
0.095218 0.263880 0.000000 
0.095470 0.218823 0.000000 
0.079055 0.217595 0.000000 
0.100532 0.202338 0.000000 
0.087054 0.191582 0.000000 
0.119272 0.233797 0.000000 
0.130371 0.216643 0.000000 
0.124635 0.254628 0.000000 
0.231015 0.078265 0.000000 
0.233656 0.095723 0.000000 
0.248957 0.101694 0.000000 
0.217866 0.101644 0.000000 
0.260445 0.090745 0.000000 
0.258010 0.074476 0.000000 
0.283930 0.108832 0.000000 
0.250973 0.120141 0.000000 
0.268746 0.126001 0.000000 
0.231852 0.129992 0.000000 
0.425347 0.323582 0.000000 
0.405217 0.320245 0.000000 
0.310842 0.429478 0.000000 
0.307843 0.406299 0.000000 
0.192463 0.392061 0.000000 
0.322531 0.395495 0.000000 
0.375640 0.166149 0.000000 
0.112330 0.289809 0.000000 
0.194969 0.122929 0.000000 
0.403373 0.292544 0.000000 
0.270890 0.376888 0.000000 
0.361509 0.321464 0.000000 
0.296302 0.146368 0.000000 
0.173522 0.344849 0.000000 
0.157681 0.196204 0.000000 
0.372204 0.216884 0.000000 
0.210231 0.366121 0.000000 
0.312643 0.362985 0.000000 
0.348355 0.181791 0.000000 
0.143949 0.287941 0.000000 
0.203808 0.153346 0.000000 
0.374141 0.280964 0.000000 
0.279893 0.406695 0.000000 
0.393189 0.333699 0.000000 
0.301186 0.112759 0.000000 
0.154563 0.373054 0.000000 
0.125992 0.183991 0.000000 
0.401540 0.199735 0.000000 
0.259513 0.364011 0.000000 
0.174733 0.193169 0.000000 
0.352361 0.199142 0.000000 
0.338199 0.211936 0.000000 
0.338226 0.228258 0.000000 
0.324059 0.203765 0.000000 
0.356650 0.232371 0.000000 
0.324028 0.237784 0.000000 
0.308710 0.211302 0.000000 
0.329687 0.185762 0.000000 
0.324932 0.255020 0.000000 
0.308652 0.228999 0.000000 
0.294217 0.201918 0.000000 
0.340752 0.266984 0.000000 
0.310442 0.264501 0.000000 
0.278767 0.209730 0.000000 
0.291738 0.182252 0.000000 
0.242305 0.369934 0.000000 
0.263858 0.347355 0.000000 
0.180842 0.176030 0.000000 
0.294982 0.256689 0.000000 
0.249138 0.337453 0.000000 
0.281775 0.346802 0.000000 
0.294856 0.363045 0.000000 
0.280481 0.266171 0.000000 
0.294095 0.238424 0.000000 
0.230066 0.343398 0.000000 
0.281433 0.283463 0.000000 
0.265021 0.258354 0.000000 
0.296884 0.291269 0.000000 
0.266936 0.292948 0.000000 
0.250524 0.267837 0.000000 
0.264135 0.238994 0.000000 
0.311393 0.281791 0.000000 
0.267995 0.311412 0.000000 
0.251479 0.285134 0.000000 
0.236985 0.294621 0.000000 
0.235563 0.311765 0.000000 
0.251119 0.320745 0.000000 
0.215038 0.322462 0.000000 
0.221532 0.286805 0.000000 
0.203057 0.296280 0.000000 
0.220573 0.269506 0.000000 
0.197986 0.314791 0.000000 
0.177460 0.324451 0.000000 
0.181722 0.287753 0.000000 
0.205121 0.261691 0.000000 
0.235069 0.260021 0.000000 
0.184743 0.270464 0.000000 
0.204160 0.244390 0.000000 
0.234114 0.242726 0.000000 
0.187234 0.230141 0.000000 
0.218658 0.234908 0.000000 
0.217700 0.217609 0.000000 
0.203906 0.205839 0.000000 
0.208244 0.185290 0.000000 
0.232201 0.208131 0.000000 
0.226554 0.188134 0.000000 
0.247724 0.213882 0.000000 
0.263242 0.202888 0.000000 
0.303002 0.167602 0.000000 
0.199087 0.352219 0.000000 
0.211522 0.337385 0.000000 
0.225175 0.147523 0.000000 
0.341699 0.323131 0.000000 
0.335592 0.340276 0.000000 
0.328199 0.310701 0.000000 
0.310611 0.316215 0.000000 
0.306581 0.333485 0.000000 
0.288088 0.335113 0.000000 
0.282132 0.318399 0.000000 
0.296520 0.307741 0.000000 
0.141688 0.263909 0.000000 
0.363045 0.294906 0.000000 
0.343486 0.287423 0.000000 
0.248679 0.231177 0.000000 
0.288320 0.376481 0.000000 
0.294139 0.396823 0.000000 
0.149162 0.213943 0.000000 
0.187938 0.208890 0.000000 
0.278705 0.228541 0.000000 
0.275548 0.143723 0.000000 
0.227583 0.359226 0.000000 
0.198374 0.171197 0.000000 
0.372092 0.307590 0.000000 
0.395234 0.307390 0.000000 
0.367940 0.199969 0.000000 
0.382196 0.181749 0.000000 
0.161304 0.296505 0.000000 
0.184704 0.358237 0.000000 
0.179778 0.380846 0.000000 
0.318061 0.345116 0.000000 
0.359079 0.264550 0.000000 
0.328621 0.292748 0.000000 
0.321077 0.169738 0.000000 
0.162111 0.314690 0.000000 
0.366249 0.247828 0.000000 
0.274269 0.174698 0.000000 
0.261221 0.187525 0.000000 
0.264778 0.157408 0.000000 
0.240056 0.178522 0.000000 
0.118326 0.199939 0.000000 
0.241563 0.159157 0.000000 
0.172330 0.247287 0.000000 
0.155115 0.240377 0.000000 
0.727598 0.932047 0.000000 
0.622697 0.592824 0.000000 
0.931702 0.769899 0.000000 
0.558324 0.798799 0.000000 
0.837017 0.576493 0.000000 
0.783115 0.925159 0.000000 
0.622865 0.891045 0.000000 
0.727327 0.551556 0.000000 
0.881702 0.871474 0.000000 
0.557648 0.685426 0.000000 
0.913573 0.658880 0.000000 
0.672056 0.920734 0.000000 
0.672920 0.566346 0.000000 
0.913697 0.824451 0.000000 
0.550910 0.741892 0.000000 
0.882147 0.610777 0.000000 
0.584145 0.849370 0.000000 
0.784026 0.555741 0.000000 
0.838356 0.908332 0.000000 
0.582754 0.633286 0.000000 
0.930354 0.713211 0.000000 
0.699386 0.927810 0.000000 
0.645333 0.575738 0.000000 
0.921767 0.796922 0.000000 
0.555325 0.769801 0.000000 
0.860602 0.592538 0.000000 
0.755746 0.933256 0.000000 
0.600506 0.872644 0.000000 
0.755692 0.549769 0.000000 
0.860814 0.890887 0.000000 
0.569803 0.659151 0.000000 
0.925740 0.685168 0.000000 
0.647917 0.905028 0.000000 
0.699137 0.555830 0.000000 
0.900736 0.850357 0.000000 
0.553034 0.713469 0.000000 
0.897071 0.635398 0.000000 
0.569871 0.824681 0.000000 
0.812170 0.562617 0.000000 
0.811576 0.919348 0.000000 
0.601833 0.612226 0.000000 
0.932515 0.741655 0.000000 
0.714726 0.921766 0.000000 
0.717347 0.904301 0.000000 
0.704482 0.894085 0.000000 
[...]
POINT_DATA 616 
VECTORS X_GC float 
0.244204 0.448514 0.000000 
0.139193 0.109097 0.000000 
0.448219 0.286341 0.000000 
0.074881 0.315279 0.000000 
0.353572 0.092917 0.000000 
0.299686 0.441599 0.000000 
0.139421 0.407509 0.000000 
0.243879 0.067964 0.000000 
0.398112 0.387776 0.000000 
0.074151 0.201862 0.000000 
0.430131 0.175281 0.000000 
0.188649 0.437190 0.000000 
0.189453 0.082722 0.000000 
0.430168 0.340864 0.000000 
0.067480 0.258377 0.000000 
0.398699 0.127186 0.000000 
0.100721 0.365858 0.000000 
0.300624 0.072193 0.000000 
0.354847 0.424697 0.000000 
0.099256 0.149627 0.000000 
0.446919 0.229648 0.000000 
0.216002 0.444284 0.000000 
0.161860 0.092074 0.000000 
0.438256 0.313348 0.000000 
0.071904 0.286281 0.000000 
0.377147 0.108948 0.000000 
0.272333 0.449710 0.000000 
0.117055 0.389117 0.000000 
0.272276 0.066202 0.000000 
0.377261 0.407180 0.000000 
0.086301 0.175550 0.000000 
0.442284 0.201574 0.000000 
0.164493 0.421490 0.000000 
0.215681 0.072245 0.000000 
0.417202 0.366722 0.000000 
0.069570 0.229928 0.000000 
0.413631 0.151805 0.000000 
0.086453 0.341173 0.000000 
0.328759 0.079070 0.000000 
0.328111 0.435764 0.000000 
0.118299 0.128509 0.000000 
0.449072 0.258108 0.000000 
0.231320 0.438224 0.000000 
0.233923 0.420745 0.000000 
0.221051 0.410526 0.000000 
0.249210 0.414746 0.000000 
0.207155 0.417207 0.000000 
0.204709 0.433486 0.000000 
0.192576 0.408863 0.000000 
0.180843 0.421509 0.000000 
0.222544 0.393473 0.000000 
0.252758 0.398001 0.000000 
0.260468 0.425169 0.000000 
0.276436 0.421258 0.000000 
0.258067 0.441458 0.000000 
0.283965 0.436792 0.000000 
0.208536 0.383355 0.000000 
0.238963 0.386950 0.000000 
0.267482 0.393862 0.000000 
0.100738 0.349369 0.000000 
0.116025 0.340510 0.000000 
0.115993 0.324077 0.000000 
0.130240 0.348723 0.000000 
0.102055 0.317293 0.000000 
0.087800 0.325528 0.000000 
0.099215 0.300283 0.000000 
0.082012 0.298989 0.000000 
0.130250 0.314615 0.000000 
0.145537 0.341060 0.000000 
0.128850 0.364539 0.000000 
0.140578 0.377165 0.000000 
0.114623 0.372817 0.000000 
0.133127 0.392738 0.000000 
0.129428 0.297356 0.000000 
0.145579 0.323385 0.000000 
0.158131 0.352764 0.000000 
0.157344 0.406642 0.000000 
0.165027 0.387754 0.000000 
0.382047 0.391415 0.000000 
0.370009 0.378479 0.000000 
0.354018 0.382191 0.000000 
0.374850 0.362800 0.000000 
0.350737 0.397717 0.000000 
0.361933 0.409789 0.000000 
0.335850 0.406375 0.000000 
0.338431 0.423464 0.000000 
0.341640 0.370393 0.000000 
0.364002 0.349600 0.000000 
0.390572 0.360644 0.000000 
0.400280 0.346420 0.000000 
0.401808 0.372687 0.000000 
0.417135 0.350254 0.000000 
0.325036 0.375050 0.000000 
0.346785 0.353493 0.000000 
0.372622 0.334711 0.000000 
0.079051 0.271429 0.000000 
0.109802 0.271116 0.000000 
0.134369 0.124856 0.000000 
0.146392 0.137797 0.000000 
0.162397 0.134111 0.000000 
0.141541 0.153490 0.000000 
0.165916 0.119015 0.000000 
0.154736 0.106936 0.000000 
0.181855 0.112466 0.000000 
0.179303 0.095408 0.000000 
0.174777 0.145914 0.000000 
0.152406 0.166702 0.000000 
0.125824 0.155655 0.000000 
0.116122 0.169906 0.000000 
0.114602 0.143618 0.000000 
0.099296 0.166109 0.000000 
0.191410 0.141280 0.000000 
0.169633 0.162812 0.000000 
0.146555 0.182954 0.000000 
0.360711 0.107765 0.000000 
0.350764 0.122364 0.000000 
0.357915 0.137144 0.000000 
0.334383 0.121129 0.000000 
0.373339 0.137158 0.000000 
0.382625 0.123569 0.000000 
0.382842 0.150986 0.000000 
0.398911 0.144688 0.000000 
0.349155 0.151839 0.000000 
0.323906 0.134656 0.000000 
0.328779 0.106288 0.000000 
0.312730 0.100002 0.000000 
0.338022 0.092677 0.000000 
0.312695 0.082764 0.000000 
0.357378 0.167020 0.000000 
0.331528 0.150588 0.000000 
0.306758 0.132573 0.000000 
0.439756 0.244494 0.000000 
0.422139 0.245810 0.000000 
0.415037 0.260615 0.000000 
0.412894 0.232225 0.000000 
0.424633 0.272692 0.000000 
0.441049 0.271497 0.000000 
0.419728 0.288739 0.000000 
0.434649 0.297403 0.000000 
0.398083 0.262919 0.000000 
0.395786 0.232466 0.000000 
0.421005 0.218586 0.000000 
0.415916 0.202111 0.000000 
0.437413 0.217326 0.000000 
0.429384 0.191322 0.000000 
0.391322 0.278809 0.000000 
0.388073 0.248356 0.000000 
0.389513 0.216451 0.000000 
0.413614 0.168280 0.000000 
0.398485 0.181945 0.000000 
0.205512 0.086409 0.000000 
0.214047 0.117468 0.000000 
0.285147 0.076491 0.000000 
0.277640 0.092020 0.000000 
0.076764 0.244755 0.000000 
0.092945 0.247174 0.000000 
0.102166 0.233575 0.000000 
0.095218 0.263880 0.000000 
0.095470 0.218823 0.000000 
0.079055 0.217595 0.000000 
0.100532 0.202338 0.000000 
0.087054 0.191582 0.000000 
0.119272 0.233797 0.000000 
0.130371 0.216643 0.000000 
0.124635 0.254628 0.000000 
0.231015 0.078265 0.000000 
0.233656 0.095723 0.000000 
0.248957 0.101694 0.000000 
0.217866 0.101644 0.000000 
0.260445 0.090745 0.000000 
0.258010 0.074476 0.000000 
0.283930 0.108832 0.000000 
0.250973 0.120141 0.000000 
0.268746 0.126001 0.000000 
0.231852 0.129992 0.000000 
0.425347 0.323582 0.000000 
0.405217 0.320245 0.000000 
0.310842 0.429478 0.000000 
0.307843 0.406299 0.000000 
0.192463 0.392061 0.000000 
0.322531 0.395495 0.000000 
0.375640 0.166149 0.000000 
0.112330 0.289809 0.000000 
0.194969 0.122929 0.000000 
0.403373 0.292544 0.000000 
0.270890 0.376888 0.000000 
0.361509 0.321464 0.000000 
0.296302 0.146368 0.000000 
0.173522 0.344849 0.000000 
0.157681 0.196204 0.000000 
0.372204 0.216884 0.000000 
0.210231 0.366121 0.000000 
0.312643 0.362985 0.000000 
0.348355 0.181791 0.000000 
0.143949 0.287941 0.000000 
0.203808 0.153346 0.000000 
0.374141 0.280964 0.000000 
0.279893 0.406695 0.000000 
0.393189 0.333699 0.000000 
0.301186 0.112759 0.000000 
0.154563 0.373054 0.000000 
0.125992 0.183991 0.000000 
0.401540 0.199735 0.000000 
0.259513 0.364011 0.000000 
0.174733 0.193169 0.000000 
0.352361 0.199142 0.000000 
0.338199 0.211936 0.000000 
0.338226 0.228258 0.000000 
0.324059 0.203765 0.000000 
0.356650 0.232371 0.000000 
0.324028 0.237784 0.000000 
0.308710 0.211302 0.000000 
0.329687 0.185762 0.000000 
0.324932 0.255020 0.000000 
0.308652 0.228999 0.000000 
0.294217 0.201918 0.000000 
0.340752 0.266984 0.000000 
0.310442 0.264501 0.000000 
0.278767 0.209730 0.000000 
0.291738 0.182252 0.000000 
0.242305 0.369934 0.000000 
0.263858 0.347355 0.000000 
0.180842 0.176030 0.000000 
0.294982 0.256689 0.000000 
0.249138 0.337453 0.000000 
0.281775 0.346802 0.000000 
0.294856 0.363045 0.000000 
0.280481 0.266171 0.000000 
0.294095 0.238424 0.000000 
0.230066 0.343398 0.000000 
0.281433 0.283463 0.000000 
0.265021 0.258354 0.000000 
0.296884 0.291269 0.000000 
0.266936 0.292948 0.000000 
0.250524 0.267837 0.000000 
0.264135 0.238994 0.000000 
0.311393 0.281791 0.000000 
0.267995 0.311412 0.000000 
0.251479 0.285134 0.000000 
0.236985 0.294621 0.000000 
0.235563 0.311765 0.000000 
0.251119 0.320745 0.000000 
0.215038 0.322462 0.000000 
0.221532 0.286805 0.000000 
0.203057 0.296280 0.000000 
0.220573 0.269506 0.000000 
0.197986 0.314791 0.000000 
0.177460 0.324451 0.000000 
0.181722 0.287753 0.000000 
0.205121 0.261691 0.000000 
0.235069 0.260021 0.000000 
0.184743 0.270464 0.000000 
0.204160 0.244390 0.000000 
0.234114 0.242726 0.000000 
0.187234 0.230141 0.000000 
0.218658 0.234908 0.000000 
0.217700 0.217609 0.000000 
0.203906 0.205839 0.000000 
0.208244 0.185290 0.000000 
0.232201 0.208131 0.000000 
0.226554 0.188134 0.000000 
0.247724 0.213882 0.000000 
0.263242 0.202888 0.000000 
0.303002 0.167602 0.000000 
0.199087 0.352219 0.000000 
0.211522 0.337385 0.000000 
0.225175 0.147523 0.000000 
0.341699 0.323131 0.000000 
0.335592 0.340276 0.000000 
0.328199 0.310701 0.000000 
0.310611 0.316215 0.000000 
0.306581 0.333485 0.000000 
0.288088 0.335113 0.000000 
0.282132 0.318399 0.000000 
0.296520 0.307741 0.000000 
0.141688 0.263909 0.000000 
0.363045 0.294906 0.000000 
0.343486 0.287423 0.000000 
0.248679 0.231177 0.000000 
0.288320 0.376481 0.000000 
0.294139 0.396823 0.000000 
0.149162 0.213943 0.000000 
0.187938 0.208890 0.000000 
0.278705 0.228541 0.000000 
0.275548 0.143723 0.000000 
0.227583 0.359226 0.000000 
0.198374 0.171197 0.000000 
0.372092 0.307590 0.000000 
0.395234 0.307390 0.000000 
0.367940 0.199969 0.000000 
0.382196 0.181749 0.000000 
0.161304 0.296505 0.000000 
0.184704 0.358237 0.000000 
0.179778 0.380846 0.000000 
0.318061 0.345116 0.000000 
0.359079 0.264550 0.000000 
0.328621 0.292748 0.000000 
0.321077 0.169738 0.000000 
0.162111 0.314690 0.000000 
0.366249 0.247828 0.000000 
0.274269 0.174698 0.000000 
0.261221 0.187525 0.000000 
0.264778 0.157408 0.000000 
0.240056 0.178522 0.000000 
0.118326 0.199939 0.000000 
0.241563 0.159157 0.000000 
0.172330 0.247287 0.000000 
0.155115 0.240377 0.000000 
0.727598 0.932047 0.000000 
0.622697 0.592824 0.000000 
0.931702 0.769899 0.000000 
0.558324 0.798799 0.000000 
0.837017 0.576493 0.000000 
0.783115 0.925159 0.000000 
0.622865 0.891045 0.000000 
0.727327 0.551556 0.000000 
0.881702 0.871474 0.000000 
0.557648 0.685426 0.000000 
0.913573 0.658880 0.000000 
0.672056 0.920734 0.000000 
0.672920 0.566346 0.000000 
0.913697 0.824451 0.000000 
0.550910 0.741892 0.000000 
0.882147 0.610777 0.000000 
0.584145 0.849370 0.000000 
0.784026 0.555741 0.000000 
0.838356 0.908332 0.000000 
0.582754 0.633286 0.000000 
0.930354 0.713211 0.000000 
0.699386 0.927810 0.000000 
0.645333 0.575738 0.000000 
0.921767 0.796922 0.000000 
0.555325 0.769801 0.000000 
0.860602 0.592538 0.000000 
0.755746 0.933256 0.000000 
0.600506 0.872644 0.000000 
0.755692 0.549769 0.000000 
0.860814 0.890887 0.000000 
0.569803 0.659151 0.000000 
0.925740 0.685168 0.000000 
0.647917 0.905028 0.000000 
0.699137 0.555830 0.000000 
0.900736 0.850357 0.000000 
0.553034 0.713469 0.000000 
0.897071 0.635398 0.000000 
0.569871 0.824681 0.000000 
0.812170 0.562617 0.000000 
0.811576 0.919348 0.000000 
0.601833 0.612226 0.000000 
0.932515 0.741655 0.000000 
0.714726 0.921766 0.000000 
0.717347 0.904301 0.000000 
0.704482 0.894085 0.000000 
0.732649 0.898313 0.000000 
0.690578 0.900759 0.000000 
0.688114 0.917028 0.000000 
0.676014 0.892419 0.000000 
0.664265 0.905053 0.000000 
0.705994 0.877042 0.000000 
0.736212 0.881579 0.000000 
0.743903 0.908729 0.000000 
0.759880 0.904832 0.000000 
0.741480 0.924998 0.000000 
0.767398 0.920349 0.000000 
0.691994 0.866928 0.000000 
0.722422 0.870527 0.000000 
0.750940 0.877451 0.000000 
0.584161 0.832890 0.000000 
0.599461 0.824047 0.000000 
0.599432 0.807616 0.000000 
0.613680 0.832261 0.000000 
0.585492 0.800827 0.000000 
0.571224 0.809044 0.000000 
0.582654 0.783827 0.000000 
0.565447 0.782520 0.000000 
0.613702 0.798169 0.000000 
0.628990 0.824613 0.000000 
0.612290 0.848070 0.000000 
0.624027 0.860703 0.000000 
0.598059 0.856340 0.000000 
0.616572 0.876262 0.000000 
0.612887 0.780924 0.000000 
0.629040 0.806947 0.000000 
0.641591 0.836323 0.000000 
0.640781 0.890173 0.000000 
0.648480 0.871301 0.000000 
0.865633 0.875130 0.000000 
0.853606 0.862193 0.000000 
0.837604 0.865880 0.000000 
0.858451 0.846502 0.000000 
0.834293 0.881394 0.000000 
0.845476 0.893467 0.000000 
0.819376 0.890022 0.000000 
0.821932 0.907079 0.000000 
0.825221 0.854079 0.000000 
0.847586 0.833292 0.000000 
0.874168 0.844334 0.000000 
0.883865 0.830085 0.000000 
0.885393 0.856368 0.000000 
0.900691 0.833881 0.000000 
0.808590 0.858716 0.000000 
0.830361 0.837182 0.000000 
0.856195 0.818404 0.000000 
0.562487 0.754960 0.000000 
0.593257 0.754683 0.000000 
0.617906 0.608578 0.000000 
0.629945 0.621515 0.000000 
0.645947 0.617809 0.000000 
0.625104 0.637193 0.000000 
0.649446 0.602700 0.000000 
0.638243 0.590640 0.000000 
0.665372 0.596132 0.000000 
0.662792 0.579054 0.000000 
0.658333 0.629607 0.000000 
0.635961 0.650387 0.000000 
0.609378 0.639355 0.000000 
0.599679 0.653579 0.000000 
0.598136 0.627313 0.000000 
0.582830 0.649755 0.000000 
0.674958 0.624957 0.000000 
0.653190 0.646501 0.000000 
0.630109 0.666637 0.000000 
0.844162 0.591345 0.000000 
0.834224 0.605948 0.000000 
0.841374 0.620735 0.000000 
0.817848 0.604715 0.000000 
0.856793 0.620748 0.000000 
0.866077 0.607151 0.000000 
0.866292 0.634582 0.000000 
0.882354 0.628284 0.000000 
0.832624 0.635444 0.000000 
0.807380 0.618257 0.000000 
0.812229 0.589867 0.000000 
0.796171 0.583582 0.000000 
0.821460 0.576246 0.000000 
0.796113 0.566321 0.000000 
0.840842 0.650632 0.000000 
0.815006 0.634197 0.000000 
0.790236 0.616177 0.000000 
0.923198 0.728057 0.000000 
0.905587 0.729395 0.000000 
0.898492 0.744213 0.000000 
0.896342 0.715823 0.000000 
0.908094 0.756280 0.000000 
0.924506 0.755057 0.000000 
0.903207 0.772338 0.000000 
0.918147 0.780974 0.000000 
0.881544 0.746544 0.000000 
0.879239 0.716083 0.000000 
0.904448 0.702179 0.000000 
0.899359 0.685712 0.000000 
0.920854 0.700910 0.000000 
0.912826 0.674921 0.000000 
0.874802 0.762448 0.000000 
0.871539 0.731987 0.000000 
0.872969 0.700071 0.000000 
0.897052 0.651881 0.000000 
0.881931 0.665555 0.000000 
0.688987 0.570025 0.000000 
0.697552 0.601109 0.000000 
0.768567 0.560061 0.000000 
0.761084 0.575609 0.000000 
0.560215 0.728300 0.000000 
0.576404 0.730738 0.000000 
0.585647 0.717166 0.000000 
0.578668 0.747436 0.000000 
0.578964 0.702418 0.000000 
0.562540 0.701160 0.000000 
0.584048 0.685959 0.000000 
0.570560 0.675182 0.000000 
0.602766 0.717405 0.000000 
0.613894 0.700284 0.000000 
0.608111 0.738221 0.000000 
0.714475 0.561866 0.000000 
0.717130 0.579341 0.000000 
0.732429 0.585308 0.000000 
0.701354 0.585272 0.000000 
0.743896 0.574340 0.000000 
0.741447 0.558059 0.000000 
0.767390 0.592430 0.000000 
0.734461 0.603766 0.000000 
0.752233 0.609619 0.000000 
0.715362 0.613634 0.000000 
0.908866 0.807187 0.000000 
0.888755 0.803890 0.000000 
0.794306 0.913063 0.000000 
0.791336 0.889921 0.000000 
0.675920 0.875629 0.000000 
0.806056 0.879146 0.000000 
0.859093 0.649757 0.000000 
0.595780 0.773368 0.000000 
0.678494 0.606594 0.000000 
0.886863 0.776176 0.000000 
0.754366 0.860489 0.000000 
0.845068 0.805156 0.000000 
0.779795 0.629987 0.000000 
0.656994 0.828425 0.000000 
0.641234 0.679885 0.000000 
0.855673 0.700516 0.000000 
0.693703 0.849707 0.000000 
0.796188 0.846648 0.000000 
0.831838 0.665418 0.000000 
0.627425 0.771529 0.000000 
0.687359 0.637021 0.000000 
0.857636 0.764625 0.000000 
0.763355 0.890284 0.000000 
0.876755 0.817367 0.000000 
0.784648 0.596351 0.000000 
0.638013 0.856598 0.000000 
0.609542 0.667662 0.000000 
0.884982 0.683344 0.000000 
0.742993 0.847615 0.000000 
0.658289 0.676856 0.000000 
0.835843 0.682778 0.000000 
0.821701 0.695588 0.000000 
0.821733 0.711919 0.000000 
0.807571 0.687419 0.000000 
0.840141 0.716027 0.000000 
0.807555 0.721458 0.000000 
0.792240 0.694967 0.000000 
0.813185 0.669399 0.000000 
0.808463 0.738702 0.000000 
0.792189 0.712676 0.000000 
0.777753 0.685580 0.000000 
0.824270 0.750663 0.000000 
0.793990 0.748192 0.000000 
0.762318 0.693402 0.000000 
0.775265 0.665900 0.000000 
0.725776 0.853526 0.000000 
0.747358 0.830979 0.000000 
0.664394 0.659716 0.000000 
0.778538 0.740379 0.000000 
0.732638 0.821075 0.000000 
0.765290 0.830441 0.000000 
0.778370 0.846687 0.000000 
0.764036 0.749854 0.000000 
0.777645 0.722105 0.000000 
0.713558 0.827011 0.000000 
0.764991 0.767148 0.000000 
0.748584 0.742037 0.000000 
0.780448 0.774968 0.000000 
0.750487 0.776623 0.000000 
0.734078 0.751513 0.000000 
0.747697 0.722676 0.000000 
0.794948 0.765487 0.000000 
0.751536 0.795077 0.000000 
0.735029 0.768805 0.000000 
0.720524 0.778279 0.000000 
0.719086 0.795410 0.000000 
0.734640 0.804386 0.000000 
0.698545 0.806087 0.000000 
0.705071 0.770464 0.000000 
0.686579 0.779920 0.000000 
0.704122 0.753176 0.000000 
0.681490 0.798411 0.000000 
0.660945 0.808046 0.000000 
0.665234 0.771383 0.000000 
0.688664 0.745357 0.000000 
0.718624 0.743697 0.000000 
0.668267 0.754110 0.000000 
0.687715 0.728066 0.000000 
0.717676 0.726409 0.000000 
0.670786 0.713816 0.000000 
0.702228 0.718596 0.000000 
0.701287 0.701308 0.000000 
0.687483 0.689537 0.000000 
0.691810 0.668980 0.000000 
0.715775 0.691822 0.000000 
0.710114 0.671817 0.000000 
0.731294 0.697568 0.000000 
0.746799 0.686564 0.000000 
0.786506 0.651235 0.000000 
0.682565 0.835809 0.000000 
0.695011 0.820992 0.000000 
0.708706 0.631181 0.000000 
0.825258 0.806826 0.000000 
0.819155 0.823965 0.000000 
0.811760 0.794398 0.000000 
0.794175 0.799911 0.000000 
0.790133 0.817164 0.000000 
0.771620 0.818771 0.000000 
0.765675 0.802068 0.000000 
0.780084 0.791435 0.000000 
0.625171 0.747510 0.000000 
0.846570 0.778585 0.000000 
0.827019 0.771112 0.000000 
0.732244 0.714862 0.000000 
0.771812 0.860099 0.000000 
0.777618 0.880436 0.000000 
0.632700 0.697603 0.000000 
0.671503 0.692579 0.000000 
0.762260 0.712220 0.000000 
0.759049 0.627348 0.000000 
0.711058 0.842821 0.000000 
0.681936 0.654883 0.000000 
0.855631 0.791274 0.000000 
0.878758 0.791043 0.000000 
0.851409 0.683599 0.000000 
0.865654 0.665364 0.000000 
0.644792 0.780108 0.000000 
0.668174 0.841816 0.000000 
0.663237 0.864416 0.000000 
0.801621 0.828795 0.000000 
0.842577 0.748218 0.000000 
0.812170 0.776443 0.000000 
0.804573 0.653365 0.000000 
0.645590 0.798278 0.000000 
0.849736 0.731485 0.000000 
0.757797 0.658351 0.000000 
0.744767 0.671192 0.000000 
0.748291 0.641046 0.000000 
0.723601 0.662191 0.000000 
0.601862 0.683588 0.000000 
0.725096 0.642814 0.000000 
0.655854 0.730939 0.000000 
0.638624 0.724012 0.000000 
VECTORS X_EC float 
0.029713 -0.115912 0.000000 
0.818063 -0.216133 0.000000 
-0.726816 -0.035612 0.000000 
0.694411 0.497610 0.000000 
-0.858336 0.071450 0.000000 
0.168012 0.993726 0.000000 
0.849823 -0.211578 0.000000 
-0.359275 -0.122426 0.000000 
-0.755514 0.962237 0.000000 
0.962762 0.483012 0.000000 
-0.505618 -0.397378 0.000000 
0.256208 0.772976 0.000000 
-0.654436 0.789064 0.000000 
0.182720 -0.396632 0.000000 
-0.167544 0.349597 0.000000 
0.456279 0.973978 0.000000 
-0.317158 -0.985588 0.000000 
-0.443868 -0.987511 0.000000 
0.506063 0.096942 0.000000 
0.007453 0.985121 0.000000 
0.407037 -0.061617 0.000000 
0.114313 -0.679964 0.000000 
-0.841473 0.237210 0.000000 
0.733043 -0.234872 0.000000 
-0.725624 0.438072 0.000000 
0.821047 0.542944 0.000000 
0.005799 0.446662 0.000000 
-0.782349 -0.658908 0.000000 
-0.324048 0.445514 0.000000 
0.856398 0.545220 0.000000 
-0.510997 0.726025 0.000000 
0.968520 -0.154312 0.000000 
0.570201 0.289851 0.000000 
-0.444891 -0.686384 0.000000 
-0.334439 -0.655968 0.000000 
0.401445 0.391401 0.000000 
-0.036093 -0.727382 0.000000 
0.176548 0.729059 0.000000 
-0.581397 -0.424812 0.000000 
0.284718 -0.437779 0.000000 
0.429817 -0.634023 0.000000 
-0.162156 -0.018566 0.000000 
0.235519 -0.373593 0.000000 
0.585109 -0.321541 0.000000 
0.789483 -0.578984 0.000000 
0.705086 -0.015802 0.000000 
0.655853 -0.856893 0.000000 
0.330272 -0.905829 0.000000 
0.822733 0.851519 0.000000 
0.569822 0.616854 0.000000 
-0.869459 -0.549119 0.000000 
-0.960025 0.055157 0.000000 
0.496619 0.209362 0.000000 
0.574835 0.528711 0.000000 
0.170841 0.161345 0.000000 
0.264161 0.679291 0.000000 
-0.667097 -0.829279 0.000000 
-0.738998 -0.220736 0.000000 
-0.877237 0.349641 0.000000 
0.012629 -0.985245 0.000000 
0.189805 -0.679501 0.000000 
0.518457 -0.680136 0.000000 
0.025536 -0.395195 0.000000 
0.654147 -0.958899 0.000000 
0.489436 0.756001 0.000000 
0.994341 0.984304 0.000000 
-0.979782 0.640240 0.000000 
0.707694 -0.394996 0.000000 
0.178802 -0.089252 0.000000 
-0.290790 -0.423003 0.000000 
-0.543301 -0.188449 0.000000 
-0.456331 -0.707534 0.000000 
-0.854765 -0.337453 0.000000 
-0.947126 -0.411445 0.000000 
0.532306 -0.088418 0.000000 
-0.055286 0.162622 0.000000 
0.867170 0.146879 0.000000 
-0.755079 0.300533 0.000000 
-0.828298 0.640942 0.000000 
-0.569582 0.400183 0.000000 
-0.643815 0.080358 0.000000 
-0.256009 0.497007 0.000000 
-0.954338 0.014744 0.000000 
0.804221 0.238663 0.000000 
0.872502 -0.283007 0.000000 
0.530724 -0.231384 0.000000 
-0.407866 -0.167200 0.000000 
0.007998 0.280032 0.000000 
-0.212880 0.811440 0.000000 
0.071609 -0.994408 0.000000 
-0.453732 -0.963835 0.000000 
-0.005084 -0.657294 0.000000 
-0.501002 -0.499281 0.000000 