# vtk DataFile Version 3.0 
vtk output 
ASCII 
DATASET UNSTRUCTURED_GRID 
POINTS 616 float 
0.270735 0.475218 0.000000 
0.166016 0.135816 0.000000 
0.474929 0.313200 0.000000 
0.101557 0.341881 0.000000 
0.380366 0.119748 0.000000 
0.326257 0.468379 0.000000 
0.166041 0.434142 0.000000 
0.270714 0.094726 0.000000 
0.424568 0.414461 0.000000 
0.100938 0.228498 0.000000 
0.456869 0.202187 0.000000 
0.215207 0.463871 0.000000 
0.216290 0.109460 0.000000 
0.456902 0.367779 0.000000 
0.094196 0.284984 0.000000 
0.425466 0.154072 0.000000 
0.127356 0.392459 0.000000 
0.327426 0.098975 0.000000 
0.381511 0.451570 0.000000 
0.126061 0.176313 0.000000 
0.473635 0.256526 0.000000 
0.242539 0.470975 0.000000 
0.188684 0.118808 0.000000 
0.464988 0.340238 0.000000 
0.098584 0.312887 0.000000 
0.403927 0.135809 0.000000 
0.298868 0.476433 0.000000 
0.143688 0.415727 0.000000 
0.299089 0.092983 0.000000 
0.403881 0.434055 0.000000 
0.113083 0.202205 0.000000 
0.469018 0.228476 0.000000 
0.191087 0.448151 0.000000 
0.242518 0.098976 0.000000 
0.443883 0.393634 0.000000 
0.096325 0.256550 0.000000 
0.440379 0.178699 0.000000 
0.113097 0.367765 0.000000 
0.355556 0.105868 0.000000 
0.354739 0.462596 0.000000 
0.145113 0.155213 0.000000 
0.475767 0.284960 0.000000 
0.257867 0.464925 0.000000 
0.260498 0.447456 0.000000 
0.247647 0.437232 0.000000 
0.275790 0.441471 0.000000 
0.233744 0.443901 0.000000 
0.231266 0.460173 0.000000 
0.219186 0.435552 0.000000 
0.207433 0.448187 0.000000 
0.249163 0.420190 0.000000 
0.279360 0.424741 0.000000 
0.287033 0.451897 0.000000 
0.303006 0.448005 0.000000 
0.284609 0.468174 0.000000 
0.310524 0.463539 0.000000 
0.235173 0.410066 0.000000 
0.265584 0.413683 0.000000 
0.294081 0.420620 0.000000 
0.127382 0.375979 0.000000 
0.142682 0.367142 0.000000 
0.142664 0.350719 0.000000 
0.156896 0.375366 0.000000 
0.128726 0.343923 0.000000 
0.114459 0.352133 0.000000 
0.125898 0.326920 0.000000 
0.108694 0.325608 0.000000 
0.156934 0.341278 0.000000 
0.172206 0.367724 0.000000 
0.155497 0.391173 0.000000 
0.167221 0.403806 0.000000 
0.141257 0.399429 0.000000 
0.159760 0.419365 0.000000 
0.156125 0.324027 0.000000 
0.172262 0.350059 0.000000 
0.184794 0.379435 0.000000 
0.183961 0.433291 0.000000 
0.191668 0.414418 0.000000 
0.408614 0.418209 0.000000 
0.396599 0.405270 0.000000 
0.380626 0.408976 0.000000 
0.401465 0.389591 0.000000 
0.377363 0.424544 0.000000 
0.388580 0.436660 0.000000 
0.362473 0.433197 0.000000 
0.365069 0.450303 0.000000 
0.368259 0.397180 0.000000 
0.390644 0.376399 0.000000 
0.417229 0.387482 0.000000 
0.426984 0.373287 0.000000 
0.428473 0.399564 0.000000 
0.443858 0.377154 0.000000 
0.351643 0.401832 0.000000 
0.373422 0.380291 0.000000 
0.399278 0.361533 0.000000 
0.105757 0.298050 0.000000 
0.136515 0.297775 0.000000 
0.161186 0.151572 0.000000 
0.173204 0.164522 0.000000 
0.189211 0.160850 0.000000 
0.168347 0.180210 0.000000 
0.192736 0.145749 0.000000 
0.181559 0.133666 0.000000 
0.208684 0.139210 0.000000 
0.206137 0.122145 0.000000 
0.201588 0.172661 0.000000 
0.179202 0.193435 0.000000 
0.152626 0.182364 0.000000 
0.142918 0.196606 0.000000 
0.141411 0.170317 0.000000 
0.126091 0.192793 0.000000 
0.218228 0.168035 0.000000 
0.196436 0.189558 0.000000 
0.173347 0.209681 0.000000 
0.387491 0.134606 0.000000 
0.377538 0.149205 0.000000 
0.384679 0.163993 0.000000 
0.361163 0.147961 0.000000 
0.400100 0.164018 0.000000 
0.409394 0.150433 0.000000 
0.409594 0.177857 0.000000 
0.425665 0.171575 0.000000 
0.375917 0.178690 0.000000 
0.350683 0.161488 0.000000 
0.355566 0.133114 0.000000 
0.339521 0.126818 0.000000 
0.364817 0.119499 0.000000 
0.339496 0.109563 0.000000 
0.384129 0.193881 0.000000 
0.358296 0.177428 0.000000 
0.333541 0.159394 0.000000 
0.466461 0.271362 0.000000 
0.448843 0.272684 0.000000 
0.441735 0.287488 0.000000 
0.439605 0.259107 0.000000 
0.451330 0.299559 0.000000 
0.467744 0.298354 0.000000 
0.446430 0.315611 0.000000 
0.461372 0.324274 0.000000 
0.424784 0.289801 0.000000 
0.422497 0.259349 0.000000 
0.447723 0.245473 0.000000 
0.442642 0.229004 0.000000 
0.464135 0.244215 0.000000 
0.456116 0.218225 0.000000 
0.418027 0.305691 0.000000 
0.414783 0.275240 0.000000 
0.416235 0.243335 0.000000 
0.440352 0.195178 0.000000 
0.425219 0.208836 0.000000 
0.232350 0.113154 0.000000 
0.240874 0.144233 0.000000 
0.311957 0.103279 0.000000 
0.304448 0.118815 0.000000 
0.103501 0.271384 0.000000 
0.119680 0.273824 0.000000 
0.128916 0.260245 0.000000 
0.121936 0.290527 0.000000 
0.122235 0.245490 0.000000 
0.105823 0.244236 0.000000 
0.127313 0.229020 0.000000 
0.113838 0.218244 0.000000 
0.146024 0.260484 0.000000 
0.157139 0.243349 0.000000 
0.151368 0.281311 0.000000 
0.257847 0.105022 0.000000 
0.260481 0.122493 0.000000 
0.275775 0.128476 0.000000 
0.244698 0.128407 0.000000 
0.287260 0.117527 0.000000 
0.284832 0.101247 0.000000 
0.310727 0.135636 0.000000 
0.277785 0.146929 0.000000 
0.295550 0.152801 0.000000 
0.258667 0.156771 0.000000 
0.452071 0.350475 0.000000 
0.431924 0.347120 0.000000 
0.337438 0.456277 0.000000 
0.334440 0.433091 0.000000 
0.219099 0.418759 0.000000 
0.349136 0.422295 0.000000 
0.402385 0.193023 0.000000 
0.139028 0.316465 0.000000 
0.221797 0.149685 0.000000 
0.430070 0.319422 0.000000 
0.297512 0.403660 0.000000 
0.388185 0.348299 0.000000 
0.323086 0.173186 0.000000 
0.200197 0.371543 0.000000 
0.184468 0.222943 0.000000 
0.398932 0.243761 0.000000 
0.236887 0.392841 0.000000 
0.339273 0.389777 0.000000 
0.375110 0.208652 0.000000 
0.170659 0.314630 0.000000 
0.230623 0.180115 0.000000 
0.400850 0.307847 0.000000 
0.306483 0.433457 0.000000 
0.419876 0.360552 0.000000 
0.327976 0.139572 0.000000 
0.181209 0.399710 0.000000 
0.152784 0.210698 0.000000 
0.428262 0.226624 0.000000 
0.286150 0.390773 0.000000 
0.201520 0.219924 0.000000 
0.379104 0.226007 0.000000 
0.364945 0.238794 0.000000 
0.364965 0.255118 0.000000 
0.350814 0.230613 0.000000 
0.383380 0.259247 0.000000 
0.350769 0.264636 0.000000 
0.335469 0.238139 0.000000 
0.356447 0.212610 0.000000 
0.351665 0.281874 0.000000 
0.335403 0.255838 0.000000 
0.320986 0.228743 0.000000 
0.367474 0.293851 0.000000 
0.337176 0.291343 0.000000 
0.305535 0.236544 0.000000 
0.318521 0.209075 0.000000 
0.268942 0.396679 0.000000 
0.290518 0.374130 0.000000 
0.207633 0.202786 0.000000 
0.321722 0.283517 0.000000 
0.275812 0.364218 0.000000 
0.308436 0.373593 0.000000 
0.321487 0.389835 0.000000 
0.307210 0.292976 0.000000 
0.320846 0.265250 0.000000 
0.256738 0.370144 0.000000 
0.308153 0.310269 0.000000 
0.291763 0.285153 0.000000 
0.323609 0.318100 0.000000 
0.293654 0.319743 0.000000 
0.277259 0.294623 0.000000 
0.290889 0.265795 0.000000 
0.338119 0.308632 0.000000 
0.294699 0.338205 0.000000 
0.278205 0.311917 0.000000 
0.263706 0.321392 0.000000 
0.262269 0.338531 0.000000 
0.277813 0.347518 0.000000 
0.241734 0.349206 0.000000 
0.248258 0.313568 0.000000 
0.229778 0.323026 0.000000 
0.247311 0.296272 0.000000 
0.224691 0.341525 0.000000 
0.204154 0.351161 0.000000 
0.208448 0.314486 0.000000 
0.231864 0.288451 0.000000 
0.261813 0.286802 0.000000 
0.211481 0.297206 0.000000 
0.230918 0.271157 0.000000 
0.260870 0.269510 0.000000 
0.213999 0.256899 0.000000 
0.245421 0.261686 0.000000 
0.244476 0.244393 0.000000 
0.230693 0.232622 0.000000 
0.235041 0.212072 0.000000 
0.258981 0.234925 0.000000 
0.253346 0.214925 0.000000 
0.274498 0.240682 0.000000 
0.290021 0.229696 0.000000 
0.329779 0.194430 0.000000 
0.225757 0.378935 0.000000 
0.238204 0.364119 0.000000 
0.251986 0.174303 0.000000 
0.368377 0.349959 0.000000 
0.362250 0.367087 0.000000 
0.354898 0.337537 0.000000 
0.337310 0.343041 0.000000 
0.333255 0.360296 0.000000 
0.314763 0.361913 0.000000 
0.308829 0.345203 0.000000 
0.323235 0.334567 0.000000 
0.168414 0.290604 0.000000 
0.389745 0.321768 0.000000 
0.370199 0.314284 0.000000 
0.275441 0.257973 0.000000 
0.314933 0.403261 0.000000 
0.320731 0.423602 0.000000 
0.175935 0.240669 0.000000 
0.214719 0.235657 0.000000 
0.305461 0.255352 0.000000 
0.302344 0.170530 0.000000 
0.254236 0.385961 0.000000 
0.225181 0.197969 0.000000 
0.398778 0.334443 0.000000 
0.421931 0.334257 0.000000 
0.394677 0.226845 0.000000 
0.408938 0.208632 0.000000 
0.188013 0.323210 0.000000 
0.211368 0.384938 0.000000 
0.206424 0.407537 0.000000 
0.344717 0.371920 0.000000 
0.385796 0.291431 0.000000 
0.355334 0.319597 0.000000 
0.347847 0.196578 0.000000 
0.188807 0.341388 0.000000 
0.392970 0.274713 0.000000 
0.301059 0.201514 0.000000 
0.288008 0.214333 0.000000 
0.291572 0.184211 0.000000 
0.266850 0.205317 0.000000 
0.145110 0.226640 0.000000 
0.268366 0.185949 0.000000 
0.199080 0.274025 0.000000 
0.181866 0.267097 0.000000 
0.700771 0.905274 0.000000 
0.596124 0.565954 0.000000 
0.904956 0.743242 0.000000 
0.531590 0.771932 0.000000 
0.810400 0.549795 0.000000 
0.756268 0.898419 0.000000 
0.596072 0.864191 0.000000 
0.700749 0.524785 0.000000 
0.854885 0.844787 0.000000 
0.530947 0.658510 0.000000 
0.886902 0.632233 0.000000 
0.645241 0.893918 0.000000 
0.646289 0.539491 0.000000 
0.886917 0.797795 0.000000 
0.524234 0.715039 0.000000 
0.855500 0.584119 0.000000 
0.557389 0.822505 0.000000 
0.757461 0.529023 0.000000 
0.811518 0.881607 0.000000 
0.556123 0.606371 0.000000 
0.903670 0.686580 0.000000 
0.672574 0.901025 0.000000 
0.618697 0.548854 0.000000 
0.895000 0.770258 0.000000 
0.528619 0.742941 0.000000 
0.833959 0.565857 0.000000 
0.728903 0.906494 0.000000 
0.573721 0.845775 0.000000 
0.729124 0.523037 0.000000 
0.833982 0.864182 0.000000 
0.543102 0.632223 0.000000 
0.899052 0.658526 0.000000 
0.621119 0.878199 0.000000 
0.672524 0.529014 0.000000 
0.873938 0.823686 0.000000 
0.526354 0.686593 0.000000 
0.870413 0.608744 0.000000 
0.543129 0.797813 0.000000 
0.785591 0.535914 0.000000 
0.784729 0.892618 0.000000 
0.575439 0.585547 0.000000 
0.905804 0.715015 0.000000 
0.687903 0.894978 0.000000 
0.690536 0.877507 0.000000 
0.677685 0.867282 0.000000 
[...]
POINT_DATA 616 
VECTORS X_GC float 
0.270735 0.475218 0.000000 
0.166016 0.135816 0.000000 
0.474929 0.313200 0.000000 
0.101557 0.341881 0.000000 
0.380366 0.119748 0.000000 
0.326257 0.468379 0.000000 
0.166041 0.434142 0.000000 
0.270714 0.094726 0.000000 
0.424568 0.414461 0.000000 
0.100938 0.228498 0.000000 
0.456869 0.202187 0.000000 
0.215207 0.463871 0.000000 
0.216290 0.109460 0.000000 
0.456902 0.367779 0.000000 
0.094196 0.284984 0.000000 
0.425466 0.154072 0.000000 
0.127356 0.392459 0.000000 
0.327426 0.098975 0.000000 
0.381511 0.451570 0.000000 
0.126061 0.176313 0.000000 
0.473635 0.256526 0.000000 
0.242539 0.470975 0.000000 
0.188684 0.118808 0.000000 
0.464988 0.340238 0.000000 
0.098584 0.312887 0.000000 
0.403927 0.135809 0.000000 
0.298868 0.476433 0.000000 
0.143688 0.415727 0.000000 
0.299089 0.092983 0.000000 
0.403881 0.434055 0.000000 
0.113083 0.202205 0.000000 
0.469018 0.228476 0.000000 
0.191087 0.448151 0.000000 
0.242518 0.098976 0.000000 
0.443883 0.393634 0.000000 
0.096325 0.256550 0.000000 
0.440379 0.178699 0.000000 
0.113097 0.367765 0.000000 
0.355556 0.105868 0.000000 
0.354739 0.462596 0.000000 
0.145113 0.155213 0.000000 
0.475767 0.284960 0.000000 
0.257867 0.464925 0.000000 
0.260498 0.447456 0.000000 
0.247647 0.437232 0.000000 
0.275790 0.441471 0.000000 
0.233744 0.443901 0.000000 
0.231266 0.460173 0.000000 
0.219186 0.435552 0.000000 
0.207433 0.448187 0.000000 
0.249163 0.420190 0.000000 
0.279360 0.424741 0.000000 
0.287033 0.451897 0.000000 
0.303006 0.448005 0.000000 
0.284609 0.468174 0.000000 
0.310524 0.463539 0.000000 
0.235173 0.410066 0.000000 
0.265584 0.413683 0.000000 
0.294081 0.420620 0.000000 
0.127382 0.375979 0.000000 
0.142682 0.367142 0.000000 
0.142664 0.350719 0.000000 
0.156896 0.375366 0.000000 
0.128726 0.343923 0.000000 
0.114459 0.352133 0.000000 
0.125898 0.326920 0.000000 
0.108694 0.325608 0.000000 
0.156934 0.341278 0.000000 
0.172206 0.367724 0.000000 
0.155497 0.391173 0.000000 
0.167221 0.403806 0.000000 
0.141257 0.399429 0.000000 
0.159760 0.419365 0.000000 
0.156125 0.324027 0.000000 
0.172262 0.350059 0.000000 
0.184794 0.379435 0.000000 
0.183961 0.433291 0.000000 
0.191668 0.414418 0.000000 
0.408614 0.418209 0.000000 
0.396599 0.405270 0.000000 
0.380626 0.408976 0.000000 
0.401465 0.389591 0.000000 
0.377363 0.424544 0.000000 
0.388580 0.436660 0.000000 
0.362473 0.433197 0.000000 
0.365069 0.450303 0.000000 
0.368259 0.397180 0.000000 
0.390644 0.376399 0.000000 
0.417229 0.387482 0.000000 
0.426984 0.373287 0.000000 
0.428473 0.399564 0.000000 
0.443858 0.377154 0.000000 
0.351643 0.401832 0.000000 
0.373422 0.380291 0.000000 
0.399278 0.361533 0.000000 
0.105757 0.298050 0.000000 
0.136515 0.297775 0.000000 
0.161186 0.151572 0.000000 
0.173204 0.164522 0.000000 
0.189211 0.160850 0.000000 
0.168347 0.180210 0.000000 
0.192736 0.145749 0.000000 
0.181559 0.133666 0.000000 
0.208684 0.139210 0.000000 
0.206137 0.122145 0.000000 
0.201588 0.172661 0.000000 
0.179202 0.193435 0.000000 
0.152626 0.182364 0.000000 
0.142918 0.196606 0.000000 
0.141411 0.170317 0.000000 
0.126091 0.192793 0.000000 
0.218228 0.168035 0.000000 
0.196436 0.189558 0.000000 
0.173347 0.209681 0.000000 
0.387491 0.134606 0.000000 
0.377538 0.149205 0.000000 
0.384679 0.163993 0.000000 
0.361163 0.147961 0.000000 
0.400100 0.164018 0.000000 
0.409394 0.150433 0.000000 
0.409594 0.177857 0.000000 
0.425665 0.171575 0.000000 
0.375917 0.178690 0.000000 
0.350683 0.161488 0.000000 
0.355566 0.133114 0.000000 
0.339521 0.126818 0.000000 
0.364817 0.119499 0.000000 
0.339496 0.109563 0.000000 
0.384129 0.193881 0.000000 
0.358296 0.177428 0.000000 
0.333541 0.159394 0.000000 
0.466461 0.271362 0.000000 
0.448843 0.272684 0.000000 
0.441735 0.287488 0.000000 
0.439605 0.259107 0.000000 
0.451330 0.299559 0.000000 
0.467744 0.298354 0.000000 
0.446430 0.315611 0.000000 
0.461372 0.324274 0.000000 
0.424784 0.289801 0.000000 
0.422497 0.259349 0.000000 
0.447723 0.245473 0.000000 
0.442642 0.229004 0.000000 
0.464135 0.244215 0.000000 
0.456116 0.218225 0.000000 
0.418027 0.305691 0.000000 
0.414783 0.275240 0.000000 
0.416235 0.243335 0.000000 
0.440352 0.195178 0.000000 
0.425219 0.208836 0.000000 
0.232350 0.113154 0.000000 
0.240874 0.144233 0.000000 
0.311957 0.103279 0.000000 
0.304448 0.118815 0.000000 
0.103501 0.271384 0.000000 
0.119680 0.273824 0.000000 
0.128916 0.260245 0.000000 
0.121936 0.290527 0.000000 
0.122235 0.245490 0.000000 
0.105823 0.244236 0.000000 
0.127313 0.229020 0.000000 
0.113838 0.218244 0.000000 
0.146024 0.260484 0.000000 
0.157139 0.243349 0.000000 
0.151368 0.281311 0.000000 
0.257847 0.105022 0.000000 
0.260481 0.122493 0.000000 
0.275775 0.128476 0.000000 
0.244698 0.128407 0.000000 
0.287260 0.117527 0.000000 
0.284832 0.101247 0.000000 
0.310727 0.135636 0.000000 
0.277785 0.146929 0.000000 
0.295550 0.152801 0.000000 
0.258667 0.156771 0.000000 
0.452071 0.350475 0.000000 
0.431924 0.347120 0.000000 
0.337438 0.456277 0.000000 
0.334440 0.433091 0.000000 
0.219099 0.418759 0.000000 
0.349136 0.422295 0.000000 
0.402385 0.193023 0.000000 
0.139028 0.316465 0.000000 
0.221797 0.149685 0.000000 
0.430070 0.319422 0.000000 
0.297512 0.403660 0.000000 
0.388185 0.348299 0.000000 
0.323086 0.173186 0.000000 
0.200197 0.371543 0.000000 
0.184468 0.222943 0.000000 
0.398932 0.243761 0.000000 
0.236887 0.392841 0.000000 
0.339273 0.389777 0.000000 
0.375110 0.208652 0.000000 
0.170659 0.314630 0.000000 
0.230623 0.180115 0.000000 
0.400850 0.307847 0.000000 
0.306483 0.433457 0.000000 
0.419876 0.360552 0.000000 
0.327976 0.139572 0.000000 
0.181209 0.399710 0.000000 
0.152784 0.210698 0.000000 
0.428262 0.226624 0.000000 
0.286150 0.390773 0.000000 
0.201520 0.219924 0.000000 
0.379104 0.226007 0.000000 
0.364945 0.238794 0.000000 
0.364965 0.255118 0.000000 
0.350814 0.230613 0.000000 
0.383380 0.259247 0.000000 
0.350769 0.264636 0.000000 
0.335469 0.238139 0.000000 
0.356447 0.212610 0.000000 
0.351665 0.281874 0.000000 
0.335403 0.255838 0.000000 
0.320986 0.228743 0.000000 
0.367474 0.293851 0.000000 
0.337176 0.291343 0.000000 
0.305535 0.236544 0.000000 
0.318521 0.209075 0.000000 
0.268942 0.396679 0.000000 
0.290518 0.374130 0.000000 
0.207633 0.202786 0.000000 
0.321722 0.283517 0.000000 
0.275812 0.364218 0.000000 
0.308436 0.373593 0.000000 
0.321487 0.389835 0.000000 
0.307210 0.292976 0.000000 
0.320846 0.265250 0.000000 
0.256738 0.370144 0.000000 
0.308153 0.310269 0.000000 
0.291763 0.285153 0.000000 
0.323609 0.318100 0.000000 
0.293654 0.319743 0.000000 
0.277259 0.294623 0.000000 
0.290889 0.265795 0.000000 
0.338119 0.308632 0.000000 
0.294699 0.338205 0.000000 
0.278205 0.311917 0.000000 
0.263706 0.321392 0.000000 
0.262269 0.338531 0.000000 
0.277813 0.347518 0.000000 
0.241734 0.349206 0.000000 
0.248258 0.313568 0.000000 
0.229778 0.323026 0.000000 
0.247311 0.296272 0.000000 
0.224691 0.341525 0.000000 
0.204154 0.351161 0.000000 
0.208448 0.314486 0.000000 
0.231864 0.288451 0.000000 
0.261813 0.286802 0.000000 
0.211481 0.297206 0.000000 
0.230918 0.271157 0.000000 
0.260870 0.269510 0.000000 
0.213999 0.256899 0.000000 
0.245421 0.261686 0.000000 
0.244476 0.244393 0.000000 
0.230693 0.232622 0.000000 
0.235041 0.212072 0.000000 
0.258981 0.234925 0.000000 
0.253346 0.214925 0.000000 
0.274498 0.240682 0.000000 
0.290021 0.229696 0.000000 
0.329779 0.194430 0.000000 
0.225757 0.378935 0.000000 
0.238204 0.364119 0.000000 
0.251986 0.174303 0.000000 
0.368377 0.349959 0.000000 
0.362250 0.367087 0.000000 
0.354898 0.337537 0.000000 
0.337310 0.343041 0.000000 
0.333255 0.360296 0.000000 
0.314763 0.361913 0.000000 
0.308829 0.345203 0.000000 
0.323235 0.334567 0.000000 
0.168414 0.290604 0.000000 
0.389745 0.321768 0.000000 
0.370199 0.314284 0.000000 
0.275441 0.257973 0.000000 
0.314933 0.403261 0.000000 
0.320731 0.423602 0.000000 
0.175935 0.240669 0.000000 
0.214719 0.235657 0.000000 
0.305461 0.255352 0.000000 
0.302344 0.170530 0.000000 
0.254236 0.385961 0.000000 
0.225181 0.197969 0.000000 
0.398778 0.334443 0.000000 
0.421931 0.334257 0.000000 
0.394677 0.226845 0.000000 
0.408938 0.208632 0.000000 
0.188013 0.323210 0.000000 
0.211368 0.384938 0.000000 
0.206424 0.407537 0.000000 
0.344717 0.371920 0.000000 
0.385796 0.291431 0.000000 
0.355334 0.319597 0.000000 
0.347847 0.196578 0.000000 
0.188807 0.341388 0.000000 
0.392970 0.274713 0.000000 
0.301059 0.201514 0.000000 
0.288008 0.214333 0.000000 
0.291572 0.184211 0.000000 
0.266850 0.205317 0.000000 
0.145110 0.226640 0.000000 
0.268366 0.185949 0.000000 
0.199080 0.274025 0.000000 
0.181866 0.267097 0.000000 
0.700771 0.905274 0.000000 
0.596124 0.565954 0.000000 
0.904956 0.743242 0.000000 
0.531590 0.771932 0.000000 
0.810400 0.549795 0.000000 
0.756268 0.898419 0.000000 
0.596072 0.864191 0.000000 
0.700749 0.524785 0.000000 
0.854885 0.844787 0.000000 
0.530947 0.658510 0.000000 
0.886902 0.632233 0.000000 
0.645241 0.893918 0.000000 
0.646289 0.539491 0.000000 
0.886917 0.797795 0.000000 
0.524234 0.715039 0.000000 
0.855500 0.584119 0.000000 
0.557389 0.822505 0.000000 
0.757461 0.529023 0.000000 
0.811518 0.881607 0.000000 
0.556123 0.606371 0.000000 
0.903670 0.686580 0.000000 
0.672574 0.901025 0.000000 
0.618697 0.548854 0.000000 
0.895000 0.770258 0.000000 
0.528619 0.742941 0.000000 
0.833959 0.565857 0.000000 
0.728903 0.906494 0.000000 
0.573721 0.845775 0.000000 
0.729124 0.523037 0.000000 
0.833982 0.864182 0.000000 
0.543102 0.632223 0.000000 
0.899052 0.658526 0.000000 
0.621119 0.878199 0.000000 
0.672524 0.529014 0.000000 
0.873938 0.823686 0.000000 
0.526354 0.686593 0.000000 
0.870413 0.608744 0.000000 
0.543129 0.797813 0.000000 
0.785591 0.535914 0.000000 
0.784729 0.892618 0.000000 
0.575439 0.585547 0.000000 
0.905804 0.715015 0.000000 
0.687903 0.894978 0.000000 
0.690536 0.877507 0.000000 
0.677685 0.867282 0.000000 
0.705830 0.871523 0.000000 
0.663780 0.873951 0.000000 
0.661301 0.890222 0.000000 
0.649222 0.865602 0.000000 
0.637467 0.878235 0.000000 
0.679203 0.850240 0.000000 
0.709402 0.854790 0.000000 
0.717073 0.881952 0.000000 
0.733046 0.878060 0.000000 
0.714646 0.898231 0.000000 
0.740556 0.893595 0.000000 
0.665212 0.840117 0.000000 
0.695626 0.843732 0.000000 
0.724125 0.850669 0.000000 
0.557416 0.806027 0.000000 
0.572718 0.797192 0.000000 
0.572699 0.780770 0.000000 
0.586933 0.805417 0.000000 
0.558760 0.773974 0.000000 
0.544492 0.782183 0.000000 
0.555932 0.756973 0.000000 
0.538728 0.755660 0.000000 
0.586969 0.771330 0.000000 
0.602244 0.797777 0.000000 
0.585533 0.821223 0.000000 
0.597257 0.833857 0.000000 
0.571291 0.829476 0.000000 
0.589793 0.849414 0.000000 
0.586159 0.754080 0.000000 
0.602299 0.780112 0.000000 
0.614833 0.809489 0.000000 
0.613994 0.863341 0.000000 
0.621703 0.844471 0.000000 
0.838813 0.848427 0.000000 
0.826794 0.835477 0.000000 
0.810787 0.839149 0.000000 
0.831651 0.819789 0.000000 
0.807466 0.854665 0.000000 
0.818643 0.866748 0.000000 
0.792539 0.863283 0.000000 
0.795086 0.880348 0.000000 
0.798409 0.827337 0.000000 
0.820796 0.806564 0.000000 
0.847372 0.817635 0.000000 
0.857081 0.803394 0.000000 
0.858588 0.829682 0.000000 
0.873908 0.807207 0.000000 
0.781770 0.831963 0.000000 
0.803561 0.810441 0.000000 
0.829414 0.791684 0.000000 
0.535793 0.728106 0.000000 
0.566549 0.727831 0.000000 
0.591393 0.581800 0.000000 
0.603408 0.594739 0.000000 
0.619380 0.591031 0.000000 
0.598541 0.610417 0.000000 
0.622847 0.575879 0.000000 
0.611630 0.563765 0.000000 
0.638762 0.569308 0.000000 
0.636166 0.552203 0.000000 
0.631746 0.602825 0.000000 
0.609361 0.623607 0.000000 
0.582777 0.612525 0.000000 
0.573021 0.626718 0.000000 
0.571534 0.600443 0.000000 
0.556147 0.622850 0.000000 
0.648361 0.598172 0.000000 
0.626582 0.619714 0.000000 
0.603483 0.639835 0.000000 
0.817525 0.564655 0.000000 
0.807574 0.579255 0.000000 
0.814716 0.594044 0.000000 
0.791199 0.578012 0.000000 
0.830136 0.594067 0.000000 
0.839428 0.580481 0.000000 
0.839630 0.607905 0.000000 
0.855700 0.601621 0.000000 
0.805956 0.608743 0.000000 
0.780722 0.591539 0.000000 
0.785602 0.563162 0.000000 
0.769558 0.556866 0.000000 
0.794851 0.549545 0.000000 
0.769532 0.539611 0.000000 
0.814169 0.623933 0.000000 
0.788337 0.607482 0.000000 
0.763582 0.589444 0.000000 
0.896497 0.701417 0.000000 
0.878879 0.702738 0.000000 
0.871770 0.717542 0.000000 
0.869641 0.689159 0.000000 
0.881365 0.729614 0.000000 
0.897781 0.728409 0.000000 
0.876466 0.745665 0.000000 
0.891397 0.754313 0.000000 
0.854817 0.719856 0.000000 
0.852533 0.689401 0.000000 
0.877759 0.675524 0.000000 
0.872677 0.659054 0.000000 
0.894170 0.674266 0.000000 
0.886150 0.648274 0.000000 
0.848062 0.735750 0.000000 
0.844818 0.705294 0.000000 
0.846272 0.673386 0.000000 
0.870387 0.625224 0.000000 
0.855256 0.638884 0.000000 
0.662368 0.543199 0.000000 
0.670940 0.574308 0.000000 
0.741993 0.533330 0.000000 
0.734486 0.548865 0.000000 
0.533538 0.701439 0.000000 
0.549716 0.703880 0.000000 
0.558952 0.690303 0.000000 
0.551971 0.720583 0.000000 
0.552272 0.675544 0.000000 
0.535848 0.674272 0.000000 
0.557360 0.659079 0.000000 
0.543863 0.648273 0.000000 
0.576062 0.690546 0.000000 
0.587206 0.673440 0.000000 
0.581400 0.711368 0.000000 
0.687877 0.535076 0.000000 
0.690521 0.552548 0.000000 
0.705817 0.558528 0.000000 
0.674742 0.558467 0.000000 
0.717299 0.547579 0.000000 
0.714869 0.531302 0.000000 
0.740767 0.565685 0.000000 
0.707830 0.576978 0.000000 
0.725593 0.582850 0.000000 
0.688725 0.586829 0.000000 
0.882100 0.780512 0.000000 
0.861988 0.777198 0.000000 
0.767456 0.886321 0.000000 
0.764495 0.863161 0.000000 
0.649136 0.848811 0.000000 
0.779222 0.852393 0.000000 
0.832424 0.623073 0.000000 
0.569061 0.746519 0.000000 
0.651891 0.579790 0.000000 
0.860115 0.749487 0.000000 
0.727560 0.833707 0.000000 
0.818293 0.778423 0.000000 
0.753130 0.603239 0.000000 
0.630237 0.801598 0.000000 
0.614576 0.653068 0.000000 
0.828970 0.673813 0.000000 
0.666929 0.822895 0.000000 
0.769375 0.819883 0.000000 
0.805151 0.638707 0.000000 
0.600694 0.744685 0.000000 
0.660730 0.610226 0.000000 
0.830890 0.737909 0.000000 
0.736527 0.863510 0.000000 
0.849977 0.790667 0.000000 
0.758015 0.569621 0.000000 
0.611246 0.829763 0.000000 
0.582895 0.640826 0.000000 
0.858298 0.656674 0.000000 
0.716199 0.820826 0.000000 
0.631625 0.650044 0.000000 
0.809147 0.656063 0.000000 
0.794991 0.668855 0.000000 
0.795014 0.685181 0.000000 
0.780864 0.660677 0.000000 
0.813423 0.689305 0.000000 
0.780827 0.694708 0.000000 
0.765527 0.668211 0.000000 
0.786492 0.642668 0.000000 
0.781724 0.711949 0.000000 
0.765467 0.685916 0.000000 
0.751046 0.658816 0.000000 
0.797525 0.723920 0.000000 
0.767244 0.721428 0.000000 
0.735604 0.666626 0.000000 
0.748573 0.639139 0.000000 
0.698987 0.826730 0.000000 
0.720572 0.804190 0.000000 
0.637753 0.632917 0.000000 
0.751799 0.713610 0.000000 
0.705866 0.794282 0.000000 
0.738498 0.803660 0.000000 
0.751564 0.819914 0.000000 
0.737296 0.723078 0.000000 
0.750920 0.695340 0.000000 
0.686786 0.800204 0.000000 
0.738239 0.740370 0.000000 
0.721849 0.715256 0.000000 
0.753687 0.748194 0.000000 
0.723734 0.749838 0.000000 
0.707345 0.724725 0.000000 
0.720974 0.695897 0.000000 
0.768190 0.738720 0.000000 
0.724771 0.768288 0.000000 
0.708286 0.742015 0.000000 
0.693779 0.751481 0.000000 
0.692332 0.768609 0.000000 
0.707876 0.777593 0.000000 
0.671786 0.779273 0.000000 
0.678327 0.743653 0.000000 
0.659834 0.753099 0.000000 
0.677384 0.726363 0.000000 
0.654741 0.771590 0.000000 
0.634195 0.781218 0.000000 
0.638495 0.744550 0.000000 
0.661929 0.718533 0.000000 
0.691897 0.716902 0.000000 
0.641532 0.727275 0.000000 
0.660985 0.701242 0.000000 
0.690956 0.699612 0.000000 
0.644065 0.686983 0.000000 
0.675499 0.691781 0.000000 
0.674555 0.674486 0.000000 
0.660776 0.662718 0.000000 
0.665131 0.642171 0.000000 
0.689059 0.665013 0.000000 
0.683422 0.645008 0.000000 
0.704575 0.670771 0.000000 
0.720089 0.659777 0.000000 
0.759826 0.624487 0.000000 
0.655800 0.808991 0.000000 
0.668250 0.794179 0.000000 
0.682061 0.604377 0.000000 
0.798479 0.780075 0.000000 
0.792365 0.797213 0.000000 
0.784983 0.767636 0.000000 
0.767393 0.773136 0.000000 
0.763341 0.790391 0.000000 
0.744833 0.791991 0.000000 
0.738901 0.775284 0.000000 
0.753313 0.764658 0.000000 
0.598447 0.720660 0.000000 
0.819811 0.751855 0.000000 
0.800261 0.744364 0.000000 
0.705526 0.688072 0.000000 
0.744999 0.833325 0.000000 
0.750789 0.853668 0.000000 
0.606015 0.670771 0.000000 
0.644803 0.665757 0.000000 
0.735539 0.685446 0.000000 
0.732390 0.600580 0.000000 
0.684281 0.816016 0.000000 
0.655286 0.628082 0.000000 
0.828866 0.764550 0.000000 
0.851998 0.764342 0.000000 
0.824717 0.656898 0.000000 
0.838976 0.638681 0.000000 
0.618054 0.753268 0.000000 
0.641408 0.814993 0.000000 
0.636461 0.837591 0.000000 
0.774817 0.802029 0.000000 
0.815837 0.721492 0.000000 
0.785405 0.749685 0.000000 
0.777891 0.626634 0.000000 
0.618847 0.771444 0.000000 
0.823009 0.704770 0.000000 
0.731111 0.631576 0.000000 
0.718069 0.644404 0.000000 
0.721623 0.614266 0.000000 
0.696913 0.635386 0.000000 
0.575185 0.656732 0.000000 
0.698422 0.616007 0.000000 
0.629127 0.704094 0.000000 
0.611905 0.697161 0.000000 
VECTORS X_EC float 
-0.504355 0.414701 0.000000 
0.283673 0.320317 0.000000 
0.735996 0.498588 0.000000 
0.162387 -0.968860 0.000000 
0.605042 0.607328 0.000000 
-0.367580 -0.474861 0.000000 
0.317162 0.320823 0.000000 
-0.894527 0.414276 0.000000 
0.710775 -0.508633 0.000000 
0.430034 -0.981239 0.000000 
0.956266 0.137373 0.000000 
-0.277411 -0.695851 0.000000 
0.810798 -0.674203 0.000000 
-0.355590 0.138043 0.000000 
-0.699684 0.883922 0.000000 
-0.081438 -0.490683 0.000000 
-0.849174 -0.452883 0.000000 
-0.979490 -0.451485 0.000000 
-0.031397 0.630228 0.000000 
-0.526265 -0.478776 0.000000 
-0.130528 0.472696 0.000000 
-0.419490 -0.149225 0.000000 
0.623849 0.773689 0.000000 
0.195233 0.299763 0.000000 
0.742266 0.971676 0.000000 
0.283813 -0.921469 0.000000 
-0.528655 0.977353 0.000000 
0.685464 -0.126240 0.000000 
-0.859669 0.981781 0.000000 
0.318896 -0.922384 0.000000 
0.955892 -0.738349 0.000000 
0.430484 0.380362 0.000000 
0.036971 0.821742 0.000000 
-0.979529 -0.149649 0.000000 
-0.872680 -0.122333 0.000000 
-0.131001 0.926499 0.000000 
-0.573982 -0.192426 0.000000 
-0.355300 -0.738062 0.000000 
0.882636 0.111123 0.000000 
-0.251911 0.094780 0.000000 
-0.104252 -0.097730 0.000000 
-0.699209 0.515338 0.000000 
-0.298508 0.157347 0.000000 
0.050886 0.209965 0.000000 
0.255362 -0.047057 0.000000 
0.170577 0.515805 0.000000 
0.121988 -0.325122 0.000000 
-0.203468 -0.374673 0.000000 
0.288955 -0.616275 0.000000 
0.036269 -0.851337 0.000000 
0.596205 -0.016736 0.000000 
0.505190 0.587202 0.000000 
-0.037941 0.740669 0.000000 
0.039907 -0.939881 0.000000 
-0.363483 0.692182 0.000000 
-0.270773 -0.789521 0.000000 
0.798684 -0.296544 0.000000 
0.726339 0.311683 0.000000 
0.587596 0.881617 0.000000 
-0.519576 -0.452354 0.000000 
-0.342838 -0.146352 0.000000 
-0.014375 -0.146722 0.000000 
-0.507324 0.137928 0.000000 
0.121535 -0.425484 0.000000 
-0.042653 -0.710822 0.000000 
0.461593 -0.482030 0.000000 
0.487847 -0.826124 0.000000 
0.174449 0.138681 0.000000 
-0.354479 0.444110 0.000000 
-0.823462 0.109949 0.000000 
0.923885 0.344427 0.000000 
-0.988575 -0.174861 0.000000 
0.612710 0.195196 0.000000 
0.519459 0.122502 0.000000 
-0.001171 0.445234 0.000000 
-0.588709 0.695889 0.000000 
0.334173 0.679227 0.000000 
0.711634 0.833361 0.000000 
0.635811 -0.827722 0.000000 
0.894594 0.931976 0.000000 
0.820475 0.612514 0.000000 
-0.791829 -0.970693 0.000000 
0.509120 0.547264 0.000000 
0.266804 0.771593 0.000000 
0.336064 0.249454 0.000000 
-0.006066 0.301385 0.000000 
-0.943607 0.365174 0.000000 
-0.527988 0.812873 0.000000 
-0.749636 -0.655411 0.000000 
-0.465745 -0.460326 0.000000 
-0.991272 -0.430546 0.000000 
-0.543082 -0.122842 0.000000 
0.963351 0.032865 0.000000 