# vtk DataFile Version 3.0 
vtk output 
ASCII 
DATASET UNSTRUCTURED_GRID 
POINTS 616 float 
0.235743 0.440247 0.000000 
0.131050 0.100842 0.000000 
0.439931 0.278227 0.000000 
0.066575 0.306893 0.000000 
0.345390 0.084779 0.000000 
0.291239 0.433394 0.000000 
0.131050 0.399158 0.000000 
0.235743 0.059753 0.000000 
0.389852 0.379764 0.000000 
0.065966 0.193514 0.000000 
0.421887 0.167223 0.000000 
0.180217 0.428888 0.000000 
0.181321 0.074487 0.000000 
0.421887 0.332777 0.000000 
0.059219 0.250000 0.000000 
0.390489 0.119105 0.000000 
0.092370 0.357470 0.000000 
0.292453 0.064003 0.000000 
0.346487 0.416582 0.000000 
0.091094 0.141334 0.000000 
0.438650 0.221566 0.000000 
0.207547 0.435997 0.000000 
0.153717 0.083834 0.000000 
0.429973 0.305241 0.000000 
0.063605 0.277902 0.000000 
0.368950 0.100842 0.000000 
0.263875 0.441469 0.000000 
0.108699 0.380741 0.000000 
0.264118 0.058011 0.000000 
0.368950 0.399158 0.000000 
0.078113 0.167223 0.000000 
0.434034 0.193514 0.000000 
0.156096 0.413168 0.000000 
0.207547 0.064003 0.000000 
0.408906 0.358666 0.000000 
0.061350 0.221566 0.000000 
0.405400 0.143734 0.000000 
0.078113 0.332777 0.000000 
0.320581 0.070898 0.000000 
0.319700 0.427593 0.000000 
0.110148 0.120236 0.000000 
0.440781 0.250000 0.000000 
0.222877 0.429951 0.000000 
0.225510 0.412479 0.000000 
0.212660 0.402254 0.000000 
0.240803 0.406495 0.000000 
0.198756 0.408921 0.000000 
0.196276 0.425194 0.000000 
0.184198 0.400572 0.000000 
0.172444 0.413204 0.000000 
0.214178 0.385210 0.000000 
0.244376 0.389762 0.000000 
0.252045 0.416925 0.000000 
0.268019 0.413033 0.000000 
0.249618 0.433205 0.000000 
0.275528 0.428569 0.000000 
0.200189 0.375086 0.000000 
0.230601 0.378703 0.000000 
0.259098 0.385641 0.000000 
0.092398 0.340992 0.000000 
0.107699 0.332157 0.000000 
0.107682 0.315735 0.000000 
0.121913 0.340383 0.000000 
0.093744 0.308938 0.000000 
0.079476 0.317146 0.000000 
0.090919 0.291936 0.000000 
0.073714 0.290622 0.000000 
0.121954 0.306296 0.000000 
0.137223 0.332743 0.000000 
0.120512 0.356189 0.000000 
0.132235 0.368824 0.000000 
0.106271 0.364442 0.000000 
0.124771 0.384381 0.000000 
0.121147 0.289046 0.000000 
0.137281 0.315078 0.000000 
0.149812 0.344456 0.000000 
0.148972 0.398309 0.000000 
0.156681 0.379439 0.000000 
0.373780 0.383403 0.000000 
0.361762 0.370451 0.000000 
0.345756 0.374122 0.000000 
0.366619 0.354763 0.000000 
0.342435 0.389639 0.000000 
0.353611 0.401723 0.000000 
0.327509 0.398256 0.000000 
0.330056 0.415323 0.000000 
0.333377 0.362309 0.000000 
0.355764 0.341537 0.000000 
0.382341 0.352612 0.000000 
0.392050 0.338371 0.000000 
0.393556 0.364660 0.000000 
0.408878 0.342187 0.000000 
0.316739 0.366934 0.000000 
0.338529 0.345411 0.000000 
0.364382 0.326658 0.000000 
0.070780 0.263067 0.000000 
0.101539 0.262794 0.000000 
0.126220 0.116597 0.000000 
0.138238 0.129549 0.000000 
0.154244 0.125878 0.000000 
0.133381 0.145237 0.000000 
0.157769 0.110777 0.000000 
0.146593 0.098693 0.000000 
0.173716 0.104239 0.000000 
0.171169 0.087173 0.000000 
0.166623 0.137691 0.000000 
0.144236 0.158463 0.000000 
0.117659 0.147388 0.000000 
0.107950 0.161629 0.000000 
0.106444 0.135340 0.000000 
0.091122 0.157813 0.000000 
0.183261 0.133066 0.000000 
0.161471 0.154589 0.000000 
0.138380 0.174709 0.000000 
0.352515 0.099638 0.000000 
0.342562 0.114237 0.000000 
0.349702 0.129025 0.000000 
0.326187 0.112993 0.000000 
0.365123 0.129051 0.000000 
0.374417 0.115466 0.000000 
0.374616 0.142889 0.000000 
0.390687 0.136608 0.000000 
0.340940 0.143722 0.000000 
0.315707 0.126519 0.000000 
0.320590 0.098144 0.000000 
0.304547 0.091847 0.000000 
0.329841 0.084529 0.000000 
0.304522 0.074592 0.000000 
0.349152 0.158914 0.000000 
0.323320 0.142460 0.000000 
0.298566 0.124425 0.000000 
0.431474 0.236400 0.000000 
0.413855 0.237721 0.000000 
0.406745 0.252524 0.000000 
0.404618 0.224142 0.000000 
0.416340 0.264596 0.000000 
0.432756 0.263393 0.000000 
0.411439 0.280646 0.000000 
0.426370 0.289295 0.000000 
0.389791 0.254836 0.000000 
0.387509 0.224383 0.000000 
0.412738 0.210509 0.000000 
0.407658 0.194040 0.000000 
0.429150 0.209253 0.000000 
0.421133 0.183262 0.000000 
0.383034 0.270728 0.000000 
0.379792 0.240273 0.000000 
0.381250 0.208368 0.000000 
0.405372 0.160213 0.000000 
0.390239 0.173869 0.000000 
0.197380 0.078181 0.000000 
0.205905 0.109262 0.000000 
0.276984 0.068307 0.000000 
0.269475 0.083843 0.000000 
0.068526 0.236400 0.000000 
0.084705 0.238843 0.000000 
0.093942 0.225264 0.000000 
0.086960 0.255545 0.000000 
0.087262 0.210509 0.000000 
0.070850 0.209253 0.000000 
0.092342 0.194040 0.000000 
0.078867 0.183262 0.000000 
0.111051 0.225505 0.000000 
0.122169 0.208372 0.000000 
0.116393 0.246332 0.000000 
0.222877 0.070049 0.000000 
0.225510 0.087521 0.000000 
0.240803 0.093505 0.000000 
0.209728 0.093435 0.000000 
0.252288 0.082555 0.000000 
0.249861 0.066274 0.000000 
0.275753 0.100665 0.000000 
0.242813 0.111958 0.000000 
0.260576 0.117831 0.000000 
0.223696 0.121801 0.000000 
0.417072 0.315493 0.000000 
0.396959 0.312176 0.000000 
0.302427 0.421295 0.000000 
0.299466 0.398134 0.000000 
0.184113 0.383780 0.000000 
0.314192 0.387365 0.000000 
0.367407 0.158055 0.000000 
0.104049 0.281483 0.000000 
0.186829 0.114714 0.000000 
0.395087 0.284466 0.000000 
0.262534 0.368677 0.000000 
0.353261 0.313396 0.000000 
0.288111 0.138218 0.000000 
0.165216 0.336566 0.000000 
0.149501 0.187971 0.000000 
0.363947 0.208794 0.000000 
0.201906 0.357864 0.000000 
0.304345 0.354854 0.000000 
0.340132 0.173685 0.000000 
0.135682 0.279651 0.000000 
0.195655 0.145146 0.000000 
0.365862 0.272886 0.000000 
0.271499 0.398483 0.000000 
0.384946 0.325644 0.000000 
0.293001 0.104602 0.000000 
0.146224 0.364731 0.000000 
0.117816 0.175723 0.000000 
0.393279 0.191658 0.000000 
0.251174 0.355796 0.000000 
0.166553 0.184955 0.000000 
0.344125 0.191041 0.000000 
0.329967 0.203831 0.000000 
0.329988 0.220157 0.000000 
0.315839 0.195650 0.000000 
0.348397 0.224283 0.000000 
0.315796 0.229679 0.000000 
0.300497 0.203180 0.000000 
0.321470 0.177644 0.000000 
0.316693 0.246919 0.000000 
0.300433 0.220882 0.000000 
0.286015 0.193783 0.000000 
0.332496 0.258894 0.000000 
0.302211 0.256394 0.000000 
0.270568 0.201587 0.000000 
0.283545 0.174110 0.000000 
0.233964 0.361700 0.000000 
0.255547 0.339160 0.000000 
0.172668 0.167818 0.000000 
0.286762 0.248570 0.000000 
0.240842 0.329250 0.000000 
0.273472 0.338629 0.000000 
0.286536 0.354885 0.000000 
0.272257 0.258036 0.000000 
0.285882 0.230299 0.000000 
0.221764 0.335172 0.000000 
0.273203 0.275330 0.000000 
0.256807 0.250208 0.000000 
0.288654 0.283158 0.000000 
0.258699 0.284797 0.000000 
0.242302 0.259674 0.000000 
0.255928 0.230844 0.000000 
0.303157 0.273687 0.000000 
0.259740 0.303251 0.000000 
0.243248 0.276969 0.000000 
0.228744 0.286435 0.000000 
0.227302 0.303569 0.000000 
0.242847 0.312557 0.000000 
0.206761 0.314237 0.000000 
0.213293 0.278607 0.000000 
0.194807 0.288058 0.000000 
0.212347 0.261313 0.000000 
0.189717 0.306553 0.000000 
0.169174 0.316184 0.000000 
0.173473 0.279510 0.000000 
0.196896 0.253485 0.000000 
0.226852 0.251846 0.000000 
0.176508 0.262232 0.000000 
0.195950 0.236190 0.000000 
0.225906 0.234551 0.000000 
0.179030 0.221929 0.000000 
0.210455 0.226723 0.000000 
0.209509 0.209429 0.000000 
0.195725 0.197655 0.000000 
0.200073 0.177105 0.000000 
0.224013 0.199962 0.000000 
0.218376 0.179959 0.000000 
0.239531 0.205721 0.000000 
0.255051 0.194736 0.000000 
0.294803 0.159462 0.000000 
0.190778 0.343959 0.000000 
0.203228 0.329146 0.000000 
0.217015 0.139334 0.000000 
0.333447 0.315045 0.000000 
0.327332 0.332182 0.000000 
0.319952 0.302606 0.000000 
0.302362 0.308104 0.000000 
0.298311 0.325360 0.000000 
0.279805 0.326960 0.000000 
0.273871 0.310250 0.000000 
0.288281 0.299624 0.000000 
0.133440 0.255626 0.000000 
0.354782 0.286830 0.000000 
0.335231 0.279337 0.000000 
0.240477 0.223016 0.000000 
0.279971 0.368296 0.000000 
0.285761 0.388640 0.000000 
0.140965 0.205695 0.000000 
0.179751 0.200688 0.000000 
0.270498 0.220401 0.000000 
0.267369 0.135561 0.000000 
0.219258 0.350986 0.000000 
0.190214 0.163002 0.000000 
0.363836 0.299525 0.000000 
0.386969 0.299320 0.000000 
0.359696 0.191878 0.000000 
0.373958 0.173664 0.000000 
0.153036 0.288232 0.000000 
0.176386 0.349961 0.000000 
0.171439 0.372560 0.000000 
0.309786 0.336998 0.000000 
0.350809 0.256469 0.000000 
0.320374 0.284655 0.000000 
0.312870 0.161610 0.000000 
0.153828 0.306410 0.000000 
0.357983 0.239748 0.000000 
0.266082 0.166546 0.000000 
0.253035 0.179368 0.000000 
0.256597 0.149242 0.000000 
0.231878 0.170350 0.000000 
0.110140 0.191662 0.000000 
0.233393 0.150981 0.000000 
0.164108 0.239050 0.000000 
0.146894 0.232121 0.000000 
0.735743 0.940247 0.000000 
0.631050 0.600842 0.000000 
0.939931 0.778227 0.000000 
0.566575 0.806893 0.000000 
0.845390 0.584779 0.000000 
0.791239 0.933394 0.000000 
0.631050 0.899158 0.000000 
0.735743 0.559753 0.000000 
0.889852 0.879764 0.000000 
0.565966 0.693514 0.000000 
0.921887 0.667223 0.000000 
0.680217 0.928888 0.000000 
0.681321 0.574487 0.000000 
0.921887 0.832777 0.000000 
0.559219 0.750000 0.000000 
0.890489 0.619105 0.000000 
0.592370 0.857470 0.000000 
0.792453 0.564003 0.000000 
0.846487 0.916582 0.000000 
0.591094 0.641334 0.000000 
0.938650 0.721566 0.000000 
0.707547 0.935997 0.000000 
0.653717 0.583834 0.000000 
0.929973 0.805241 0.000000 
0.563605 0.777902 0.000000 
0.868950 0.600842 0.000000 
0.763875 0.941469 0.000000 
0.608699 0.880741 0.000000 
0.764118 0.558011 0.000000 
0.868950 0.899158 0.000000 
0.578113 0.667223 0.000000 
0.934034 0.693514 0.000000 
0.656096 0.913168 0.000000 
0.707547 0.564003 0.000000 
0.908906 0.858666 0.000000 
0.561350 0.721566 0.000000 
0.905400 0.643734 0.000000 
0.578113 0.832777 0.000000 
0.820581 0.570898 0.000000 
0.819700 0.927593 0.000000 
0.610148 0.620236 0.000000 
0.940781 0.750000 0.000000 
0.722877 0.929951 0.000000 
0.725510 0.912479 0.000000 
0.712660 0.902254 0.000000 
[...]
POINT_DATA 616 
VECTORS X_GC float 
0.235743 0.440247 0.000000 
0.131050 0.100842 0.000000 
0.439931 0.278227 0.000000 
0.066575 0.306893 0.000000 
0.345390 0.084779 0.000000 
0.291239 0.433394 0.000000 
0.131050 0.399158 0.000000 
0.235743 0.059753 0.000000 
0.389852 0.379764 0.000000 
0.065966 0.193514 0.000000 
0.421887 0.167223 0.000000 
0.180217 0.428888 0.000000 
0.181321 0.074487 0.000000 
0.421887 0.332777 0.000000 
0.059219 0.250000 0.000000 
0.390489 0.119105 0.000000 
0.092370 0.357470 0.000000 
0.292453 0.064003 0.000000 
0.346487 0.416582 0.000000 
0.091094 0.141334 0.000000 
0.438650 0.221566 0.000000 
0.207547 0.435997 0.000000 
0.153717 0.083834 0.000000 
0.429973 0.305241 0.000000 
0.063605 0.277902 0.000000 
0.368950 0.100842 0.000000 
0.263875 0.441469 0.000000 
0.108699 0.380741 0.000000 
0.264118 0.058011 0.000000 
0.368950 0.399158 0.000000 
0.078113 0.167223 0.000000 
0.434034 0.193514 0.000000 
0.156096 0.413168 0.000000 
0.207547 0.064003 0.000000 
0.408906 0.358666 0.000000 
0.061350 0.221566 0.000000 
0.405400 0.143734 0.000000 
0.078113 0.332777 0.000000 
0.320581 0.070898 0.000000 
0.319700 0.427593 0.000000 
0.110148 0.120236 0.000000 
0.440781 0.250000 0.000000 
0.222877 0.429951 0.000000 
0.225510 0.412479 0.000000 
0.212660 0.402254 0.000000 
0.240803 0.406495 0.000000 
0.198756 0.408921 0.000000 
0.196276 0.425194 0.000000 
0.184198 0.400572 0.000000 
0.172444 0.413204 0.000000 
0.214178 0.385210 0.000000 
0.244376 0.389762 0.000000 
0.252045 0.416925 0.000000 
0.268019 0.413033 0.000000 
0.249618 0.433205 0.000000 
0.275528 0.428569 0.000000 
0.200189 0.375086 0.000000 
0.230601 0.378703 0.000000 
0.259098 0.385641 0.000000 
0.092398 0.340992 0.000000 
0.107699 0.332157 0.000000 
0.107682 0.315735 0.000000 
0.121913 0.340383 0.000000 
0.093744 0.308938 0.000000 
0.079476 0.317146 0.000000 
0.090919 0.291936 0.000000 
0.073714 0.290622 0.000000 
0.121954 0.306296 0.000000 
0.137223 0.332743 0.000000 
0.120512 0.356189 0.000000 
0.132235 0.368824 0.000000 
0.106271 0.364442 0.000000 
0.124771 0.384381 0.000000 
0.121147 0.289046 0.000000 
0.137281 0.315078 0.000000 
0.149812 0.344456 0.000000 
0.148972 0.398309 0.000000 
0.156681 0.379439 0.000000 
0.373780 0.383403 0.000000 
0.361762 0.370451 0.000000 
0.345756 0.374122 0.000000 
0.366619 0.354763 0.000000 
0.342435 0.389639 0.000000 
0.353611 0.401723 0.000000 
0.327509 0.398256 0.000000 
0.330056 0.415323 0.000000 
0.333377 0.362309 0.000000 
0.355764 0.341537 0.000000 
0.382341 0.352612 0.000000 
0.392050 0.338371 0.000000 
0.393556 0.364660 0.000000 
0.408878 0.342187 0.000000 
0.316739 0.366934 0.000000 
0.338529 0.345411 0.000000 
0.364382 0.326658 0.000000 
0.070780 0.263067 0.000000 
0.101539 0.262794 0.000000 
0.126220 0.116597 0.000000 
0.138238 0.129549 0.000000 
0.154244 0.125878 0.000000 
0.133381 0.145237 0.000000 
0.157769 0.110777 0.000000 
0.146593 0.098693 0.000000 
0.173716 0.104239 0.000000 
0.171169 0.087173 0.000000 
0.166623 0.137691 0.000000 
0.144236 0.158463 0.000000 
0.117659 0.147388 0.000000 
0.107950 0.161629 0.000000 
0.106444 0.135340 0.000000 
0.091122 0.157813 0.000000 
0.183261 0.133066 0.000000 
0.161471 0.154589 0.000000 
0.138380 0.174709 0.000000 
0.352515 0.099638 0.000000 
0.342562 0.114237 0.000000 
0.349702 0.129025 0.000000 
0.326187 0.112993 0.000000 
0.365123 0.129051 0.000000 
0.374417 0.115466 0.000000 
0.374616 0.142889 0.000000 
0.390687 0.136608 0.000000 
0.340940 0.143722 0.000000 
0.315707 0.126519 0.000000 
0.320590 0.098144 0.000000 
0.304547 0.091847 0.000000 
0.329841 0.084529 0.000000 
0.304522 0.074592 0.000000 
0.349152 0.158914 0.000000 
0.323320 0.142460 0.000000 
0.298566 0.124425 0.000000 
0.431474 0.236400 0.000000 
0.413855 0.237721 0.000000 
0.406745 0.252524 0.000000 
0.404618 0.224142 0.000000 
0.416340 0.264596 0.000000 
0.432756 0.263393 0.000000 
0.411439 0.280646 0.000000 
0.426370 0.289295 0.000000 
0.389791 0.254836 0.000000 
0.387509 0.224383 0.000000 
0.412738 0.210509 0.000000 
0.407658 0.194040 0.000000 
0.429150 0.209253 0.000000 
0.421133 0.183262 0.000000 
0.383034 0.270728 0.000000 
0.379792 0.240273 0.000000 
0.381250 0.208368 0.000000 
0.405372 0.160213 0.000000 
0.390239 0.173869 0.000000 
0.197380 0.078181 0.000000 
0.205905 0.109262 0.000000 
0.276984 0.068307 0.000000 
0.269475 0.083843 0.000000 
0.068526 0.236400 0.000000 
0.084705 0.238843 0.000000 
0.093942 0.225264 0.000000 
0.086960 0.255545 0.000000 
0.087262 0.210509 0.000000 
0.070850 0.209253 0.000000 
0.092342 0.194040 0.000000 
0.078867 0.183262 0.000000 
0.111051 0.225505 0.000000 
0.122169 0.208372 0.000000 
0.116393 0.246332 0.000000 
0.222877 0.070049 0.000000 
0.225510 0.087521 0.000000 
0.240803 0.093505 0.000000 
0.209728 0.093435 0.000000 
0.252288 0.082555 0.000000 
0.249861 0.066274 0.000000 
0.275753 0.100665 0.000000 
0.242813 0.111958 0.000000 
0.260576 0.117831 0.000000 
0.223696 0.121801 0.000000 
0.417072 0.315493 0.000000 
0.396959 0.312176 0.000000 
0.302427 0.421295 0.000000 
0.299466 0.398134 0.000000 
0.184113 0.383780 0.000000 
0.314192 0.387365 0.000000 
0.367407 0.158055 0.000000 
0.104049 0.281483 0.000000 
0.186829 0.114714 0.000000 
0.395087 0.284466 0.000000 
0.262534 0.368677 0.000000 
0.353261 0.313396 0.000000 
0.288111 0.138218 0.000000 
0.165216 0.336566 0.000000 
0.149501 0.187971 0.000000 
0.363947 0.208794 0.000000 
0.201906 0.357864 0.000000 
0.304345 0.354854 0.000000 
0.340132 0.173685 0.000000 
0.135682 0.279651 0.000000 
0.195655 0.145146 0.000000 
0.365862 0.272886 0.000000 
0.271499 0.398483 0.000000 
0.384946 0.325644 0.000000 
0.293001 0.104602 0.000000 
0.146224 0.364731 0.000000 
0.117816 0.175723 0.000000 
0.393279 0.191658 0.000000 
0.251174 0.355796 0.000000 
0.166553 0.184955 0.000000 
0.344125 0.191041 0.000000 
0.329967 0.203831 0.000000 
0.329988 0.220157 0.000000 
0.315839 0.195650 0.000000 
0.348397 0.224283 0.000000 
0.315796 0.229679 0.000000 
0.300497 0.203180 0.000000 
0.321470 0.177644 0.000000 
0.316693 0.246919 0.000000 
0.300433 0.220882 0.000000 
0.286015 0.193783 0.000000 
0.332496 0.258894 0.000000 
0.302211 0.256394 0.000000 
0.270568 0.201587 0.000000 
0.283545 0.174110 0.000000 
0.233964 0.361700 0.000000 
0.255547 0.339160 0.000000 
0.172668 0.167818 0.000000 
0.286762 0.248570 0.000000 
0.240842 0.329250 0.000000 
0.273472 0.338629 0.000000 
0.286536 0.354885 0.000000 
0.272257 0.258036 0.000000 
0.285882 0.230299 0.000000 
0.221764 0.335172 0.000000 
0.273203 0.275330 0.000000 
0.256807 0.250208 0.000000 
0.288654 0.283158 0.000000 
0.258699 0.284797 0.000000 
0.242302 0.259674 0.000000 
0.255928 0.230844 0.000000 
0.303157 0.273687 0.000000 
0.259740 0.303251 0.000000 
0.243248 0.276969 0.000000 
0.228744 0.286435 0.000000 
0.227302 0.303569 0.000000 
0.242847 0.312557 0.000000 
0.206761 0.314237 0.000000 
0.213293 0.278607 0.000000 
0.194807 0.288058 0.000000 
0.212347 0.261313 0.000000 
0.189717 0.306553 0.000000 
0.169174 0.316184 0.000000 
0.173473 0.279510 0.000000 
0.196896 0.253485 0.000000 
0.226852 0.251846 0.000000 
0.176508 0.262232 0.000000 
0.195950 0.236190 0.000000 
0.225906 0.234551 0.000000 
0.179030 0.221929 0.000000 
0.210455 0.226723 0.000000 
0.209509 0.209429 0.000000 
0.195725 0.197655 0.000000 
0.200073 0.177105 0.000000 
0.224013 0.199962 0.000000 
0.218376 0.179959 0.000000 
0.239531 0.205721 0.000000 
0.255051 0.194736 0.000000 
0.294803 0.159462 0.000000 
0.190778 0.343959 0.000000 
0.203228 0.329146 0.000000 
0.217015 0.139334 0.000000 
0.333447 0.315045 0.000000 
0.327332 0.332182 0.000000 
0.319952 0.302606 0.000000 
0.302362 0.308104 0.000000 
0.298311 0.325360 0.000000 
0.279805 0.326960 0.000000 
0.273871 0.310250 0.000000 
0.288281 0.299624 0.000000 
0.133440 0.255626 0.000000 
0.354782 0.286830 0.000000 
0.335231 0.279337 0.000000 
0.240477 0.223016 0.000000 
0.279971 0.368296 0.000000 
0.285761 0.388640 0.000000 
0.140965 0.205695 0.000000 
0.179751 0.200688 0.000000 
0.270498 0.220401 0.000000 
0.267369 0.135561 0.000000 
0.219258 0.350986 0.000000 
0.190214 0.163002 0.000000 
0.363836 0.299525 0.000000 
0.386969 0.299320 0.000000 
0.359696 0.191878 0.000000 
0.373958 0.173664 0.000000 
0.153036 0.288232 0.000000 
0.176386 0.349961 0.000000 
0.171439 0.372560 0.000000 
0.309786 0.336998 0.000000 
0.350809 0.256469 0.000000 
0.320374 0.284655 0.000000 
0.312870 0.161610 0.000000 
0.153828 0.306410 0.000000 
0.357983 0.239748 0.000000 
0.266082 0.166546 0.000000 
0.253035 0.179368 0.000000 
0.256597 0.149242 0.000000 
0.231878 0.170350 0.000000 
0.110140 0.191662 0.000000 
0.233393 0.150981 0.000000 
0.164108 0.239050 0.000000 
0.146894 0.232121 0.000000 
0.735743 0.940247 0.000000 
0.631050 0.600842 0.000000 
0.939931 0.778227 0.000000 
0.566575 0.806893 0.000000 
0.845390 0.584779 0.000000 
0.791239 0.933394 0.000000 
0.631050 0.899158 0.000000 
0.735743 0.559753 0.000000 
0.889852 0.879764 0.000000 
0.565966 0.693514 0.000000 
0.921887 0.667223 0.000000 
0.680217 0.928888 0.000000 
0.681321 0.574487 0.000000 
0.921887 0.832777 0.000000 
0.559219 0.750000 0.000000 
0.890489 0.619105 0.000000 
0.592370 0.857470 0.000000 
0.792453 0.564003 0.000000 
0.846487 0.916582 0.000000 
0.591094 0.641334 0.000000 
0.938650 0.721566 0.000000 
0.707547 0.935997 0.000000 
0.653717 0.583834 0.000000 
0.929973 0.805241 0.000000 
0.563605 0.777902 0.000000 
0.868950 0.600842 0.000000 
0.763875 0.941469 0.000000 
0.608699 0.880741 0.000000 
0.764118 0.558011 0.000000 
0.868950 0.899158 0.000000 
0.578113 0.667223 0.000000 
0.934034 0.693514 0.000000 
0.656096 0.913168 0.000000 
0.707547 0.564003 0.000000 
0.908906 0.858666 0.000000 
0.561350 0.721566 0.000000 
0.905400 0.643734 0.000000 
0.578113 0.832777 0.000000 
0.820581 0.570898 0.000000 
0.819700 0.927593 0.000000 
0.610148 0.620236 0.000000 
0.940781 0.750000 0.000000 
0.722877 0.929951 0.000000 
0.725510 0.912479 0.000000 
0.712660 0.902254 0.000000 
0.740803 0.906495 0.000000 
0.698756 0.908921 0.000000 
0.696276 0.925194 0.000000 
0.684198 0.900572 0.000000 
0.672444 0.913204 0.000000 
0.714178 0.885210 0.000000 
0.744376 0.889762 0.000000 
0.752045 0.916925 0.000000 
0.768019 0.913033 0.000000 
0.749618 0.933205 0.000000 
0.775528 0.928569 0.000000 
0.700189 0.875086 0.000000 
0.730601 0.878703 0.000000 
0.759098 0.885641 0.000000 
0.592398 0.840992 0.000000 
0.607699 0.832157 0.000000 
0.607682 0.815735 0.000000 
0.621913 0.840383 0.000000 
0.593744 0.808938 0.000000 
0.579476 0.817146 0.000000 
0.590919 0.791936 0.000000 
0.573714 0.790622 0.000000 
0.621954 0.806296 0.000000 
0.637223 0.832743 0.000000 
0.620512 0.856189 0.000000 
0.632235 0.868824 0.000000 
0.606271 0.864442 0.000000 
0.624771 0.884381 0.000000 
0.621147 0.789046 0.000000 
0.637281 0.815078 0.000000 
0.649812 0.844456 0.000000 
0.648972 0.898309 0.000000 
0.656681 0.879439 0.000000 
0.873780 0.883403 0.000000 
0.861762 0.870451 0.000000 
0.845756 0.874122 0.000000 
0.866619 0.854763 0.000000 
0.842435 0.889639 0.000000 
0.853611 0.901723 0.000000 
0.827509 0.898256 0.000000 
0.830056 0.915323 0.000000 
0.833377 0.862309 0.000000 
0.855764 0.841537 0.000000 
0.882341 0.852612 0.000000 
0.892050 0.838371 0.000000 
0.893556 0.864660 0.000000 
0.908878 0.842187 0.000000 
0.816739 0.866934 0.000000 
0.838529 0.845411 0.000000 
0.864382 0.826658 0.000000 
0.570780 0.763067 0.000000 
0.601539 0.762794 0.000000 
0.626220 0.616597 0.000000 
0.638238 0.629549 0.000000 
0.654244 0.625878 0.000000 
0.633381 0.645237 0.000000 
0.657769 0.610777 0.000000 
0.646593 0.598693 0.000000 
0.673716 0.604239 0.000000 
0.671169 0.587173 0.000000 
0.666623 0.637691 0.000000 
0.644236 0.658463 0.000000 
0.617659 0.647388 0.000000 
0.607950 0.661629 0.000000 
0.606444 0.635340 0.000000 
0.591122 0.657813 0.000000 
0.683261 0.633066 0.000000 
0.661471 0.654589 0.000000 
0.638380 0.674709 0.000000 
0.852515 0.599638 0.000000 
0.842562 0.614237 0.000000 
0.849702 0.629025 0.000000 
0.826187 0.612993 0.000000 
0.865123 0.629051 0.000000 
0.874417 0.615466 0.000000 
0.874616 0.642889 0.000000 
0.890687 0.636608 0.000000 
0.840940 0.643722 0.000000 
0.815707 0.626519 0.000000 
0.820590 0.598144 0.000000 
0.804547 0.591847 0.000000 
0.829841 0.584529 0.000000 
0.804522 0.574592 0.000000 
0.849152 0.658914 0.000000 
0.823320 0.642460 0.000000 
0.798566 0.624425 0.000000 
0.931474 0.736400 0.000000 
0.913855 0.737721 0.000000 
0.906745 0.752524 0.000000 
0.904618 0.724142 0.000000 
0.916340 0.764596 0.000000 
0.932756 0.763393 0.000000 
0.911439 0.780646 0.000000 
0.926370 0.789295 0.000000 
0.889791 0.754836 0.000000 
0.887509 0.724383 0.000000 
0.912738 0.710509 0.000000 
0.907658 0.694040 0.000000 
0.929150 0.709253 0.000000 
0.921133 0.683262 0.000000 
0.883034 0.770728 0.000000 
0.879792 0.740273 0.000000 
0.881250 0.708368 0.000000 
0.905372 0.660213 0.000000 
0.890239 0.673869 0.000000 
0.697380 0.578181 0.000000 
0.705905 0.609262 0.000000 
0.776984 0.568307 0.000000 
0.769475 0.583843 0.000000 
0.568526 0.736400 0.000000 
0.584705 0.738843 0.000000 
0.593942 0.725264 0.000000 
0.586960 0.755545 0.000000 
0.587262 0.710509 0.000000 
0.570850 0.709253 0.000000 
0.592342 0.694040 0.000000 
0.578867 0.683262 0.000000 
0.611051 0.725505 0.000000 
0.622169 0.708372 0.000000 
0.616393 0.746332 0.000000 
0.722877 0.570049 0.000000 
0.725510 0.587521 0.000000 
0.740803 0.593505 0.000000 
0.709728 0.593435 0.000000 
0.752288 0.582555 0.000000 
0.749861 0.566274 0.000000 
0.775753 0.600665 0.000000 
0.742813 0.611958 0.000000 
0.760576 0.617831 0.000000 
0.723696 0.621801 0.000000 
0.917072 0.815493 0.000000 
0.896959 0.812176 0.000000 
0.802427 0.921295 0.000000 
0.799466 0.898134 0.000000 
0.684113 0.883780 0.000000 
0.814192 0.887365 0.000000 
0.867407 0.658055 0.000000 
0.604049 0.781483 0.000000 
0.686829 0.614714 0.000000 
0.895087 0.784466 0.000000 
0.762534 0.868677 0.000000 
0.853261 0.813396 0.000000 
0.788111 0.638218 0.000000 
0.665216 0.836566 0.000000 
0.649501 0.687971 0.000000 
0.863947 0.708794 0.000000 
0.701906 0.857864 0.000000 
0.804345 0.854854 0.000000 
0.840132 0.673685 0.000000 
0.635682 0.779651 0.000000 
0.695655 0.645146 0.000000 
0.865862 0.772886 0.000000 
0.771499 0.898483 0.000000 
0.884946 0.825644 0.000000 
0.793001 0.604602 0.000000 
0.646224 0.864731 0.000000 
0.617816 0.675723 0.000000 
0.893279 0.691658 0.000000 
0.751174 0.855796 0.000000 
0.666553 0.684955 0.000000 
0.844125 0.691041 0.000000 
0.829967 0.703831 0.000000 
0.829988 0.720157 0.000000 
0.815839 0.695650 0.000000 
0.848397 0.724283 0.000000 
0.815796 0.729679 0.000000 
0.800497 0.703180 0.000000 
0.821470 0.677644 0.000000 
0.816693 0.746919 0.000000 
0.800433 0.720882 0.000000 
0.786015 0.693783 0.000000 
0.832496 0.758894 0.000000 
0.802211 0.756394 0.000000 
0.770568 0.701587 0.000000 
0.783545 0.674110 0.000000 
0.733964 0.861700 0.000000 
0.755547 0.839160 0.000000 
0.672668 0.667818 0.000000 
0.786762 0.748570 0.000000 
0.740842 0.829250 0.000000 
0.773472 0.838629 0.000000 
0.786536 0.854885 0.000000 
0.772257 0.758036 0.000000 
0.785882 0.730299 0.000000 
0.721764 0.835172 0.000000 
0.773203 0.775330 0.000000 
0.756807 0.750208 0.000000 
0.788654 0.783158 0.000000 
0.758699 0.784797 0.000000 
0.742302 0.759674 0.000000 
0.755928 0.730844 0.000000 
0.803157 0.773687 0.000000 
0.759740 0.803251 0.000000 
0.743248 0.776969 0.000000 
0.728744 0.786435 0.000000 
0.727302 0.803569 0.000000 
0.742847 0.812557 0.000000 
0.706761 0.814237 0.000000 
0.713293 0.778607 0.000000 
0.694807 0.788058 0.000000 
0.712347 0.761313 0.000000 
0.689717 0.806553 0.000000 
0.669174 0.816184 0.000000 
0.673473 0.779510 0.000000 
0.696896 0.753485 0.000000 
0.726852 0.751846 0.000000 
0.676508 0.762232 0.000000 
0.695950 0.736190 0.000000 
0.725906 0.734551 0.000000 
0.679030 0.721929 0.000000 
0.710455 0.726723 0.000000 
0.709509 0.709429 0.000000 
0.695725 0.697655 0.000000 
0.700073 0.677105 0.000000 
0.724013 0.699962 0.000000 
0.718376 0.679959 0.000000 
0.739531 0.705721 0.000000 
0.755051 0.694736 0.000000 
0.794803 0.659462 0.000000 
0.690778 0.843959 0.000000 
0.703228 0.829146 0.000000 
0.717015 0.639334 0.000000 
0.833447 0.815045 0.000000 
0.827332 0.832182 0.000000 
0.819952 0.802606 0.000000 
0.802362 0.808104 0.000000 
0.798311 0.825360 0.000000 
0.779805 0.826960 0.000000 
0.773871 0.810250 0.000000 
0.788281 0.799624 0.000000 
0.633440 0.755626 0.000000 
0.854782 0.786830 0.000000 
0.835231 0.779337 0.000000 
0.740477 0.723016 0.000000 
0.779971 0.868296 0.000000 
0.785761 0.888640 0.000000 
0.640965 0.705695 0.000000 
0.679751 0.700688 0.000000 
0.770498 0.720401 0.000000 
0.767369 0.635561 0.000000 
0.719258 0.850986 0.000000 
0.690214 0.663002 0.000000 
0.863836 0.799525 0.000000 
0.886969 0.799320 0.000000 
0.859696 0.691878 0.000000 
0.873958 0.673664 0.000000 
0.653036 0.788232 0.000000 
0.676386 0.849961 0.000000 
0.671439 0.872560 0.000000 
0.809786 0.836998 0.000000 
0.850809 0.756469 0.000000 
0.820374 0.784655 0.000000 
0.812870 0.661610 0.000000 
0.653828 0.806410 0.000000 
0.857983 0.739748 0.000000 
0.766082 0.666546 0.000000 
0.753035 0.679368 0.000000 
0.756597 0.649242 0.000000 
0.731878 0.670350 0.000000 
0.610140 0.691662 0.000000 
0.733393 0.650981 0.000000 
0.664108 0.739050 0.000000 
0.646894 0.732121 0.000000 
VECTORS X_EC float 
0.195059 -0.285141 0.000000 
0.983164 -0.378994 0.000000 
-0.564545 -0.201376 0.000000 
0.862136 0.331502 0.000000 
-0.695585 -0.092195 0.000000 
0.332125 0.824779 0.000000 
-0.983164 -0.378994 0.000000 
-0.195059 -0.285141 0.000000 
-0.595274 0.797040 0.000000 
-0.870289 0.319313 0.000000 
-0.344469 -0.562254 0.000000 
0.422238 0.604336 0.000000 
-0.489736 0.626417 0.000000 
0.344469 -0.562254 0.000000 
-0.000000 0.184390 0.000000 
0.617896 0.809782 0.000000 
-0.149410 0.847395 0.000000 
-0.280055 0.849053 0.000000 
0.668360 -0.070264 0.000000 
0.173314 0.821885 0.000000 
0.568687 -0.227007 0.000000 
0.280055 -0.849053 0.000000 
-0.676677 0.074347 0.000000 
0.895182 -0.400545 0.000000 
-0.558037 0.272095 0.000000 
0.983164 0.378994 0.000000 
0.170625 0.277502 0.000000 
-0.614825 -0.826021 0.000000 
-0.160211 0.282357 0.000000 
-0.983164 0.378994 0.000000 
-0.344469 0.562254 0.000000 
-0.870289 -0.319313 0.000000 
0.736636 0.121928 0.000000 
-0.280055 -0.849053 0.000000 
-0.173314 -0.821885 0.000000 
0.568687 0.227007 0.000000 
0.125324 -0.891995 0.000000 
0.344469 0.562254 0.000000 
-0.417959 -0.588373 0.000000 
0.448149 -0.606001 0.000000 
0.595274 -0.797040 0.000000 
-0.000000 -0.184390 0.000000 
0.400986 -0.542464 0.000000 
0.750411 -0.489797 0.000000 
0.954929 -0.746798 0.000000 
0.870091 -0.183931 0.000000 
0.821572 0.975113 0.000000 
0.496124 0.925524 0.000000 
0.988559 0.683969 0.000000 
0.735915 0.448876 0.000000 
-0.704206 -0.716431 0.000000 
-0.795238 -0.112477 0.000000 
0.661506 0.040904 0.000000 
0.739335 0.360371 0.000000 
0.335899 -0.007638 0.000000 
0.428621 0.510552 0.000000 
-0.501726 -0.996230 0.000000 
-0.574053 -0.387976 0.000000 
-0.712814 0.181966 0.000000 
0.180167 0.847957 0.000000 
0.356853 -0.846014 0.000000 
0.685299 -0.846353 0.000000 
0.192336 -0.561741 0.000000 
0.821232 0.874889 0.000000 
0.657088 0.589525 0.000000 
-0.838727 0.818373 0.000000 
-0.812444 0.474271 0.000000 
0.874083 -0.560921 0.000000 
0.345136 -0.255533 0.000000 
-0.123786 -0.589752 0.000000 
-0.376472 -0.355293 0.000000 
-0.288846 -0.874587 0.000000 
-0.687615 -0.504583 0.000000 
-0.780917 -0.577068 0.000000 
0.698436 -0.254375 0.000000 
0.110875 -0.003768 0.000000 
-0.966182 -0.020564 0.000000 
-0.588772 0.133623 0.000000 
-0.668064 0.475602 0.000000 
-0.409024 0.235248 0.000000 
-0.482440 -0.084888 0.000000 
-0.095270 0.332383 0.000000 
-0.792775 -0.151301 0.000000 
0.965542 0.072228 0.000000 
-0.965127 -0.449824 0.000000 
0.693549 -0.398877 0.000000 
-0.246173 -0.332454 0.000000 
0.169260 0.115277 0.000000 
-0.052234 0.646812 0.000000 
0.232574 0.840991 0.000000 
-0.293199 0.871116 0.000000 
0.156263 -0.822447 0.000000 