# vtk DataFile Version 3.0 
vtk output 
ASCII 
DATASET UNSTRUCTURED_GRID 
POINTS 616 float 
0.239188 0.443428 0.000000 
0.134200 0.104164 0.000000 
0.443202 0.281261 0.000000 
0.069916 0.310264 0.000000 
0.348472 0.087895 0.000000 
0.294723 0.436509 0.000000 
0.134469 0.402429 0.000000 
0.238819 0.062934 0.000000 
0.393264 0.382823 0.000000 
0.069173 0.196916 0.000000 
0.425079 0.170214 0.000000 
0.183620 0.432119 0.000000 
0.184435 0.077725 0.000000 
0.425222 0.335827 0.000000 
0.062505 0.253392 0.000000 
0.393601 0.122150 0.000000 
0.095780 0.360798 0.000000 
0.295526 0.067163 0.000000 
0.349943 0.419681 0.000000 
0.094276 0.144710 0.000000 
0.441884 0.224561 0.000000 
0.210967 0.439207 0.000000 
0.156851 0.087107 0.000000 
0.433269 0.308283 0.000000 
0.066932 0.281280 0.000000 
0.372047 0.103922 0.000000 
0.267341 0.444613 0.000000 
0.112120 0.384043 0.000000 
0.267196 0.061169 0.000000 
0.372400 0.402218 0.000000 
0.081322 0.170621 0.000000 
0.437238 0.196487 0.000000 
0.159501 0.416417 0.000000 
0.210643 0.067223 0.000000 
0.412307 0.361726 0.000000 
0.064593 0.224961 0.000000 
0.408557 0.146755 0.000000 
0.081501 0.336141 0.000000 
0.323659 0.074045 0.000000 
0.323173 0.430705 0.000000 
0.113315 0.123588 0.000000 
0.444045 0.253023 0.000000 
0.226306 0.433145 0.000000 
0.228933 0.415672 0.000000 
0.216068 0.405450 0.000000 
0.244234 0.409683 0.000000 
0.202156 0.412126 0.000000 
0.199681 0.428409 0.000000 
0.187594 0.403780 0.000000 
0.175845 0.416433 0.000000 
0.217578 0.388407 0.000000 
0.247798 0.392953 0.000000 
0.255488 0.420101 0.000000 
0.271468 0.416199 0.000000 
0.253070 0.436374 0.000000 
0.278991 0.431711 0.000000 
0.203573 0.378288 0.000000 
0.234006 0.381901 0.000000 
0.262529 0.388827 0.000000 
0.095790 0.344318 0.000000 
0.111076 0.335467 0.000000 
0.111040 0.319046 0.000000 
0.125295 0.343677 0.000000 
0.097094 0.312262 0.000000 
0.082841 0.320502 0.000000 
0.094248 0.295264 0.000000 
0.077043 0.293977 0.000000 
0.125301 0.309593 0.000000 
0.140594 0.336021 0.000000 
0.123907 0.359482 0.000000 
0.135633 0.372099 0.000000 
0.109684 0.367753 0.000000 
0.128187 0.387661 0.000000 
0.124477 0.292348 0.000000 
0.140637 0.318359 0.000000 
0.153187 0.347718 0.000000 
0.152384 0.401560 0.000000 
0.160073 0.382681 0.000000 
0.377187 0.386456 0.000000 
0.365128 0.373506 0.000000 
0.349126 0.377212 0.000000 
0.369962 0.357820 0.000000 
0.345847 0.392739 0.000000 
0.357052 0.404809 0.000000 
0.330941 0.401380 0.000000 
0.333511 0.418437 0.000000 
0.336737 0.365408 0.000000 
0.359101 0.344612 0.000000 
0.385689 0.355664 0.000000 
0.395383 0.341426 0.000000 
0.396945 0.367721 0.000000 
0.412221 0.345244 0.000000 
0.320122 0.370059 0.000000 
0.341882 0.348507 0.000000 
0.367714 0.329714 0.000000 
0.074081 0.266438 0.000000 
0.104842 0.266129 0.000000 
0.129383 0.119926 0.000000 
0.141412 0.132863 0.000000 
0.157415 0.129170 0.000000 
0.136569 0.148559 0.000000 
0.160926 0.114069 0.000000 
0.149740 0.101994 0.000000 
0.176860 0.107511 0.000000 
0.174295 0.090440 0.000000 
0.169803 0.140970 0.000000 
0.147442 0.161770 0.000000 
0.120852 0.150731 0.000000 
0.111155 0.164986 0.000000 
0.109624 0.138698 0.000000 
0.094322 0.161190 0.000000 
0.186434 0.136327 0.000000 
0.164668 0.157873 0.000000 
0.141598 0.178025 0.000000 
0.355613 0.102743 0.000000 
0.345676 0.117343 0.000000 
0.352833 0.132121 0.000000 
0.329298 0.116113 0.000000 
0.368253 0.132128 0.000000 
0.377530 0.118539 0.000000 
0.377758 0.145950 0.000000 
0.393819 0.139646 0.000000 
0.344085 0.146819 0.000000 
0.318833 0.129647 0.000000 
0.323685 0.101273 0.000000 
0.307634 0.094988 0.000000 
0.332923 0.087657 0.000000 
0.307597 0.077740 0.000000 
0.352313 0.161995 0.000000 
0.326464 0.145577 0.000000 
0.301688 0.127569 0.000000 
0.434726 0.239414 0.000000 
0.417112 0.240743 0.000000 
0.410027 0.255557 0.000000 
0.407855 0.227161 0.000000 
0.419628 0.267629 0.000000 
0.436032 0.266421 0.000000 
0.414741 0.283684 0.000000 
0.429651 0.292337 0.000000 
0.393085 0.257873 0.000000 
0.390751 0.227414 0.000000 
0.415955 0.213514 0.000000 
0.410849 0.197039 0.000000 
0.432370 0.212243 0.000000 
0.424329 0.186248 0.000000 
0.386348 0.273773 0.000000 
0.383063 0.243314 0.000000 
0.384462 0.211400 0.000000 
0.408541 0.163224 0.000000 
0.393406 0.176891 0.000000 
0.200492 0.081412 0.000000 
0.209043 0.112497 0.000000 
0.280061 0.071465 0.000000 
0.272564 0.087010 0.000000 
0.071791 0.239782 0.000000 
0.087979 0.242205 0.000000 
0.097206 0.228624 0.000000 
0.090253 0.258896 0.000000 
0.090506 0.213882 0.000000 
0.074082 0.212642 0.000000 
0.095572 0.197417 0.000000 
0.082081 0.186650 0.000000 
0.114318 0.228846 0.000000 
0.125420 0.211707 0.000000 
0.119683 0.249657 0.000000 
0.225970 0.073250 0.000000 
0.228618 0.090731 0.000000 
0.243910 0.096704 0.000000 
0.212846 0.096667 0.000000 
0.255383 0.085739 0.000000 
0.252943 0.069453 0.000000 
0.278858 0.103830 0.000000 
0.245939 0.115156 0.000000 
0.263701 0.121010 0.000000 
0.226842 0.125018 0.000000 
0.420388 0.318539 0.000000 
0.400284 0.315223 0.000000 
0.305893 0.424417 0.000000 
0.302902 0.401281 0.000000 
0.187496 0.386984 0.000000 
0.317610 0.390498 0.000000 
0.370566 0.161113 0.000000 
0.107369 0.284804 0.000000 
0.189981 0.117970 0.000000 
0.398408 0.287504 0.000000 
0.265949 0.371868 0.000000 
0.356595 0.316466 0.000000 
0.291251 0.141371 0.000000 
0.168582 0.339811 0.000000 
0.152733 0.191274 0.000000 
0.367166 0.211848 0.000000 
0.205281 0.361070 0.000000 
0.307726 0.357995 0.000000 
0.343303 0.176771 0.000000 
0.139006 0.282943 0.000000 
0.198838 0.148390 0.000000 
0.369182 0.275943 0.000000 
0.274938 0.401657 0.000000 
0.388277 0.328695 0.000000 
0.296102 0.107751 0.000000 
0.149616 0.367992 0.000000 
0.121032 0.179068 0.000000 
0.396464 0.194673 0.000000 
0.254578 0.358993 0.000000 
0.169787 0.188234 0.000000 
0.347317 0.194119 0.000000 
0.333177 0.206927 0.000000 
0.333225 0.223253 0.000000 
0.319036 0.198766 0.000000 
0.351641 0.227352 0.000000 
0.319048 0.232795 0.000000 
0.303707 0.206318 0.000000 
0.324648 0.180755 0.000000 
0.319973 0.250034 0.000000 
0.303671 0.224020 0.000000 
0.289213 0.196938 0.000000 
0.335797 0.261988 0.000000 
0.305505 0.259530 0.000000 
0.273782 0.204758 0.000000 
0.286720 0.177268 0.000000 
0.237361 0.364900 0.000000 
0.258936 0.342351 0.000000 
0.175886 0.171089 0.000000 
0.290041 0.251722 0.000000 
0.244218 0.332449 0.000000 
0.276858 0.341809 0.000000 
0.289932 0.358049 0.000000 
0.275553 0.261204 0.000000 
0.289133 0.233453 0.000000 
0.225138 0.338378 0.000000 
0.276524 0.278498 0.000000 
0.260089 0.253386 0.000000 
0.291985 0.286310 0.000000 
0.262034 0.287979 0.000000 
0.245601 0.262866 0.000000 
0.259186 0.234026 0.000000 
0.306477 0.276823 0.000000 
0.263097 0.306436 0.000000 
0.246570 0.280160 0.000000 
0.232081 0.289640 0.000000 
0.230658 0.306774 0.000000 
0.246211 0.315754 0.000000 
0.210120 0.317452 0.000000 
0.216621 0.281823 0.000000 
0.198148 0.291287 0.000000 
0.215655 0.264531 0.000000 
0.193069 0.309783 0.000000 
0.172528 0.319431 0.000000 
0.176799 0.282762 0.000000 
0.200201 0.256717 0.000000 
0.230143 0.255050 0.000000 
0.179819 0.265485 0.000000 
0.199235 0.239426 0.000000 
0.229178 0.237760 0.000000 
0.182301 0.225188 0.000000 
0.213724 0.229947 0.000000 
0.212759 0.212655 0.000000 
0.198969 0.200896 0.000000 
0.203292 0.180342 0.000000 
0.227246 0.203176 0.000000 
0.221590 0.183179 0.000000 
0.242763 0.208920 0.000000 
0.258262 0.197922 0.000000 
0.297963 0.162609 0.000000 
0.194145 0.347177 0.000000 
0.206593 0.332360 0.000000 
0.220183 0.142557 0.000000 
0.336791 0.318144 0.000000 
0.330686 0.335291 0.000000 
0.323297 0.305722 0.000000 
0.305716 0.311246 0.000000 
0.301677 0.328509 0.000000 
0.283180 0.330131 0.000000 
0.277234 0.313425 0.000000 
0.291631 0.302780 0.000000 
0.136743 0.258931 0.000000 
0.358111 0.289898 0.000000 
0.338556 0.282430 0.000000 
0.243730 0.226212 0.000000 
0.283385 0.371472 0.000000 
0.289193 0.391806 0.000000 
0.144217 0.209006 0.000000 
0.183000 0.203950 0.000000 
0.273739 0.223571 0.000000 
0.270512 0.138734 0.000000 
0.222643 0.354192 0.000000 
0.193417 0.166249 0.000000 
0.367165 0.302579 0.000000 
0.390293 0.302361 0.000000 
0.362887 0.194934 0.000000 
0.377125 0.176706 0.000000 
0.156371 0.291504 0.000000 
0.179758 0.353189 0.000000 
0.174822 0.375779 0.000000 
0.313153 0.340133 0.000000 
0.354110 0.259538 0.000000 
0.323707 0.287769 0.000000 
0.316031 0.164735 0.000000 
0.157177 0.309675 0.000000 
0.361253 0.242805 0.000000 
0.269259 0.169718 0.000000 
0.256230 0.182555 0.000000 
0.259761 0.152428 0.000000 
0.235075 0.173559 0.000000 
0.113372 0.195018 0.000000 
0.236566 0.154187 0.000000 
0.167396 0.242323 0.000000 
0.150173 0.235419 0.000000 
0.732650 0.937104 0.000000 
0.627610 0.597762 0.000000 
0.936667 0.774825 0.000000 
0.563371 0.803876 0.000000 
0.841980 0.581513 0.000000 
0.788115 0.930205 0.000000 
0.627940 0.896107 0.000000 
0.732300 0.556641 0.000000 
0.886674 0.876426 0.000000 
0.562706 0.690455 0.000000 
0.918511 0.663861 0.000000 
0.677138 0.925785 0.000000 
0.677862 0.571388 0.000000 
0.918666 0.829378 0.000000 
0.555975 0.746943 0.000000 
0.887057 0.615791 0.000000 
0.589195 0.854437 0.000000 
0.789030 0.560791 0.000000 
0.843340 0.913338 0.000000 
0.587712 0.638260 0.000000 
0.935322 0.718168 0.000000 
0.704463 0.932862 0.000000 
0.650259 0.580726 0.000000 
0.926730 0.801838 0.000000 
0.560377 0.774865 0.000000 
0.865528 0.597558 0.000000 
0.760773 0.938316 0.000000 
0.605577 0.877718 0.000000 
0.760683 0.554838 0.000000 
0.865789 0.895851 0.000000 
0.574811 0.664163 0.000000 
0.930700 0.690136 0.000000 
0.652997 0.910080 0.000000 
0.704093 0.560925 0.000000 
0.905708 0.855298 0.000000 
0.558107 0.718506 0.000000 
0.901991 0.640404 0.000000 
0.574912 0.829749 0.000000 
0.817165 0.567647 0.000000 
0.816563 0.924383 0.000000 
0.606749 0.617152 0.000000 
0.937482 0.746596 0.000000 
0.719791 0.926813 0.000000 
0.722411 0.909330 0.000000 
0.709558 0.899113 0.000000 
[...]
POINT_DATA 616 
VECTORS X_GC float 
0.239188 0.443428 0.000000 
0.134200 0.104164 0.000000 
0.443202 0.281261 0.000000 
0.069916 0.310264 0.000000 
0.348472 0.087895 0.000000 
0.294723 0.436509 0.000000 
0.134469 0.402429 0.000000 
0.238819 0.062934 0.000000 
0.393264 0.382823 0.000000 
0.069173 0.196916 0.000000 
0.425079 0.170214 0.000000 
0.183620 0.432119 0.000000 
0.184435 0.077725 0.000000 
0.425222 0.335827 0.000000 
0.062505 0.253392 0.000000 
0.393601 0.122150 0.000000 
0.095780 0.360798 0.000000 
0.295526 0.067163 0.000000 
0.349943 0.419681 0.000000 
0.094276 0.144710 0.000000 
0.441884 0.224561 0.000000 
0.210967 0.439207 0.000000 
0.156851 0.087107 0.000000 
0.433269 0.308283 0.000000 
0.066932 0.281280 0.000000 
0.372047 0.103922 0.000000 
0.267341 0.444613 0.000000 
0.112120 0.384043 0.000000 
0.267196 0.061169 0.000000 
0.372400 0.402218 0.000000 
0.081322 0.170621 0.000000 
0.437238 0.196487 0.000000 
0.159501 0.416417 0.000000 
0.210643 0.067223 0.000000 
0.412307 0.361726 0.000000 
0.064593 0.224961 0.000000 
0.408557 0.146755 0.000000 
0.081501 0.336141 0.000000 
0.323659 0.074045 0.000000 
0.323173 0.430705 0.000000 
0.113315 0.123588 0.000000 
0.444045 0.253023 0.000000 
0.226306 0.433145 0.000000 
0.228933 0.415672 0.000000 
0.216068 0.405450 0.000000 
0.244234 0.409683 0.000000 
0.202156 0.412126 0.000000 
0.199681 0.428409 0.000000 
0.187594 0.403780 0.000000 
0.175845 0.416433 0.000000 
0.217578 0.388407 0.000000 
0.247798 0.392953 0.000000 
0.255488 0.420101 0.000000 
0.271468 0.416199 0.000000 
0.253070 0.436374 0.000000 
0.278991 0.431711 0.000000 
0.203573 0.378288 0.000000 
0.234006 0.381901 0.000000 
0.262529 0.388827 0.000000 
0.095790 0.344318 0.000000 
0.111076 0.335467 0.000000 
0.111040 0.319046 0.000000 
0.125295 0.343677 0.000000 
0.097094 0.312262 0.000000 
0.082841 0.320502 0.000000 
0.094248 0.295264 0.000000 
0.077043 0.293977 0.000000 
0.125301 0.309593 0.000000 
0.140594 0.336021 0.000000 
0.123907 0.359482 0.000000 
0.135633 0.372099 0.000000 
0.109684 0.367753 0.000000 
0.128187 0.387661 0.000000 
0.124477 0.292348 0.000000 
0.140637 0.318359 0.000000 
0.153187 0.347718 0.000000 
0.152384 0.401560 0.000000 
0.160073 0.382681 0.000000 
0.377187 0.386456 0.000000 
0.365128 0.373506 0.000000 
0.349126 0.377212 0.000000 
0.369962 0.357820 0.000000 
0.345847 0.392739 0.000000 
0.357052 0.404809 0.000000 
0.330941 0.401380 0.000000 
0.333511 0.418437 0.000000 
0.336737 0.365408 0.000000 
0.359101 0.344612 0.000000 
0.385689 0.355664 0.000000 
0.395383 0.341426 0.000000 
0.396945 0.367721 0.000000 
0.412221 0.345244 0.000000 
0.320122 0.370059 0.000000 
0.341882 0.348507 0.000000 
0.367714 0.329714 0.000000 
0.074081 0.266438 0.000000 
0.104842 0.266129 0.000000 
0.129383 0.119926 0.000000 
0.141412 0.132863 0.000000 
0.157415 0.129170 0.000000 
0.136569 0.148559 0.000000 
0.160926 0.114069 0.000000 
0.149740 0.101994 0.000000 
0.176860 0.107511 0.000000 
0.174295 0.090440 0.000000 
0.169803 0.140970 0.000000 
0.147442 0.161770 0.000000 
0.120852 0.150731 0.000000 
0.111155 0.164986 0.000000 
0.109624 0.138698 0.000000 
0.094322 0.161190 0.000000 
0.186434 0.136327 0.000000 
0.164668 0.157873 0.000000 
0.141598 0.178025 0.000000 
0.355613 0.102743 0.000000 
0.345676 0.117343 0.000000 
0.352833 0.132121 0.000000 
0.329298 0.116113 0.000000 
0.368253 0.132128 0.000000 
0.377530 0.118539 0.000000 
0.377758 0.145950 0.000000 
0.393819 0.139646 0.000000 
0.344085 0.146819 0.000000 
0.318833 0.129647 0.000000 
0.323685 0.101273 0.000000 
0.307634 0.094988 0.000000 
0.332923 0.087657 0.000000 
0.307597 0.077740 0.000000 
0.352313 0.161995 0.000000 
0.326464 0.145577 0.000000 
0.301688 0.127569 0.000000 
0.434726 0.239414 0.000000 
0.417112 0.240743 0.000000 
0.410027 0.255557 0.000000 
0.407855 0.227161 0.000000 
0.419628 0.267629 0.000000 
0.436032 0.266421 0.000000 
0.414741 0.283684 0.000000 
0.429651 0.292337 0.000000 
0.393085 0.257873 0.000000 
0.390751 0.227414 0.000000 
0.415955 0.213514 0.000000 
0.410849 0.197039 0.000000 
0.432370 0.212243 0.000000 
0.424329 0.186248 0.000000 
0.386348 0.273773 0.000000 
0.383063 0.243314 0.000000 
0.384462 0.211400 0.000000 
0.408541 0.163224 0.000000 
0.393406 0.176891 0.000000 
0.200492 0.081412 0.000000 
0.209043 0.112497 0.000000 
0.280061 0.071465 0.000000 
0.272564 0.087010 0.000000 
0.071791 0.239782 0.000000 
0.087979 0.242205 0.000000 
0.097206 0.228624 0.000000 
0.090253 0.258896 0.000000 
0.090506 0.213882 0.000000 
0.074082 0.212642 0.000000 
0.095572 0.197417 0.000000 
0.082081 0.186650 0.000000 
0.114318 0.228846 0.000000 
0.125420 0.211707 0.000000 
0.119683 0.249657 0.000000 
0.225970 0.073250 0.000000 
0.228618 0.090731 0.000000 
0.243910 0.096704 0.000000 
0.212846 0.096667 0.000000 
0.255383 0.085739 0.000000 
0.252943 0.069453 0.000000 
0.278858 0.103830 0.000000 
0.245939 0.115156 0.000000 
0.263701 0.121010 0.000000 
0.226842 0.125018 0.000000 
0.420388 0.318539 0.000000 
0.400284 0.315223 0.000000 
0.305893 0.424417 0.000000 
0.302902 0.401281 0.000000 
0.187496 0.386984 0.000000 
0.317610 0.390498 0.000000 
0.370566 0.161113 0.000000 
0.107369 0.284804 0.000000 
0.189981 0.117970 0.000000 
0.398408 0.287504 0.000000 
0.265949 0.371868 0.000000 
0.356595 0.316466 0.000000 
0.291251 0.141371 0.000000 
0.168582 0.339811 0.000000 
0.152733 0.191274 0.000000 
0.367166 0.211848 0.000000 
0.205281 0.361070 0.000000 
0.307726 0.357995 0.000000 
0.343303 0.176771 0.000000 
0.139006 0.282943 0.000000 
0.198838 0.148390 0.000000 
0.369182 0.275943 0.000000 
0.274938 0.401657 0.000000 
0.388277 0.328695 0.000000 
0.296102 0.107751 0.000000 
0.149616 0.367992 0.000000 
0.121032 0.179068 0.000000 
0.396464 0.194673 0.000000 
0.254578 0.358993 0.000000 
0.169787 0.188234 0.000000 
0.347317 0.194119 0.000000 
0.333177 0.206927 0.000000 
0.333225 0.223253 0.000000 
0.319036 0.198766 0.000000 
0.351641 0.227352 0.000000 
0.319048 0.232795 0.000000 
0.303707 0.206318 0.000000 
0.324648 0.180755 0.000000 
0.319973 0.250034 0.000000 
0.303671 0.224020 0.000000 
0.289213 0.196938 0.000000 
0.335797 0.261988 0.000000 
0.305505 0.259530 0.000000 
0.273782 0.204758 0.000000 
0.286720 0.177268 0.000000 
0.237361 0.364900 0.000000 
0.258936 0.342351 0.000000 
0.175886 0.171089 0.000000 
0.290041 0.251722 0.000000 
0.244218 0.332449 0.000000 
0.276858 0.341809 0.000000 
0.289932 0.358049 0.000000 
0.275553 0.261204 0.000000 
0.289133 0.233453 0.000000 
0.225138 0.338378 0.000000 
0.276524 0.278498 0.000000 
0.260089 0.253386 0.000000 
0.291985 0.286310 0.000000 
0.262034 0.287979 0.000000 
0.245601 0.262866 0.000000 
0.259186 0.234026 0.000000 
0.306477 0.276823 0.000000 
0.263097 0.306436 0.000000 
0.246570 0.280160 0.000000 
0.232081 0.289640 0.000000 
0.230658 0.306774 0.000000 
0.246211 0.315754 0.000000 
0.210120 0.317452 0.000000 
0.216621 0.281823 0.000000 
0.198148 0.291287 0.000000 
0.215655 0.264531 0.000000 
0.193069 0.309783 0.000000 
0.172528 0.319431 0.000000 
0.176799 0.282762 0.000000 
0.200201 0.256717 0.000000 
0.230143 0.255050 0.000000 
0.179819 0.265485 0.000000 
0.199235 0.239426 0.000000 
0.229178 0.237760 0.000000 
0.182301 0.225188 0.000000 
0.213724 0.229947 0.000000 
0.212759 0.212655 0.000000 
0.198969 0.200896 0.000000 
0.203292 0.180342 0.000000 
0.227246 0.203176 0.000000 
0.221590 0.183179 0.000000 
0.242763 0.208920 0.000000 
0.258262 0.197922 0.000000 
0.297963 0.162609 0.000000 
0.194145 0.347177 0.000000 
0.206593 0.332360 0.000000 
0.220183 0.142557 0.000000 
0.336791 0.318144 0.000000 
0.330686 0.335291 0.000000 
0.323297 0.305722 0.000000 
0.305716 0.311246 0.000000 
0.301677 0.328509 0.000000 
0.283180 0.330131 0.000000 
0.277234 0.313425 0.000000 
0.291631 0.302780 0.000000 
0.136743 0.258931 0.000000 
0.358111 0.289898 0.000000 
0.338556 0.282430 0.000000 
0.243730 0.226212 0.000000 
0.283385 0.371472 0.000000 
0.289193 0.391806 0.000000 
0.144217 0.209006 0.000000 
0.183000 0.203950 0.000000 
0.273739 0.223571 0.000000 
0.270512 0.138734 0.000000 
0.222643 0.354192 0.000000 
0.193417 0.166249 0.000000 
0.367165 0.302579 0.000000 
0.390293 0.302361 0.000000 
0.362887 0.194934 0.000000 
0.377125 0.176706 0.000000 
0.156371 0.291504 0.000000 
0.179758 0.353189 0.000000 
0.174822 0.375779 0.000000 
0.313153 0.340133 0.000000 
0.354110 0.259538 0.000000 
0.323707 0.287769 0.000000 
0.316031 0.164735 0.000000 
0.157177 0.309675 0.000000 
0.361253 0.242805 0.000000 
0.269259 0.169718 0.000000 
0.256230 0.182555 0.000000 
0.259761 0.152428 0.000000 
0.235075 0.173559 0.000000 
0.113372 0.195018 0.000000 
0.236566 0.154187 0.000000 
0.167396 0.242323 0.000000 
0.150173 0.235419 0.000000 
0.732650 0.937104 0.000000 
0.627610 0.597762 0.000000 
0.936667 0.774825 0.000000 
0.563371 0.803876 0.000000 
0.841980 0.581513 0.000000 
0.788115 0.930205 0.000000 
0.627940 0.896107 0.000000 
0.732300 0.556641 0.000000 
0.886674 0.876426 0.000000 
0.562706 0.690455 0.000000 
0.918511 0.663861 0.000000 
0.677138 0.925785 0.000000 
0.677862 0.571388 0.000000 
0.918666 0.829378 0.000000 
0.555975 0.746943 0.000000 
0.887057 0.615791 0.000000 
0.589195 0.854437 0.000000 
0.789030 0.560791 0.000000 
0.843340 0.913338 0.000000 
0.587712 0.638260 0.000000 
0.935322 0.718168 0.000000 
0.704463 0.932862 0.000000 
0.650259 0.580726 0.000000 
0.926730 0.801838 0.000000 
0.560377 0.774865 0.000000 
0.865528 0.597558 0.000000 
0.760773 0.938316 0.000000 
0.605577 0.877718 0.000000 
0.760683 0.554838 0.000000 
0.865789 0.895851 0.000000 
0.574811 0.664163 0.000000 
0.930700 0.690136 0.000000 
0.652997 0.910080 0.000000 
0.704093 0.560925 0.000000 
0.905708 0.855298 0.000000 
0.558107 0.718506 0.000000 
0.901991 0.640404 0.000000 
0.574912 0.829749 0.000000 
0.817165 0.567647 0.000000 
0.816563 0.924383 0.000000 
0.606749 0.617152 0.000000 
0.937482 0.746596 0.000000 
0.719791 0.926813 0.000000 
0.722411 0.909330 0.000000 
0.709558 0.899113 0.000000 
0.737698 0.903329 0.000000 
0.695663 0.905798 0.000000 
0.693195 0.922076 0.000000 
0.681094 0.897461 0.000000 
0.669347 0.910101 0.000000 
0.711053 0.882067 0.000000 
0.741246 0.886588 0.000000 
0.748939 0.913753 0.000000 
0.764901 0.909845 0.000000 
0.746519 0.930046 0.000000 
0.772413 0.925387 0.000000 
0.697053 0.871959 0.000000 
0.727461 0.875541 0.000000 
0.755957 0.882451 0.000000 
0.589213 0.837962 0.000000 
0.604525 0.829130 0.000000 
0.604494 0.812702 0.000000 
0.618739 0.837334 0.000000 
0.590550 0.805911 0.000000 
0.576272 0.814119 0.000000 
0.587705 0.788901 0.000000 
0.570497 0.787592 0.000000 
0.618753 0.803246 0.000000 
0.634040 0.829678 0.000000 
0.617354 0.853142 0.000000 
0.629092 0.865768 0.000000 
0.603127 0.861417 0.000000 
0.621643 0.881328 0.000000 
0.617925 0.785990 0.000000 
0.634085 0.812013 0.000000 
0.646641 0.841379 0.000000 
0.645856 0.895228 0.000000 
0.653546 0.876354 0.000000 
0.870605 0.880087 0.000000 
0.858575 0.867147 0.000000 
0.842573 0.870840 0.000000 
0.863417 0.851450 0.000000 
0.839266 0.886361 0.000000 
0.850452 0.898436 0.000000 
0.824352 0.894995 0.000000 
0.826914 0.912081 0.000000 
0.830187 0.859037 0.000000 
0.852548 0.838237 0.000000 
0.879135 0.849277 0.000000 
0.888830 0.835021 0.000000 
0.890362 0.861313 0.000000 
0.905660 0.838816 0.000000 
0.813556 0.863680 0.000000 
0.835323 0.842132 0.000000 
0.861156 0.823342 0.000000 
0.567540 0.760016 0.000000 
0.598290 0.759736 0.000000 
0.622827 0.613517 0.000000 
0.634875 0.626473 0.000000 
0.650880 0.622780 0.000000 
0.630040 0.642157 0.000000 
0.654380 0.607669 0.000000 
0.643166 0.595600 0.000000 
0.670312 0.601119 0.000000 
0.667729 0.584062 0.000000 
0.663269 0.634590 0.000000 
0.640900 0.655365 0.000000 
0.614315 0.644311 0.000000 
0.604629 0.658544 0.000000 
0.603063 0.632251 0.000000 
0.587803 0.654739 0.000000 
0.679898 0.629953 0.000000 
0.658125 0.651485 0.000000 
0.635055 0.671621 0.000000 
0.849103 0.596372 0.000000 
0.839165 0.610982 0.000000 
0.846309 0.625760 0.000000 
0.822801 0.609756 0.000000 
0.861721 0.625767 0.000000 
0.870996 0.612172 0.000000 
0.871220 0.639594 0.000000 
0.887274 0.633294 0.000000 
0.837561 0.640464 0.000000 
0.812333 0.623293 0.000000 
0.817196 0.594910 0.000000 
0.801155 0.588632 0.000000 
0.826435 0.581277 0.000000 
0.801114 0.571367 0.000000 
0.845775 0.655643 0.000000 
0.819948 0.639221 0.000000 
0.795195 0.621217 0.000000 
0.928165 0.733012 0.000000 
0.910554 0.734363 0.000000 
0.903458 0.749175 0.000000 
0.901309 0.720807 0.000000 
0.913060 0.761227 0.000000 
0.929472 0.759996 0.000000 
0.908172 0.777276 0.000000 
0.923110 0.785900 0.000000 
0.886503 0.751505 0.000000 
0.884196 0.721065 0.000000 
0.909417 0.707167 0.000000 
0.904319 0.690711 0.000000 
0.925823 0.705883 0.000000 
0.917778 0.679904 0.000000 
0.879759 0.767397 0.000000 
0.876492 0.736958 0.000000 
0.877921 0.705064 0.000000 
0.901985 0.656884 0.000000 
0.886872 0.670557 0.000000 
0.693939 0.575085 0.000000 
0.702511 0.606130 0.000000 
0.773560 0.565118 0.000000 
0.766064 0.580662 0.000000 
0.565274 0.733342 0.000000 
0.581442 0.735777 0.000000 
0.590668 0.722192 0.000000 
0.583708 0.752485 0.000000 
0.583990 0.707437 0.000000 
0.567598 0.706186 0.000000 
0.589053 0.690965 0.000000 
0.575582 0.680197 0.000000 
0.607763 0.722427 0.000000 
0.618867 0.705290 0.000000 
0.613119 0.743258 0.000000 
0.719440 0.566944 0.000000 
0.722094 0.584394 0.000000 
0.737396 0.590353 0.000000 
0.706313 0.590314 0.000000 
0.748870 0.579396 0.000000 
0.746427 0.563130 0.000000 
0.772361 0.597476 0.000000 
0.739423 0.608796 0.000000 
0.757193 0.614652 0.000000 
0.720315 0.618653 0.000000 
0.913831 0.812109 0.000000 
0.893717 0.808815 0.000000 
0.799293 0.918081 0.000000 
0.796318 0.894903 0.000000 
0.680987 0.880669 0.000000 
0.811028 0.884118 0.000000 
0.864025 0.654766 0.000000 
0.600824 0.778437 0.000000 
0.683441 0.611594 0.000000 
0.891823 0.781115 0.000000 
0.759370 0.865482 0.000000 
0.850024 0.810091 0.000000 
0.784742 0.635015 0.000000 
0.662035 0.833472 0.000000 
0.646177 0.684876 0.000000 
0.860613 0.705505 0.000000 
0.698747 0.854734 0.000000 
0.801152 0.851611 0.000000 
0.836768 0.670423 0.000000 
0.632445 0.776579 0.000000 
0.692294 0.642024 0.000000 
0.862587 0.769574 0.000000 
0.768367 0.895281 0.000000 
0.881717 0.822300 0.000000 
0.789619 0.601401 0.000000 
0.643074 0.861655 0.000000 
0.614498 0.672642 0.000000 
0.889934 0.688344 0.000000 
0.747998 0.852611 0.000000 
0.663221 0.681847 0.000000 
0.840772 0.687774 0.000000 
0.826618 0.700576 0.000000 
0.826655 0.716898 0.000000 
0.812484 0.692410 0.000000 
0.845074 0.721006 0.000000 
0.812472 0.726431 0.000000 
0.797141 0.699953 0.000000 
0.818109 0.674402 0.000000 
0.813388 0.743667 0.000000 
0.797096 0.717654 0.000000 
0.782660 0.690572 0.000000 
0.829205 0.755623 0.000000 
0.798916 0.753156 0.000000 
0.767219 0.698389 0.000000 
0.780186 0.670904 0.000000 
0.730800 0.858534 0.000000 
0.752350 0.835968 0.000000 
0.669325 0.664706 0.000000 
0.783462 0.745351 0.000000 
0.737633 0.826071 0.000000 
0.770270 0.835418 0.000000 
0.783348 0.851661 0.000000 
0.768969 0.754829 0.000000 
0.782559 0.727082 0.000000 
0.718569 0.832021 0.000000 
0.769935 0.772119 0.000000 
0.753515 0.747018 0.000000 
0.785392 0.779929 0.000000 
0.755443 0.781601 0.000000 
0.739019 0.756499 0.000000 
0.752613 0.727659 0.000000 
0.799882 0.770444 0.000000 
0.756504 0.800052 0.000000 
0.739984 0.773791 0.000000 
0.725492 0.783274 0.000000 
0.724070 0.800408 0.000000 
0.739622 0.809377 0.000000 
0.703547 0.811103 0.000000 
0.710037 0.775467 0.000000 
0.691565 0.784936 0.000000 
0.709072 0.758174 0.000000 
0.686496 0.803438 0.000000 
0.665971 0.813089 0.000000 
0.670227 0.776410 0.000000 
0.693614 0.750360 0.000000 
0.723561 0.748689 0.000000 
0.673241 0.759127 0.000000 
0.692648 0.733064 0.000000 
0.722598 0.731398 0.000000 
0.675720 0.718814 0.000000 
0.707143 0.723586 0.000000 
0.706186 0.706294 0.000000 
0.692390 0.694527 0.000000 
0.696726 0.673976 0.000000 
0.720674 0.696810 0.000000 
0.715026 0.676812 0.000000 
0.736191 0.702553 0.000000 
0.751703 0.691554 0.000000 
0.791439 0.656250 0.000000 
0.687601 0.840841 0.000000 
0.700029 0.826014 0.000000 
0.713646 0.636192 0.000000 
0.830212 0.811765 0.000000 
0.824112 0.828912 0.000000 
0.816709 0.799337 0.000000 
0.799126 0.804857 0.000000 
0.795092 0.822119 0.000000 
0.776590 0.823740 0.000000 
0.770641 0.807036 0.000000 
0.785038 0.796392 0.000000 
0.630173 0.752546 0.000000 
0.851520 0.783527 0.000000 
0.831962 0.776061 0.000000 
0.737155 0.719847 0.000000 
0.776801 0.865082 0.000000 
0.782611 0.885422 0.000000 
0.637654 0.702603 0.000000 
0.676423 0.697571 0.000000 
0.767168 0.717202 0.000000 
0.763996 0.632373 0.000000 
0.716084 0.847836 0.000000 
0.686863 0.659879 0.000000 
0.860585 0.796207 0.000000 
0.883716 0.795972 0.000000 
0.856345 0.688596 0.000000 
0.870591 0.670368 0.000000 
0.649807 0.785152 0.000000 
0.673219 0.846856 0.000000 
0.668298 0.869461 0.000000 
0.806578 0.833748 0.000000 
0.847520 0.753178 0.000000 
0.817111 0.781391 0.000000 
0.809505 0.658379 0.000000 
0.650620 0.803332 0.000000 
0.854679 0.736455 0.000000 
0.762723 0.663358 0.000000 
0.749682 0.676190 0.000000 
0.753228 0.646061 0.000000 
0.728521 0.667192 0.000000 
0.606835 0.688582 0.000000 
0.730029 0.647823 0.000000 
0.660817 0.735951 0.000000 
0.643595 0.729026 0.000000 
VECTORS X_EC float 
0.131433 -0.216237 0.000000 
0.916724 -0.316010 0.000000 
-0.625216 -0.135961 0.000000 
0.794717 0.398324 0.000000 
-0.757908 -0.030564 0.000000 
0.269830 0.894458 0.000000 
0.951417 -0.310622 0.000000 
-0.258674 -0.223622 0.000000 
-0.656456 0.865271 0.000000 
-0.938322 0.383461 0.000000 
-0.404288 -0.498416 0.000000 
0.357616 0.672404 0.000000 
-0.554508 0.688699 0.000000 
0.283464 -0.495557 0.000000 
-0.067850 0.250092 0.000000 
0.557007 0.872023 0.000000 
-0.215951 0.915602 0.000000 
-0.343253 0.910523 0.000000 
0.606372 -0.001148 0.000000 
0.105798 0.885513 0.000000 
0.508778 -0.162310 0.000000 
0.215854 -0.780670 0.000000 
-0.742148 0.137012 0.000000 
0.834334 -0.334624 0.000000 
-0.625600 0.338649 0.000000 
0.921558 0.440936 0.000000 
0.107733 0.346822 0.000000 
-0.680860 -0.757604 0.000000 
-0.223378 0.343913 0.000000 
0.955646 0.448002 0.000000 
-0.412425 0.626434 0.000000 
-0.929749 -0.255243 0.000000 
0.671662 0.190029 0.000000 
-0.344457 -0.787133 0.000000 
-0.234513 -0.753861 0.000000 
0.500789 0.291852 0.000000 
0.064897 -0.828859 0.000000 
0.277180 0.630020 0.000000 
-0.480899 -0.526814 0.000000 
0.385904 -0.536545 0.000000 
0.528248 -0.733708 0.000000 
-0.060465 -0.119090 0.000000 
0.337090 -0.473883 0.000000 
0.686554 -0.421348 0.000000 
0.890995 -0.678642 0.000000 
0.806345 -0.115313 0.000000 
0.757487 -0.956882 0.000000 
0.431826 0.993627 0.000000 
0.924404 0.751884 0.000000 
0.671343 0.516890 0.000000 
-0.768136 -0.648448 0.000000 
-0.859066 -0.044048 0.000000 
0.597982 0.109764 0.000000 
0.676021 0.429364 0.000000 
0.272519 0.061404 0.000000 
0.365779 0.579829 0.000000 
-0.565754 -0.928547 0.000000 
-0.638013 -0.319872 0.000000 
-0.776550 0.250584 0.000000 
0.113636 0.915803 0.000000 
0.290651 -0.778472 0.000000 
0.619086 -0.779203 0.000000 
0.126459 -0.494096 0.000000 
0.754757 0.941877 0.000000 
0.589969 0.656825 0.000000 
-0.905285 0.884968 0.000000 
-0.879537 0.540865 0.000000 
0.808139 -0.493982 0.000000 
0.279576 -0.188122 0.000000 
-0.189643 -0.521862 0.000000 
-0.441986 -0.287332 0.000000 
-0.355056 -0.806311 0.000000 
-0.753224 -0.436269 0.000000 
-0.846951 -0.510461 0.000000 
0.632817 -0.187269 0.000000 
0.045637 0.063747 0.000000 
0.968806 0.047684 0.000000 
-0.653611 0.201466 0.000000 
-0.729112 0.543737 0.000000 
-0.470113 0.302569 0.000000 
-0.544233 -0.017475 0.000000 
-0.156394 0.399238 0.000000 
-0.854786 -0.083060 0.000000 
0.903826 0.141033 0.000000 
0.972408 -0.381173 0.000000 
0.631257 -0.329771 0.000000 
-0.308157 -0.265262 0.000000 
0.107755 0.182025 0.000000 
-0.113275 0.713772 0.000000 
0.171480 0.907660 0.000000 
-0.354411 0.938901 0.000000 
0.095119 -0.755578 0.000000 
-0.401180 -0.597565 0.000000 