# vtk DataFile Version 3.0 
vtk output 
ASCII 
DATASET UNSTRUCTURED_GRID 
POINTS 616 float 
0.290780 0.495377 0.000000 
0.186044 0.155737 0.000000 
0.494890 0.333513 0.000000 
0.121619 0.362030 0.000000 
0.400626 0.139927 0.000000 
0.346318 0.488497 0.000000 
0.186061 0.454323 0.000000 
0.290938 0.114788 0.000000 
0.442397 0.432477 0.000000 
0.120949 0.248543 0.000000 
0.477038 0.222421 0.000000 
0.235219 0.484060 0.000000 
0.236415 0.129426 0.000000 
0.476601 0.387866 0.000000 
0.114252 0.305103 0.000000 
0.445688 0.174271 0.000000 
0.147415 0.412633 0.000000 
0.347682 0.119101 0.000000 
0.401328 0.471408 0.000000 
0.146037 0.196275 0.000000 
0.493704 0.276812 0.000000 
0.262564 0.491150 0.000000 
0.208760 0.138734 0.000000 
0.484844 0.360459 0.000000 
0.118642 0.333020 0.000000 
0.424169 0.155996 0.000000 
0.318945 0.496585 0.000000 
0.163725 0.435900 0.000000 
0.319341 0.113083 0.000000 
0.422247 0.452494 0.000000 
0.133069 0.222206 0.000000 
0.489140 0.248737 0.000000 
0.211099 0.468348 0.000000 
0.262697 0.118989 0.000000 
0.462880 0.412956 0.000000 
0.116360 0.276634 0.000000 
0.460576 0.198919 0.000000 
0.133160 0.387928 0.000000 
0.375818 0.126024 0.000000 
0.374748 0.482639 0.000000 
0.165108 0.175146 0.000000 
0.495778 0.305266 0.000000 
0.277886 0.485085 0.000000 
0.280481 0.467598 0.000000 
0.267619 0.457377 0.000000 
0.295751 0.461596 0.000000 
0.253734 0.464062 0.000000 
0.251276 0.480348 0.000000 
0.239178 0.455720 0.000000 
0.227439 0.468372 0.000000 
0.269105 0.440319 0.000000 
0.299273 0.444845 0.000000 
0.307017 0.472017 0.000000 
0.322945 0.468075 0.000000 
0.304643 0.488315 0.000000 
0.330543 0.483646 0.000000 
0.255120 0.430201 0.000000 
0.285489 0.433792 0.000000 
0.313932 0.440669 0.000000 
0.147441 0.396146 0.000000 
0.162728 0.387295 0.000000 
0.162699 0.370853 0.000000 
0.176941 0.395526 0.000000 
0.148767 0.364058 0.000000 
0.134515 0.372282 0.000000 
0.145934 0.347040 0.000000 
0.128745 0.345740 0.000000 
0.176951 0.361391 0.000000 
0.192236 0.387869 0.000000 
0.175544 0.411345 0.000000 
0.187258 0.423981 0.000000 
0.161307 0.419603 0.000000 
0.179790 0.439541 0.000000 
0.176129 0.344118 0.000000 
0.192275 0.370176 0.000000 
0.204826 0.399596 0.000000 
0.203980 0.453481 0.000000 
0.211686 0.434597 0.000000 
0.426944 0.436677 0.000000 
0.415421 0.424245 0.000000 
0.399748 0.428238 0.000000 
0.420330 0.408658 0.000000 
0.396760 0.444043 0.000000 
0.407965 0.456097 0.000000 
0.382074 0.452895 0.000000 
0.384902 0.470188 0.000000 
0.387310 0.416412 0.000000 
0.409544 0.395470 0.000000 
0.436286 0.406796 0.000000 
0.446311 0.392904 0.000000 
0.447083 0.418432 0.000000 
0.463364 0.397019 0.000000 
0.370909 0.421283 0.000000 
0.392368 0.399418 0.000000 
0.418411 0.380829 0.000000 
0.125803 0.318166 0.000000 
0.156523 0.317854 0.000000 
0.181189 0.171497 0.000000 
0.193191 0.184446 0.000000 
0.209210 0.180773 0.000000 
0.188310 0.200141 0.000000 
0.212766 0.165677 0.000000 
0.201602 0.153584 0.000000 
0.228741 0.159155 0.000000 
0.226225 0.142093 0.000000 
0.221576 0.192590 0.000000 
0.199157 0.213363 0.000000 
0.172592 0.202308 0.000000 
0.162888 0.216572 0.000000 
0.161390 0.190263 0.000000 
0.146066 0.212770 0.000000 
0.238237 0.187977 0.000000 
0.216397 0.209485 0.000000 
0.193303 0.229630 0.000000 
0.407734 0.154785 0.000000 
0.397756 0.169370 0.000000 
0.404882 0.184160 0.000000 
0.381363 0.168099 0.000000 
0.420307 0.184199 0.000000 
0.429619 0.170622 0.000000 
0.429785 0.198046 0.000000 
0.445867 0.191778 0.000000 
0.396091 0.198838 0.000000 
0.370848 0.181598 0.000000 
0.375784 0.153252 0.000000 
0.359734 0.146937 0.000000 
0.385064 0.139658 0.000000 
0.359740 0.129696 0.000000 
0.404283 0.214018 0.000000 
0.378446 0.197542 0.000000 
0.353687 0.179476 0.000000 
0.486494 0.291624 0.000000 
0.468858 0.292871 0.000000 
0.461701 0.307625 0.000000 
0.459641 0.279266 0.000000 
0.471255 0.319718 0.000000 
0.487707 0.318613 0.000000 
0.466267 0.335694 0.000000 
0.481246 0.344469 0.000000 
0.444717 0.309846 0.000000 
0.442519 0.279443 0.000000 
0.467795 0.265669 0.000000 
0.462746 0.249196 0.000000 
0.484222 0.264465 0.000000 
0.476251 0.238454 0.000000 
0.437828 0.325608 0.000000 
0.434762 0.295277 0.000000 
0.436289 0.263433 0.000000 
0.460528 0.215390 0.000000 
0.445358 0.229009 0.000000 
0.252486 0.133141 0.000000 
0.260953 0.164208 0.000000 
0.332194 0.123383 0.000000 
0.324646 0.138892 0.000000 
0.123539 0.291477 0.000000 
0.139700 0.293900 0.000000 
0.148918 0.280293 0.000000 
0.141959 0.310616 0.000000 
0.142237 0.265531 0.000000 
0.125840 0.264294 0.000000 
0.147304 0.249036 0.000000 
0.133833 0.238262 0.000000 
0.166007 0.280511 0.000000 
0.177108 0.263346 0.000000 
0.171349 0.301352 0.000000 
0.278032 0.125053 0.000000 
0.280629 0.142509 0.000000 
0.295926 0.148505 0.000000 
0.264815 0.148399 0.000000 
0.307447 0.137583 0.000000 
0.305056 0.121322 0.000000 
0.330895 0.155704 0.000000 
0.297894 0.166937 0.000000 
0.315662 0.172825 0.000000 
0.278735 0.176751 0.000000 
0.471788 0.370529 0.000000 
0.451487 0.366937 0.000000 
0.357385 0.476295 0.000000 
0.354164 0.452943 0.000000 
0.239080 0.438916 0.000000 
0.368667 0.441964 0.000000 
0.422550 0.213187 0.000000 
0.159044 0.336562 0.000000 
0.241847 0.169638 0.000000 
0.449811 0.339354 0.000000 
0.317272 0.423650 0.000000 
0.407405 0.367624 0.000000 
0.343191 0.193237 0.000000 
0.220190 0.391675 0.000000 
0.204417 0.242894 0.000000 
0.418972 0.263803 0.000000 
0.256809 0.412961 0.000000 
0.358554 0.409272 0.000000 
0.395214 0.228736 0.000000 
0.190640 0.334694 0.000000 
0.250617 0.200058 0.000000 
0.420578 0.327628 0.000000 
0.326332 0.453465 0.000000 
0.439226 0.380139 0.000000 
0.348154 0.159662 0.000000 
0.201241 0.419885 0.000000 
0.172752 0.230669 0.000000 
0.448362 0.246781 0.000000 
0.305945 0.410823 0.000000 
0.221463 0.239866 0.000000 
0.399169 0.246052 0.000000 
0.384948 0.258784 0.000000 
0.384924 0.275066 0.000000 
0.370814 0.250601 0.000000 
0.403363 0.279208 0.000000 
0.370672 0.284542 0.000000 
0.355418 0.258087 0.000000 
0.376509 0.232652 0.000000 
0.371519 0.301739 0.000000 
0.355300 0.275745 0.000000 
0.340936 0.248689 0.000000 
0.387289 0.313671 0.000000 
0.356960 0.311165 0.000000 
0.325432 0.256450 0.000000 
0.338527 0.229058 0.000000 
0.288802 0.416769 0.000000 
0.310265 0.394115 0.000000 
0.227588 0.222720 0.000000 
0.341506 0.303348 0.000000 
0.295617 0.384232 0.000000 
0.328030 0.393412 0.000000 
0.340949 0.409528 0.000000 
0.326941 0.312784 0.000000 
0.340683 0.285118 0.000000 
0.276594 0.390198 0.000000 
0.327856 0.330078 0.000000 
0.311485 0.304956 0.000000 
0.343272 0.337867 0.000000 
0.313369 0.339598 0.000000 
0.296990 0.314452 0.000000 
0.310667 0.285629 0.000000 
0.357810 0.328393 0.000000 
0.314413 0.358091 0.000000 
0.297949 0.331789 0.000000 
0.283495 0.341316 0.000000 
0.282079 0.358500 0.000000 
0.297596 0.367486 0.000000 
0.261604 0.369233 0.000000 
0.268075 0.333501 0.000000 
0.249649 0.343015 0.000000 
0.267113 0.316168 0.000000 
0.244594 0.361562 0.000000 
0.224116 0.371249 0.000000 
0.228361 0.334497 0.000000 
0.251699 0.308366 0.000000 
0.281580 0.306652 0.000000 
0.231369 0.317178 0.000000 
0.250771 0.291070 0.000000 
0.280671 0.289373 0.000000 
0.233900 0.276840 0.000000 
0.265266 0.281581 0.000000 
0.264357 0.264301 0.000000 
0.250607 0.252548 0.000000 
0.254987 0.232003 0.000000 
0.278870 0.254828 0.000000 
0.273283 0.234850 0.000000 
0.294358 0.260564 0.000000 
0.309914 0.249594 0.000000 
0.349848 0.214465 0.000000 
0.245697 0.399049 0.000000 
0.258098 0.384184 0.000000 
0.272008 0.194262 0.000000 
0.387659 0.369364 0.000000 
0.381418 0.386420 0.000000 
0.374356 0.357105 0.000000 
0.356812 0.362682 0.000000 
0.352692 0.379910 0.000000 
0.334330 0.381677 0.000000 
0.328470 0.365014 0.000000 
0.342838 0.354307 0.000000 
0.188377 0.310634 0.000000 
0.409277 0.341352 0.000000 
0.389821 0.333950 0.000000 
0.295249 0.277828 0.000000 
0.334539 0.423083 0.000000 
0.340443 0.443478 0.000000 
0.195886 0.260642 0.000000 
0.234641 0.255595 0.000000 
0.325297 0.275221 0.000000 
0.322424 0.190544 0.000000 
0.274111 0.406053 0.000000 
0.245147 0.217905 0.000000 
0.418206 0.353974 0.000000 
0.441514 0.354030 0.000000 
0.414755 0.246917 0.000000 
0.429069 0.228775 0.000000 
0.207981 0.343273 0.000000 
0.231344 0.405077 0.000000 
0.226419 0.427699 0.000000 
0.363996 0.391389 0.000000 
0.405658 0.311279 0.000000 
0.374932 0.339266 0.000000 
0.367939 0.216642 0.000000 
0.208793 0.361481 0.000000 
0.412928 0.294660 0.000000 
0.321059 0.221481 0.000000 
0.307948 0.234256 0.000000 
0.311607 0.204189 0.000000 
0.286811 0.225251 0.000000 
0.165086 0.246634 0.000000 
0.288376 0.205906 0.000000 
0.218992 0.293996 0.000000 
0.201808 0.287085 0.000000 
0.680546 0.885188 0.000000 
0.577780 0.547514 0.000000 
0.884931 0.723170 0.000000 
0.511447 0.751671 0.000000 
0.790399 0.529592 0.000000 
0.736118 0.878390 0.000000 
0.575826 0.844030 0.000000 
0.680667 0.504641 0.000000 
0.834887 0.824823 0.000000 
0.511069 0.638222 0.000000 
0.866863 0.612078 0.000000 
0.625002 0.873788 0.000000 
0.626320 0.519489 0.000000 
0.866925 0.777797 0.000000 
0.504212 0.694710 0.000000 
0.835480 0.563941 0.000000 
0.537164 0.802304 0.000000 
0.737428 0.508845 0.000000 
0.791463 0.861633 0.000000 
0.537144 0.587028 0.000000 
0.883630 0.666458 0.000000 
0.652341 0.880917 0.000000 
0.598907 0.529042 0.000000 
0.874994 0.750225 0.000000 
0.508537 0.722650 0.000000 
0.813953 0.545670 0.000000 
0.708701 0.886432 0.000000 
0.553480 0.825598 0.000000 
0.709062 0.502867 0.000000 
0.813963 0.844217 0.000000 
0.523418 0.612117 0.000000 
0.879011 0.638388 0.000000 
0.600879 0.858052 0.000000 
0.652442 0.508894 0.000000 
0.853949 0.803717 0.000000 
0.506397 0.666268 0.000000 
0.850378 0.588572 0.000000 
0.522936 0.777590 0.000000 
0.765581 0.515720 0.000000 
0.764627 0.872617 0.000000 
0.557631 0.567517 0.000000 
0.885766 0.694911 0.000000 
0.667688 0.874890 0.000000 
0.670351 0.857438 0.000000 
0.657505 0.847207 0.000000 
[...]
POINT_DATA 616 
VECTORS X_GC float 
0.290780 0.495377 0.000000 
0.186044 0.155737 0.000000 
0.494890 0.333513 0.000000 
0.121619 0.362030 0.000000 
0.400626 0.139927 0.000000 
0.346318 0.488497 0.000000 
0.186061 0.454323 0.000000 
0.290938 0.114788 0.000000 
0.442397 0.432477 0.000000 
0.120949 0.248543 0.000000 
0.477038 0.222421 0.000000 
0.235219 0.484060 0.000000 
0.236415 0.129426 0.000000 
0.476601 0.387866 0.000000 
0.114252 0.305103 0.000000 
0.445688 0.174271 0.000000 
0.147415 0.412633 0.000000 
0.347682 0.119101 0.000000 
0.401328 0.471408 0.000000 
0.146037 0.196275 0.000000 
0.493704 0.276812 0.000000 
0.262564 0.491150 0.000000 
0.208760 0.138734 0.000000 
0.484844 0.360459 0.000000 
0.118642 0.333020 0.000000 
0.424169 0.155996 0.000000 
0.318945 0.496585 0.000000 
0.163725 0.435900 0.000000 
0.319341 0.113083 0.000000 
0.422247 0.452494 0.000000 
0.133069 0.222206 0.000000 
0.489140 0.248737 0.000000 
0.211099 0.468348 0.000000 
0.262697 0.118989 0.000000 
0.462880 0.412956 0.000000 
0.116360 0.276634 0.000000 
0.460576 0.198919 0.000000 
0.133160 0.387928 0.000000 
0.375818 0.126024 0.000000 
0.374748 0.482639 0.000000 
0.165108 0.175146 0.000000 
0.495778 0.305266 0.000000 
0.277886 0.485085 0.000000 
0.280481 0.467598 0.000000 
0.267619 0.457377 0.000000 
0.295751 0.461596 0.000000 
0.253734 0.464062 0.000000 
0.251276 0.480348 0.000000 
0.239178 0.455720 0.000000 
0.227439 0.468372 0.000000 
0.269105 0.440319 0.000000 
0.299273 0.444845 0.000000 
0.307017 0.472017 0.000000 
0.322945 0.468075 0.000000 
0.304643 0.488315 0.000000 
0.330543 0.483646 0.000000 
0.255120 0.430201 0.000000 
0.285489 0.433792 0.000000 
0.313932 0.440669 0.000000 
0.147441 0.396146 0.000000 
0.162728 0.387295 0.000000 
0.162699 0.370853 0.000000 
0.176941 0.395526 0.000000 
0.148767 0.364058 0.000000 
0.134515 0.372282 0.000000 
0.145934 0.347040 0.000000 
0.128745 0.345740 0.000000 
0.176951 0.361391 0.000000 
0.192236 0.387869 0.000000 
0.175544 0.411345 0.000000 
0.187258 0.423981 0.000000 
0.161307 0.419603 0.000000 
0.179790 0.439541 0.000000 
0.176129 0.344118 0.000000 
0.192275 0.370176 0.000000 
0.204826 0.399596 0.000000 
0.203980 0.453481 0.000000 
0.211686 0.434597 0.000000 
0.426944 0.436677 0.000000 
0.415421 0.424245 0.000000 
0.399748 0.428238 0.000000 
0.420330 0.408658 0.000000 
0.396760 0.444043 0.000000 
0.407965 0.456097 0.000000 
0.382074 0.452895 0.000000 
0.384902 0.470188 0.000000 
0.387310 0.416412 0.000000 
0.409544 0.395470 0.000000 
0.436286 0.406796 0.000000 
0.446311 0.392904 0.000000 
0.447083 0.418432 0.000000 
0.463364 0.397019 0.000000 
0.370909 0.421283 0.000000 
0.392368 0.399418 0.000000 
0.418411 0.380829 0.000000 
0.125803 0.318166 0.000000 
0.156523 0.317854 0.000000 
0.181189 0.171497 0.000000 
0.193191 0.184446 0.000000 
0.209210 0.180773 0.000000 
0.188310 0.200141 0.000000 
0.212766 0.165677 0.000000 
0.201602 0.153584 0.000000 
0.228741 0.159155 0.000000 
0.226225 0.142093 0.000000 
0.221576 0.192590 0.000000 
0.199157 0.213363 0.000000 
0.172592 0.202308 0.000000 
0.162888 0.216572 0.000000 
0.161390 0.190263 0.000000 
0.146066 0.212770 0.000000 
0.238237 0.187977 0.000000 
0.216397 0.209485 0.000000 
0.193303 0.229630 0.000000 
0.407734 0.154785 0.000000 
0.397756 0.169370 0.000000 
0.404882 0.184160 0.000000 
0.381363 0.168099 0.000000 
0.420307 0.184199 0.000000 
0.429619 0.170622 0.000000 
0.429785 0.198046 0.000000 
0.445867 0.191778 0.000000 
0.396091 0.198838 0.000000 
0.370848 0.181598 0.000000 
0.375784 0.153252 0.000000 
0.359734 0.146937 0.000000 
0.385064 0.139658 0.000000 
0.359740 0.129696 0.000000 
0.404283 0.214018 0.000000 
0.378446 0.197542 0.000000 
0.353687 0.179476 0.000000 
0.486494 0.291624 0.000000 
0.468858 0.292871 0.000000 
0.461701 0.307625 0.000000 
0.459641 0.279266 0.000000 
0.471255 0.319718 0.000000 
0.487707 0.318613 0.000000 
0.466267 0.335694 0.000000 
0.481246 0.344469 0.000000 
0.444717 0.309846 0.000000 
0.442519 0.279443 0.000000 
0.467795 0.265669 0.000000 
0.462746 0.249196 0.000000 
0.484222 0.264465 0.000000 
0.476251 0.238454 0.000000 
0.437828 0.325608 0.000000 
0.434762 0.295277 0.000000 
0.436289 0.263433 0.000000 
0.460528 0.215390 0.000000 
0.445358 0.229009 0.000000 
0.252486 0.133141 0.000000 
0.260953 0.164208 0.000000 
0.332194 0.123383 0.000000 
0.324646 0.138892 0.000000 
0.123539 0.291477 0.000000 
0.139700 0.293900 0.000000 
0.148918 0.280293 0.000000 
0.141959 0.310616 0.000000 
0.142237 0.265531 0.000000 
0.125840 0.264294 0.000000 
0.147304 0.249036 0.000000 
0.133833 0.238262 0.000000 
0.166007 0.280511 0.000000 
0.177108 0.263346 0.000000 
0.171349 0.301352 0.000000 
0.278032 0.125053 0.000000 
0.280629 0.142509 0.000000 
0.295926 0.148505 0.000000 
0.264815 0.148399 0.000000 
0.307447 0.137583 0.000000 
0.305056 0.121322 0.000000 
0.330895 0.155704 0.000000 
0.297894 0.166937 0.000000 
0.315662 0.172825 0.000000 
0.278735 0.176751 0.000000 
0.471788 0.370529 0.000000 
0.451487 0.366937 0.000000 
0.357385 0.476295 0.000000 
0.354164 0.452943 0.000000 
0.239080 0.438916 0.000000 
0.368667 0.441964 0.000000 
0.422550 0.213187 0.000000 
0.159044 0.336562 0.000000 
0.241847 0.169638 0.000000 
0.449811 0.339354 0.000000 
0.317272 0.423650 0.000000 
0.407405 0.367624 0.000000 
0.343191 0.193237 0.000000 
0.220190 0.391675 0.000000 
0.204417 0.242894 0.000000 
0.418972 0.263803 0.000000 
0.256809 0.412961 0.000000 
0.358554 0.409272 0.000000 
0.395214 0.228736 0.000000 
0.190640 0.334694 0.000000 
0.250617 0.200058 0.000000 
0.420578 0.327628 0.000000 
0.326332 0.453465 0.000000 
0.439226 0.380139 0.000000 
0.348154 0.159662 0.000000 
0.201241 0.419885 0.000000 
0.172752 0.230669 0.000000 
0.448362 0.246781 0.000000 
0.305945 0.410823 0.000000 
0.221463 0.239866 0.000000 
0.399169 0.246052 0.000000 
0.384948 0.258784 0.000000 
0.384924 0.275066 0.000000 
0.370814 0.250601 0.000000 
0.403363 0.279208 0.000000 
0.370672 0.284542 0.000000 
0.355418 0.258087 0.000000 
0.376509 0.232652 0.000000 
0.371519 0.301739 0.000000 
0.355300 0.275745 0.000000 
0.340936 0.248689 0.000000 
0.387289 0.313671 0.000000 
0.356960 0.311165 0.000000 
0.325432 0.256450 0.000000 
0.338527 0.229058 0.000000 
0.288802 0.416769 0.000000 
0.310265 0.394115 0.000000 
0.227588 0.222720 0.000000 
0.341506 0.303348 0.000000 
0.295617 0.384232 0.000000 
0.328030 0.393412 0.000000 
0.340949 0.409528 0.000000 
0.326941 0.312784 0.000000 
0.340683 0.285118 0.000000 
0.276594 0.390198 0.000000 
0.327856 0.330078 0.000000 
0.311485 0.304956 0.000000 
0.343272 0.337867 0.000000 
0.313369 0.339598 0.000000 
0.296990 0.314452 0.000000 
0.310667 0.285629 0.000000 
0.357810 0.328393 0.000000 
0.314413 0.358091 0.000000 
0.297949 0.331789 0.000000 
0.283495 0.341316 0.000000 
0.282079 0.358500 0.000000 
0.297596 0.367486 0.000000 
0.261604 0.369233 0.000000 
0.268075 0.333501 0.000000 
0.249649 0.343015 0.000000 
0.267113 0.316168 0.000000 
0.244594 0.361562 0.000000 
0.224116 0.371249 0.000000 
0.228361 0.334497 0.000000 
0.251699 0.308366 0.000000 
0.281580 0.306652 0.000000 
0.231369 0.317178 0.000000 
0.250771 0.291070 0.000000 
0.280671 0.289373 0.000000 
0.233900 0.276840 0.000000 
0.265266 0.281581 0.000000 
0.264357 0.264301 0.000000 
0.250607 0.252548 0.000000 
0.254987 0.232003 0.000000 
0.278870 0.254828 0.000000 
0.273283 0.234850 0.000000 
0.294358 0.260564 0.000000 
0.309914 0.249594 0.000000 
0.349848 0.214465 0.000000 
0.245697 0.399049 0.000000 
0.258098 0.384184 0.000000 
0.272008 0.194262 0.000000 
0.387659 0.369364 0.000000 
0.381418 0.386420 0.000000 
0.374356 0.357105 0.000000 
0.356812 0.362682 0.000000 
0.352692 0.379910 0.000000 
0.334330 0.381677 0.000000 
0.328470 0.365014 0.000000 
0.342838 0.354307 0.000000 
0.188377 0.310634 0.000000 
0.409277 0.341352 0.000000 
0.389821 0.333950 0.000000 
0.295249 0.277828 0.000000 
0.334539 0.423083 0.000000 
0.340443 0.443478 0.000000 
0.195886 0.260642 0.000000 
0.234641 0.255595 0.000000 
0.325297 0.275221 0.000000 
0.322424 0.190544 0.000000 
0.274111 0.406053 0.000000 
0.245147 0.217905 0.000000 
0.418206 0.353974 0.000000 
0.441514 0.354030 0.000000 
0.414755 0.246917 0.000000 
0.429069 0.228775 0.000000 
0.207981 0.343273 0.000000 
0.231344 0.405077 0.000000 
0.226419 0.427699 0.000000 
0.363996 0.391389 0.000000 
0.405658 0.311279 0.000000 
0.374932 0.339266 0.000000 
0.367939 0.216642 0.000000 
0.208793 0.361481 0.000000 
0.412928 0.294660 0.000000 
0.321059 0.221481 0.000000 
0.307948 0.234256 0.000000 
0.311607 0.204189 0.000000 
0.286811 0.225251 0.000000 
0.165086 0.246634 0.000000 
0.288376 0.205906 0.000000 
0.218992 0.293996 0.000000 
0.201808 0.287085 0.000000 
0.680546 0.885188 0.000000 
0.577780 0.547514 0.000000 
0.884931 0.723170 0.000000 
0.511447 0.751671 0.000000 
0.790399 0.529592 0.000000 
0.736118 0.878390 0.000000 
0.575826 0.844030 0.000000 
0.680667 0.504641 0.000000 
0.834887 0.824823 0.000000 
0.511069 0.638222 0.000000 
0.866863 0.612078 0.000000 
0.625002 0.873788 0.000000 
0.626320 0.519489 0.000000 
0.866925 0.777797 0.000000 
0.504212 0.694710 0.000000 
0.835480 0.563941 0.000000 
0.537164 0.802304 0.000000 
0.737428 0.508845 0.000000 
0.791463 0.861633 0.000000 
0.537144 0.587028 0.000000 
0.883630 0.666458 0.000000 
0.652341 0.880917 0.000000 
0.598907 0.529042 0.000000 
0.874994 0.750225 0.000000 
0.508537 0.722650 0.000000 
0.813953 0.545670 0.000000 
0.708701 0.886432 0.000000 
0.553480 0.825598 0.000000 
0.709062 0.502867 0.000000 
0.813963 0.844217 0.000000 
0.523418 0.612117 0.000000 
0.879011 0.638388 0.000000 
0.600879 0.858052 0.000000 
0.652442 0.508894 0.000000 
0.853949 0.803717 0.000000 
0.506397 0.666268 0.000000 
0.850378 0.588572 0.000000 
0.522936 0.777590 0.000000 
0.765581 0.515720 0.000000 
0.764627 0.872617 0.000000 
0.557631 0.567517 0.000000 
0.885766 0.694911 0.000000 
0.667688 0.874890 0.000000 
0.670351 0.857438 0.000000 
0.657505 0.847207 0.000000 
0.685668 0.851478 0.000000 
0.643579 0.853853 0.000000 
0.641077 0.870111 0.000000 
0.629018 0.845493 0.000000 
0.617239 0.858105 0.000000 
0.659050 0.830181 0.000000 
0.689275 0.834767 0.000000 
0.696901 0.861905 0.000000 
0.712900 0.858030 0.000000 
0.694442 0.878165 0.000000 
0.720392 0.873556 0.000000 
0.645057 0.820046 0.000000 
0.675502 0.823702 0.000000 
0.704019 0.830662 0.000000 
0.537213 0.785827 0.000000 
0.552542 0.777023 0.000000 
0.552562 0.760617 0.000000 
0.566746 0.785260 0.000000 
0.538630 0.753790 0.000000 
0.524334 0.761960 0.000000 
0.535839 0.736786 0.000000 
0.518625 0.735414 0.000000 
0.566863 0.751227 0.000000 
0.582083 0.777660 0.000000 
0.565320 0.801051 0.000000 
0.577036 0.813697 0.000000 
0.551064 0.809292 0.000000 
0.569556 0.829249 0.000000 
0.566094 0.734002 0.000000 
0.582182 0.760033 0.000000 
0.594651 0.789367 0.000000 
0.593759 0.843192 0.000000 
0.601490 0.824334 0.000000 
0.818807 0.828464 0.000000 
0.806795 0.815517 0.000000 
0.790777 0.819188 0.000000 
0.811665 0.799831 0.000000 
0.787437 0.834698 0.000000 
0.798611 0.846782 0.000000 
0.772484 0.843304 0.000000 
0.775013 0.860363 0.000000 
0.778404 0.807378 0.000000 
0.800819 0.786607 0.000000 
0.827387 0.797672 0.000000 
0.837097 0.783417 0.000000 
0.838597 0.809717 0.000000 
0.853922 0.787226 0.000000 
0.761746 0.811996 0.000000 
0.783578 0.790486 0.000000 
0.809440 0.771714 0.000000 
0.515749 0.707836 0.000000 
0.546531 0.707703 0.000000 
0.573083 0.563328 0.000000 
0.584605 0.575767 0.000000 
0.600279 0.571786 0.000000 
0.579696 0.591349 0.000000 
0.603477 0.556404 0.000000 
0.592262 0.544337 0.000000 
0.619209 0.549651 0.000000 
0.616384 0.532365 0.000000 
0.612717 0.583610 0.000000 
0.590479 0.604543 0.000000 
0.563738 0.593203 0.000000 
0.553710 0.607092 0.000000 
0.552942 0.581560 0.000000 
0.536659 0.602970 0.000000 
0.629117 0.578738 0.000000 
0.607661 0.600602 0.000000 
0.584372 0.620562 0.000000 
0.797522 0.544459 0.000000 
0.787575 0.559069 0.000000 
0.794710 0.573860 0.000000 
0.771220 0.557842 0.000000 
0.810122 0.573885 0.000000 
0.819415 0.560298 0.000000 
0.819608 0.587728 0.000000 
0.835673 0.581445 0.000000 
0.785963 0.588574 0.000000 
0.760769 0.571391 0.000000 
0.765616 0.542988 0.000000 
0.749574 0.536703 0.000000 
0.774852 0.529353 0.000000 
0.749522 0.519433 0.000000 
0.794165 0.603771 0.000000 
0.768383 0.587336 0.000000 
0.743655 0.569315 0.000000 
0.876466 0.681311 0.000000 
0.858865 0.682651 0.000000 
0.851768 0.697478 0.000000 
0.849632 0.669067 0.000000 
0.861356 0.709550 0.000000 
0.877754 0.708326 0.000000 
0.856465 0.725622 0.000000 
0.871387 0.734265 0.000000 
0.834834 0.699814 0.000000 
0.832539 0.669323 0.000000 
0.857738 0.655412 0.000000 
0.852654 0.638927 0.000000 
0.874135 0.654142 0.000000 
0.866115 0.628132 0.000000 
0.828085 0.715727 0.000000 
0.824841 0.685244 0.000000 
0.826275 0.653290 0.000000 
0.850353 0.605062 0.000000 
0.835235 0.618739 0.000000 
0.642427 0.523196 0.000000 
0.651275 0.554493 0.000000 
0.721961 0.513167 0.000000 
0.714494 0.528726 0.000000 
0.513572 0.681168 0.000000 
0.529769 0.683706 0.000000 
0.539101 0.670230 0.000000 
0.531958 0.700389 0.000000 
0.532472 0.655459 0.000000 
0.515963 0.654031 0.000000 
0.537681 0.639098 0.000000 
0.524124 0.628153 0.000000 
0.556267 0.670604 0.000000 
0.567613 0.653703 0.000000 
0.561455 0.691346 0.000000 
0.667848 0.514976 0.000000 
0.670605 0.532515 0.000000 
0.685889 0.538454 0.000000 
0.654918 0.538529 0.000000 
0.697307 0.527456 0.000000 
0.694820 0.511163 0.000000 
0.720817 0.545559 0.000000 
0.687974 0.556930 0.000000 
0.705708 0.562759 0.000000 
0.669044 0.566949 0.000000 
0.862105 0.760499 0.000000 
0.842002 0.757196 0.000000 
0.747340 0.866310 0.000000 
0.744410 0.843165 0.000000 
0.628951 0.828711 0.000000 
0.759167 0.832413 0.000000 
0.812405 0.602905 0.000000 
0.549002 0.726386 0.000000 
0.632398 0.560152 0.000000 
0.840128 0.729463 0.000000 
0.707489 0.813719 0.000000 
0.798327 0.758452 0.000000 
0.733249 0.583136 0.000000 
0.610096 0.781518 0.000000 
0.595351 0.633745 0.000000 
0.808988 0.653729 0.000000 
0.646799 0.802839 0.000000 
0.749358 0.799920 0.000000 
0.785176 0.618581 0.000000 
0.580663 0.724678 0.000000 
0.641475 0.590749 0.000000 
0.810929 0.717906 0.000000 
0.716410 0.843497 0.000000 
0.829996 0.770684 0.000000 
0.738059 0.549481 0.000000 
0.591035 0.809619 0.000000 
0.563572 0.621262 0.000000 
0.838284 0.636550 0.000000 
0.696142 0.800847 0.000000 
0.612353 0.630652 0.000000 
0.789175 0.635962 0.000000 
0.775061 0.648800 0.000000 
0.775094 0.665157 0.000000 
0.760961 0.640633 0.000000 
0.793469 0.669258 0.000000 
0.760945 0.674729 0.000000 
0.745665 0.648209 0.000000 
0.766564 0.622581 0.000000 
0.761848 0.691997 0.000000 
0.745615 0.665950 0.000000 
0.731212 0.638821 0.000000 
0.777612 0.703947 0.000000 
0.747392 0.701508 0.000000 
0.715811 0.646676 0.000000 
0.728735 0.619108 0.000000 
0.678898 0.806722 0.000000 
0.700559 0.784233 0.000000 
0.618603 0.613598 0.000000 
0.731985 0.693717 0.000000 
0.685869 0.774329 0.000000 
0.718495 0.783704 0.000000 
0.731535 0.799947 0.000000 
0.717495 0.703208 0.000000 
0.731106 0.675420 0.000000 
0.666740 0.780212 0.000000 
0.718394 0.720480 0.000000 
0.702097 0.695421 0.000000 
0.733805 0.728277 0.000000 
0.703881 0.729954 0.000000 
0.687571 0.704892 0.000000 
0.701227 0.676037 0.000000 
0.748306 0.718791 0.000000 
0.704863 0.748379 0.000000 
0.688458 0.722153 0.000000 
0.673896 0.731591 0.000000 
0.672393 0.748685 0.000000 
0.687935 0.757671 0.000000 
0.651778 0.759302 0.000000 
0.658438 0.723763 0.000000 
0.639881 0.733170 0.000000 
0.657545 0.706507 0.000000 
0.634724 0.751615 0.000000 
0.614116 0.761194 0.000000 
0.618524 0.724620 0.000000 
0.642081 0.698683 0.000000 
0.672118 0.697075 0.000000 
0.621615 0.707390 0.000000 
0.641224 0.681451 0.000000 
0.671223 0.679803 0.000000 
0.624410 0.667287 0.000000 
0.655791 0.672001 0.000000 
0.654925 0.654747 0.000000 
0.641257 0.643078 0.000000 
0.645710 0.622577 0.000000 
0.669415 0.645223 0.000000 
0.663866 0.625269 0.000000 
0.684867 0.650910 0.000000 
0.700329 0.639840 0.000000 
0.739952 0.604408 0.000000 
0.635679 0.788934 0.000000 
0.648192 0.774172 0.000000 
0.662560 0.584643 0.000000 
0.778519 0.760114 0.000000 
0.772389 0.777257 0.000000 
0.765041 0.747682 0.000000 
0.747452 0.753193 0.000000 
0.743371 0.770442 0.000000 
0.724859 0.772046 0.000000 
0.718968 0.755357 0.000000 
0.733396 0.744730 0.000000 
0.578472 0.700693 0.000000 
0.799855 0.731870 0.000000 
0.780327 0.724392 0.000000 
0.685806 0.668233 0.000000 
0.724943 0.813345 0.000000 
0.730705 0.833672 0.000000 
0.586555 0.651238 0.000000 
0.625325 0.646183 0.000000 
0.715755 0.665535 0.000000 
0.712545 0.580502 0.000000 
0.664188 0.795995 0.000000 
0.636030 0.608630 0.000000 
0.808899 0.744564 0.000000 
0.832016 0.744337 0.000000 
0.804725 0.636787 0.000000 
0.818964 0.618537 0.000000 
0.598020 0.733294 0.000000 
0.621251 0.794903 0.000000 
0.616272 0.817479 0.000000 
0.754831 0.782074 0.000000 
0.795896 0.701494 0.000000 
0.765484 0.729731 0.000000 
0.757974 0.606530 0.000000 
0.598767 0.751425 0.000000 
0.803054 0.684742 0.000000 
0.711312 0.611558 0.000000 
0.698310 0.624438 0.000000 
0.701836 0.594224 0.000000 
0.677286 0.615541 0.000000 
0.555659 0.636972 0.000000 
0.678804 0.596132 0.000000 
0.609313 0.684300 0.000000 
0.592150 0.677415 0.000000 
VECTORS X_EC float 
-0.907548 0.815609 0.000000 
-0.114731 0.720873 0.000000 
0.329745 0.897799 0.000000 
-0.240603 -0.567615 0.000000 
0.201466 -0.987482 0.000000 
-0.769944 -0.073631 0.000000 
-0.086465 0.721227 0.000000 
0.704246 0.818769 0.000000 
0.350467 -0.152067 0.000000 
0.029143 -0.581025 0.000000 
0.551588 0.540759 0.000000 
-0.681196 -0.295621 0.000000 
0.411472 -0.271706 0.000000 
-0.757323 0.532023 0.000000 
0.897930 -0.714951 0.000000 
-0.485411 -0.086240 0.000000 
0.747342 -0.051693 0.000000 
0.617971 -0.046358 0.000000 
-0.428168 -0.973441 0.000000 
-0.925498 -0.079256 0.000000 
-0.536249 0.874075 0.000000 
-0.822992 0.251279 0.000000 
0.225325 -0.824803 0.000000 
-0.209176 0.696875 0.000000 
0.339598 -0.627163 0.000000 
-0.119913 -0.516614 0.000000 
-0.931704 -0.621104 0.000000 
0.281993 0.274509 0.000000 
0.738340 -0.613172 0.000000 
-0.049888 -0.555052 0.000000 
0.555880 -0.338629 0.000000 
0.025260 0.782800 0.000000 
-0.366955 -0.778022 0.000000 
0.620226 0.253933 0.000000 
0.740874 0.257596 0.000000 
-0.532688 -0.672793 0.000000 
-0.978379 0.211511 0.000000 
-0.758562 -0.336809 0.000000 
0.479521 0.516363 0.000000 
-0.652774 0.494969 0.000000 
-0.502922 0.302166 0.000000 
0.894681 0.915569 0.000000 
-0.701698 0.557719 0.000000 
-0.351967 0.609620 0.000000 
-0.147532 0.352372 0.000000 
-0.231919 0.915020 0.000000 
-0.281240 0.074678 0.000000 
-0.606969 0.025514 0.000000 
-0.114400 -0.216434 0.000000 
-0.367439 -0.451223 0.000000 
0.193610 0.382092 0.000000 
0.103093 0.985467 0.000000 
-0.440330 -0.859667 0.000000 
-0.361490 -0.541101 0.000000 
-0.766299 -0.907145 0.000000 
-0.672914 -0.389136 0.000000 
0.395977 0.102407 0.000000 
0.324164 0.709782 0.000000 
0.186627 -0.721363 0.000000 
-0.922914 -0.051172 0.000000 
-0.745906 0.254569 0.000000 
-0.417052 0.253980 0.000000 
-0.910528 0.538825 0.000000 
-0.281151 -0.024654 0.000000 
-0.445648 -0.309705 0.000000 
0.059204 -0.081327 0.000000 
0.085192 -0.425101 0.000000 
-0.227821 0.539026 0.000000 
-0.757381 0.844716 0.000000 
0.773098 0.510889 0.000000 
0.520382 0.745158 0.000000 
0.607946 0.226132 0.000000 
0.209171 0.595801 0.000000 
0.117649 0.522583 0.000000 
-0.403518 0.845500 0.000000 
-0.991915 -0.903481 0.000000 
-0.069616 -0.920410 0.000000 
0.308057 -0.766283 0.000000 
0.266457 -0.461110 0.000000 
0.515100 -0.691584 0.000000 
0.435232 0.994962 0.000000 
0.826834 -0.593407 0.000000 
0.119141 0.935196 0.000000 
-0.121937 -0.840706 0.000000 
-0.057900 0.641477 0.000000 
-0.403756 0.698048 0.000000 
0.671766 0.746195 0.000000 
-0.909405 -0.809119 0.000000 
0.864076 -0.274279 0.000000 
-0.858086 -0.073777 0.000000 
0.631353 -0.058332 0.000000 
-0.940370 0.267270 0.000000 