# vtk DataFile Version 3.0 
vtk output 
ASCII 
DATASET UNSTRUCTURED_GRID 
POINTS 616 float 
0.245743 0.450247 0.000000 
0.141050 0.110842 0.000000 
0.449931 0.288227 0.000000 
0.076575 0.316893 0.000000 
0.355390 0.094779 0.000000 
0.301239 0.443394 0.000000 
0.141050 0.409158 0.000000 
0.245743 0.069753 0.000000 
0.399852 0.389764 0.000000 
0.075966 0.203514 0.000000 
0.431887 0.177223 0.000000 
0.190217 0.438888 0.000000 
0.191321 0.084487 0.000000 
0.431887 0.342777 0.000000 
0.069219 0.260000 0.000000 
0.400489 0.129105 0.000000 
0.102370 0.367470 0.000000 
0.302453 0.074003 0.000000 
0.356487 0.426582 0.000000 
0.101094 0.151334 0.000000 
0.448650 0.231566 0.000000 
0.217547 0.445997 0.000000 
0.163717 0.093834 0.000000 
0.439973 0.315241 0.000000 
0.073605 0.287902 0.000000 
0.378950 0.110842 0.000000 
0.273875 0.451469 0.000000 
0.118699 0.390741 0.000000 
0.274118 0.068011 0.000000 
0.378950 0.409158 0.000000 
0.088113 0.177223 0.000000 
0.444034 0.203514 0.000000 
0.166096 0.423168 0.000000 
0.217547 0.074003 0.000000 
0.418906 0.368666 0.000000 
0.071350 0.231566 0.000000 
0.415400 0.153734 0.000000 
0.088113 0.342777 0.000000 
0.330581 0.080898 0.000000 
0.329700 0.437593 0.000000 
0.120148 0.130236 0.000000 
0.450781 0.260000 0.000000 
0.232877 0.439951 0.000000 
0.235510 0.422479 0.000000 
0.222660 0.412254 0.000000 
0.250803 0.416495 0.000000 
0.208756 0.418921 0.000000 
0.206276 0.435194 0.000000 
0.194198 0.410572 0.000000 
0.182444 0.423204 0.000000 
0.224178 0.395210 0.000000 
0.254376 0.399762 0.000000 
0.262045 0.426925 0.000000 
0.278019 0.423033 0.000000 
0.259618 0.443205 0.000000 
0.285528 0.438569 0.000000 
0.210189 0.385086 0.000000 
0.240601 0.388703 0.000000 
0.269098 0.395641 0.000000 
0.102398 0.350992 0.000000 
0.117699 0.342157 0.000000 
0.117682 0.325735 0.000000 
0.131913 0.350383 0.000000 
0.103744 0.318938 0.000000 
0.089476 0.327146 0.000000 
0.100919 0.301936 0.000000 
0.083714 0.300622 0.000000 
0.131954 0.316296 0.000000 
0.147223 0.342743 0.000000 
0.130512 0.366189 0.000000 
0.142235 0.378824 0.000000 
0.116271 0.374442 0.000000 
0.134771 0.394381 0.000000 
0.131147 0.299046 0.000000 
0.147281 0.325078 0.000000 
0.159812 0.354456 0.000000 
0.158972 0.408309 0.000000 
0.166681 0.389439 0.000000 
0.383780 0.393403 0.000000 
0.371762 0.380451 0.000000 
0.355756 0.384122 0.000000 
0.376619 0.364763 0.000000 
0.352435 0.399639 0.000000 
0.363611 0.411723 0.000000 
0.337509 0.408256 0.000000 
0.340056 0.425323 0.000000 
0.343377 0.372309 0.000000 
0.365764 0.351537 0.000000 
0.392341 0.362612 0.000000 
0.402050 0.348371 0.000000 
0.403556 0.374660 0.000000 
0.418878 0.352187 0.000000 
0.326739 0.376934 0.000000 
0.348529 0.355411 0.000000 
0.374382 0.336658 0.000000 
0.080780 0.273067 0.000000 
0.111539 0.272794 0.000000 
0.136220 0.126597 0.000000 
0.148238 0.139549 0.000000 
0.164244 0.135878 0.000000 
0.143381 0.155237 0.000000 
0.167769 0.120777 0.000000 
0.156593 0.108693 0.000000 
0.183716 0.114239 0.000000 
0.181169 0.097173 0.000000 
0.176623 0.147691 0.000000 
0.154236 0.168463 0.000000 
0.127659 0.157388 0.000000 
0.117950 0.171629 0.000000 
0.116444 0.145340 0.000000 
0.101122 0.167813 0.000000 
0.193261 0.143066 0.000000 
0.171471 0.164589 0.000000 
0.148380 0.184709 0.000000 
0.362515 0.109638 0.000000 
0.352562 0.124237 0.000000 
0.359702 0.139025 0.000000 
0.336187 0.122993 0.000000 
0.375123 0.139051 0.000000 
0.384417 0.125466 0.000000 
0.384616 0.152889 0.000000 
0.400687 0.146608 0.000000 
0.350940 0.153722 0.000000 
0.325707 0.136519 0.000000 
0.330590 0.108144 0.000000 
0.314547 0.101847 0.000000 
0.339841 0.094529 0.000000 
0.314522 0.084592 0.000000 
0.359152 0.168914 0.000000 
0.333320 0.152460 0.000000 
0.308566 0.134425 0.000000 
0.441474 0.246400 0.000000 
0.423855 0.247721 0.000000 
0.416745 0.262524 0.000000 
0.414618 0.234142 0.000000 
0.426340 0.274596 0.000000 
0.442756 0.273393 0.000000 
0.421439 0.290646 0.000000 
0.436370 0.299295 0.000000 
0.399791 0.264836 0.000000 
0.397509 0.234383 0.000000 
0.422738 0.220509 0.000000 
0.417658 0.204040 0.000000 
0.439150 0.219253 0.000000 
0.431133 0.193262 0.000000 
0.393034 0.280728 0.000000 
0.389792 0.250273 0.000000 
0.391250 0.218368 0.000000 
0.415372 0.170213 0.000000 
0.400239 0.183869 0.000000 
0.207380 0.088181 0.000000 
0.215905 0.119262 0.000000 
0.286984 0.078307 0.000000 
0.279475 0.093843 0.000000 
0.078526 0.246400 0.000000 
0.094705 0.248843 0.000000 
0.103942 0.235264 0.000000 
0.096960 0.265545 0.000000 
0.097262 0.220509 0.000000 
0.080850 0.219253 0.000000 
0.102342 0.204040 0.000000 
0.088867 0.193262 0.000000 
0.121051 0.235505 0.000000 
0.132169 0.218372 0.000000 
0.126393 0.256332 0.000000 
0.232877 0.080049 0.000000 
0.235510 0.097521 0.000000 
0.250803 0.103505 0.000000 
0.219728 0.103435 0.000000 
0.262288 0.092555 0.000000 
0.259861 0.076274 0.000000 
0.285753 0.110665 0.000000 
0.252813 0.121958 0.000000 
0.270576 0.127831 0.000000 
0.233696 0.131801 0.000000 
0.427072 0.325493 0.000000 
0.406959 0.322176 0.000000 
0.312427 0.431295 0.000000 
0.309466 0.408134 0.000000 
0.194113 0.393780 0.000000 
0.324192 0.397365 0.000000 
0.377407 0.168055 0.000000 
0.114049 0.291483 0.000000 
0.196829 0.124714 0.000000 
0.405087 0.294466 0.000000 
0.272534 0.378677 0.000000 
0.363261 0.323396 0.000000 
0.298111 0.148218 0.000000 
0.175216 0.346566 0.000000 
0.159501 0.197971 0.000000 
0.373947 0.218794 0.000000 
0.211906 0.367864 0.000000 
0.314345 0.364854 0.000000 
0.350132 0.183685 0.000000 
0.145682 0.289651 0.000000 
0.205655 0.155146 0.000000 
0.375862 0.282886 0.000000 
0.281499 0.408483 0.000000 
0.394946 0.335644 0.000000 
0.303001 0.114602 0.000000 
0.156224 0.374731 0.000000 
0.127816 0.185723 0.000000 
0.403279 0.201658 0.000000 
0.261174 0.365796 0.000000 
0.176553 0.194955 0.000000 
0.354125 0.201041 0.000000 
0.339967 0.213831 0.000000 
0.339988 0.230157 0.000000 
0.325839 0.205650 0.000000 
0.358397 0.234283 0.000000 
0.325796 0.239679 0.000000 
0.310497 0.213180 0.000000 
0.331470 0.187644 0.000000 
0.326693 0.256919 0.000000 
0.310433 0.230882 0.000000 
0.296015 0.203783 0.000000 
0.342496 0.268894 0.000000 
0.312211 0.266394 0.000000 
0.280568 0.211587 0.000000 
0.293545 0.184110 0.000000 
0.243964 0.371700 0.000000 
0.265547 0.349160 0.000000 
0.182668 0.177818 0.000000 
0.296762 0.258570 0.000000 
0.250842 0.339250 0.000000 
0.283472 0.348629 0.000000 
0.296536 0.364885 0.000000 
0.282257 0.268036 0.000000 
0.295882 0.240299 0.000000 
0.231764 0.345172 0.000000 
0.283203 0.285330 0.000000 
0.266807 0.260208 0.000000 
0.298654 0.293158 0.000000 
0.268699 0.294797 0.000000 
0.252302 0.269674 0.000000 
0.265928 0.240844 0.000000 
0.313157 0.283687 0.000000 
0.269740 0.313251 0.000000 
0.253248 0.286969 0.000000 
0.238744 0.296435 0.000000 
0.237302 0.313569 0.000000 
0.252847 0.322557 0.000000 
0.216761 0.324237 0.000000 
0.223293 0.288607 0.000000 
0.204807 0.298058 0.000000 
0.222347 0.271313 0.000000 
0.199717 0.316553 0.000000 
0.179174 0.326184 0.000000 
0.183473 0.289510 0.000000 
0.206896 0.263485 0.000000 
0.236852 0.261846 0.000000 
0.186508 0.272232 0.000000 
0.205950 0.246190 0.000000 
0.235906 0.244551 0.000000 
0.189030 0.231929 0.000000 
0.220455 0.236723 0.000000 
0.219509 0.219429 0.000000 
0.205725 0.207655 0.000000 
0.210073 0.187105 0.000000 
0.234013 0.209962 0.000000 
0.228376 0.189959 0.000000 
0.249531 0.215721 0.000000 
0.265051 0.204736 0.000000 
0.304803 0.169462 0.000000 
0.200778 0.353959 0.000000 
0.213228 0.339146 0.000000 
0.227015 0.149334 0.000000 
0.343447 0.325045 0.000000 
0.337332 0.342182 0.000000 
0.329952 0.312606 0.000000 
0.312362 0.318104 0.000000 
0.308311 0.335360 0.000000 
0.289805 0.336960 0.000000 
0.283871 0.320250 0.000000 
0.298281 0.309624 0.000000 
0.143440 0.265626 0.000000 
0.364782 0.296830 0.000000 
0.345231 0.289337 0.000000 
0.250477 0.233016 0.000000 
0.289971 0.378296 0.000000 
0.295761 0.398640 0.000000 
0.150965 0.215695 0.000000 
0.189751 0.210688 0.000000 
0.280498 0.230401 0.000000 
0.277369 0.145561 0.000000 
0.229258 0.360986 0.000000 
0.200214 0.173002 0.000000 
0.373836 0.309525 0.000000 
0.396969 0.309320 0.000000 
0.369696 0.201878 0.000000 
0.383958 0.183664 0.000000 
0.163036 0.298232 0.000000 
0.186386 0.359961 0.000000 
0.181439 0.382560 0.000000 
0.319786 0.346998 0.000000 
0.360809 0.266469 0.000000 
0.330374 0.294655 0.000000 
0.322870 0.171610 0.000000 
0.163828 0.316410 0.000000 
0.367983 0.249748 0.000000 
0.276082 0.176546 0.000000 
0.263035 0.189368 0.000000 
0.266597 0.159242 0.000000 
0.241878 0.180350 0.000000 
0.120140 0.201662 0.000000 
0.243393 0.160981 0.000000 
0.174108 0.249050 0.000000 
0.156894 0.242121 0.000000 
0.725743 0.930247 0.000000 
0.621050 0.590842 0.000000 
0.929931 0.768227 0.000000 
0.556575 0.796893 0.000000 
0.835390 0.574779 0.000000 
0.781239 0.923394 0.000000 
0.621050 0.889158 0.000000 
0.725743 0.549753 0.000000 
0.879852 0.869764 0.000000 
0.555966 0.683514 0.000000 
0.911887 0.657223 0.000000 
0.670217 0.918888 0.000000 
0.671321 0.564487 0.000000 
0.911887 0.822777 0.000000 
0.549219 0.740000 0.000000 
0.880489 0.609105 0.000000 
0.582370 0.847470 0.000000 
0.782453 0.554003 0.000000 
0.836487 0.906582 0.000000 
0.581094 0.631334 0.000000 
0.928650 0.711566 0.000000 
0.697547 0.925997 0.000000 
0.643717 0.573834 0.000000 
0.919973 0.795241 0.000000 
0.553605 0.767902 0.000000 
0.858950 0.590842 0.000000 
0.753875 0.931469 0.000000 
0.598699 0.870741 0.000000 
0.754118 0.548011 0.000000 
0.858950 0.889158 0.000000 
0.568113 0.657223 0.000000 
0.924034 0.683514 0.000000 
0.646096 0.903168 0.000000 
0.697547 0.554003 0.000000 
0.898906 0.848666 0.000000 
0.551350 0.711566 0.000000 
0.895400 0.633734 0.000000 
0.568113 0.822777 0.000000 
0.810581 0.560898 0.000000 
0.809700 0.917593 0.000000 
0.600148 0.610236 0.000000 
0.930781 0.740000 0.000000 
0.712877 0.919951 0.000000 
0.715510 0.902479 0.000000 
0.702660 0.892254 0.000000 
[...]
POINT_DATA 616 
VECTORS X_GC float 
0.245743 0.450247 0.000000 
0.141050 0.110842 0.000000 
0.449931 0.288227 0.000000 
0.076575 0.316893 0.000000 
0.355390 0.094779 0.000000 
0.301239 0.443394 0.000000 
0.141050 0.409158 0.000000 
0.245743 0.069753 0.000000 
0.399852 0.389764 0.000000 
0.075966 0.203514 0.000000 
0.431887 0.177223 0.000000 
0.190217 0.438888 0.000000 
0.191321 0.084487 0.000000 
0.431887 0.342777 0.000000 
0.069219 0.260000 0.000000 
0.400489 0.129105 0.000000 
0.102370 0.367470 0.000000 
0.302453 0.074003 0.000000 
0.356487 0.426582 0.000000 
0.101094 0.151334 0.000000 
0.448650 0.231566 0.000000 
0.217547 0.445997 0.000000 
0.163717 0.093834 0.000000 
0.439973 0.315241 0.000000 
0.073605 0.287902 0.000000 
0.378950 0.110842 0.000000 
0.273875 0.451469 0.000000 
0.118699 0.390741 0.000000 
0.274118 0.068011 0.000000 
0.378950 0.409158 0.000000 
0.088113 0.177223 0.000000 
0.444034 0.203514 0.000000 
0.166096 0.423168 0.000000 
0.217547 0.074003 0.000000 
0.418906 0.368666 0.000000 
0.071350 0.231566 0.000000 
0.415400 0.153734 0.000000 
0.088113 0.342777 0.000000 
0.330581 0.080898 0.000000 
0.329700 0.437593 0.000000 
0.120148 0.130236 0.000000 
0.450781 0.260000 0.000000 
0.232877 0.439951 0.000000 
0.235510 0.422479 0.000000 
0.222660 0.412254 0.000000 
0.250803 0.416495 0.000000 
0.208756 0.418921 0.000000 
0.206276 0.435194 0.000000 
0.194198 0.410572 0.000000 
0.182444 0.423204 0.000000 
0.224178 0.395210 0.000000 
0.254376 0.399762 0.000000 
0.262045 0.426925 0.000000 
0.278019 0.423033 0.000000 
0.259618 0.443205 0.000000 
0.285528 0.438569 0.000000 
0.210189 0.385086 0.000000 
0.240601 0.388703 0.000000 
0.269098 0.395641 0.000000 
0.102398 0.350992 0.000000 
0.117699 0.342157 0.000000 
0.117682 0.325735 0.000000 
0.131913 0.350383 0.000000 
0.103744 0.318938 0.000000 
0.089476 0.327146 0.000000 
0.100919 0.301936 0.000000 
0.083714 0.300622 0.000000 
0.131954 0.316296 0.000000 
0.147223 0.342743 0.000000 
0.130512 0.366189 0.000000 
0.142235 0.378824 0.000000 
0.116271 0.374442 0.000000 
0.134771 0.394381 0.000000 
0.131147 0.299046 0.000000 
0.147281 0.325078 0.000000 
0.159812 0.354456 0.000000 
0.158972 0.408309 0.000000 
0.166681 0.389439 0.000000 
0.383780 0.393403 0.000000 
0.371762 0.380451 0.000000 
0.355756 0.384122 0.000000 
0.376619 0.364763 0.000000 
0.352435 0.399639 0.000000 
0.363611 0.411723 0.000000 
0.337509 0.408256 0.000000 
0.340056 0.425323 0.000000 
0.343377 0.372309 0.000000 
0.365764 0.351537 0.000000 
0.392341 0.362612 0.000000 
0.402050 0.348371 0.000000 
0.403556 0.374660 0.000000 
0.418878 0.352187 0.000000 
0.326739 0.376934 0.000000 
0.348529 0.355411 0.000000 
0.374382 0.336658 0.000000 
0.080780 0.273067 0.000000 
0.111539 0.272794 0.000000 
0.136220 0.126597 0.000000 
0.148238 0.139549 0.000000 
0.164244 0.135878 0.000000 
0.143381 0.155237 0.000000 
0.167769 0.120777 0.000000 
0.156593 0.108693 0.000000 
0.183716 0.114239 0.000000 
0.181169 0.097173 0.000000 
0.176623 0.147691 0.000000 
0.154236 0.168463 0.000000 
0.127659 0.157388 0.000000 
0.117950 0.171629 0.000000 
0.116444 0.145340 0.000000 
0.101122 0.167813 0.000000 
0.193261 0.143066 0.000000 
0.171471 0.164589 0.000000 
0.148380 0.184709 0.000000 
0.362515 0.109638 0.000000 
0.352562 0.124237 0.000000 
0.359702 0.139025 0.000000 
0.336187 0.122993 0.000000 
0.375123 0.139051 0.000000 
0.384417 0.125466 0.000000 
0.384616 0.152889 0.000000 
0.400687 0.146608 0.000000 
0.350940 0.153722 0.000000 
0.325707 0.136519 0.000000 
0.330590 0.108144 0.000000 
0.314547 0.101847 0.000000 
0.339841 0.094529 0.000000 
0.314522 0.084592 0.000000 
0.359152 0.168914 0.000000 
0.333320 0.152460 0.000000 
0.308566 0.134425 0.000000 
0.441474 0.246400 0.000000 
0.423855 0.247721 0.000000 
0.416745 0.262524 0.000000 
0.414618 0.234142 0.000000 
0.426340 0.274596 0.000000 
0.442756 0.273393 0.000000 
0.421439 0.290646 0.000000 
0.436370 0.299295 0.000000 
0.399791 0.264836 0.000000 
0.397509 0.234383 0.000000 
0.422738 0.220509 0.000000 
0.417658 0.204040 0.000000 
0.439150 0.219253 0.000000 
0.431133 0.193262 0.000000 
0.393034 0.280728 0.000000 
0.389792 0.250273 0.000000 
0.391250 0.218368 0.000000 
0.415372 0.170213 0.000000 
0.400239 0.183869 0.000000 
0.207380 0.088181 0.000000 
0.215905 0.119262 0.000000 
0.286984 0.078307 0.000000 
0.279475 0.093843 0.000000 
0.078526 0.246400 0.000000 
0.094705 0.248843 0.000000 
0.103942 0.235264 0.000000 
0.096960 0.265545 0.000000 
0.097262 0.220509 0.000000 
0.080850 0.219253 0.000000 
0.102342 0.204040 0.000000 
0.088867 0.193262 0.000000 
0.121051 0.235505 0.000000 
0.132169 0.218372 0.000000 
0.126393 0.256332 0.000000 
0.232877 0.080049 0.000000 
0.235510 0.097521 0.000000 
0.250803 0.103505 0.000000 
0.219728 0.103435 0.000000 
0.262288 0.092555 0.000000 
0.259861 0.076274 0.000000 
0.285753 0.110665 0.000000 
0.252813 0.121958 0.000000 
0.270576 0.127831 0.000000 
0.233696 0.131801 0.000000 
0.427072 0.325493 0.000000 
0.406959 0.322176 0.000000 
0.312427 0.431295 0.000000 
0.309466 0.408134 0.000000 
0.194113 0.393780 0.000000 
0.324192 0.397365 0.000000 
0.377407 0.168055 0.000000 
0.114049 0.291483 0.000000 
0.196829 0.124714 0.000000 
0.405087 0.294466 0.000000 
0.272534 0.378677 0.000000 
0.363261 0.323396 0.000000 
0.298111 0.148218 0.000000 
0.175216 0.346566 0.000000 
0.159501 0.197971 0.000000 
0.373947 0.218794 0.000000 
0.211906 0.367864 0.000000 
0.314345 0.364854 0.000000 
0.350132 0.183685 0.000000 
0.145682 0.289651 0.000000 
0.205655 0.155146 0.000000 
0.375862 0.282886 0.000000 
0.281499 0.408483 0.000000 
0.394946 0.335644 0.000000 
0.303001 0.114602 0.000000 
0.156224 0.374731 0.000000 
0.127816 0.185723 0.000000 
0.403279 0.201658 0.000000 
0.261174 0.365796 0.000000 
0.176553 0.194955 0.000000 
0.354125 0.201041 0.000000 
0.339967 0.213831 0.000000 
0.339988 0.230157 0.000000 
0.325839 0.205650 0.000000 
0.358397 0.234283 0.000000 
0.325796 0.239679 0.000000 
0.310497 0.213180 0.000000 
0.331470 0.187644 0.000000 
0.326693 0.256919 0.000000 
0.310433 0.230882 0.000000 
0.296015 0.203783 0.000000 
0.342496 0.268894 0.000000 
0.312211 0.266394 0.000000 
0.280568 0.211587 0.000000 
0.293545 0.184110 0.000000 
0.243964 0.371700 0.000000 
0.265547 0.349160 0.000000 
0.182668 0.177818 0.000000 
0.296762 0.258570 0.000000 
0.250842 0.339250 0.000000 
0.283472 0.348629 0.000000 
0.296536 0.364885 0.000000 
0.282257 0.268036 0.000000 
0.295882 0.240299 0.000000 
0.231764 0.345172 0.000000 
0.283203 0.285330 0.000000 
0.266807 0.260208 0.000000 
0.298654 0.293158 0.000000 
0.268699 0.294797 0.000000 
0.252302 0.269674 0.000000 
0.265928 0.240844 0.000000 
0.313157 0.283687 0.000000 
0.269740 0.313251 0.000000 
0.253248 0.286969 0.000000 
0.238744 0.296435 0.000000 
0.237302 0.313569 0.000000 
0.252847 0.322557 0.000000 
0.216761 0.324237 0.000000 
0.223293 0.288607 0.000000 
0.204807 0.298058 0.000000 
0.222347 0.271313 0.000000 
0.199717 0.316553 0.000000 
0.179174 0.326184 0.000000 
0.183473 0.289510 0.000000 
0.206896 0.263485 0.000000 
0.236852 0.261846 0.000000 
0.186508 0.272232 0.000000 
0.205950 0.246190 0.000000 
0.235906 0.244551 0.000000 
0.189030 0.231929 0.000000 
0.220455 0.236723 0.000000 
0.219509 0.219429 0.000000 
0.205725 0.207655 0.000000 
0.210073 0.187105 0.000000 
0.234013 0.209962 0.000000 
0.228376 0.189959 0.000000 
0.249531 0.215721 0.000000 
0.265051 0.204736 0.000000 
0.304803 0.169462 0.000000 
0.200778 0.353959 0.000000 
0.213228 0.339146 0.000000 
0.227015 0.149334 0.000000 
0.343447 0.325045 0.000000 
0.337332 0.342182 0.000000 
0.329952 0.312606 0.000000 
0.312362 0.318104 0.000000 
0.308311 0.335360 0.000000 
0.289805 0.336960 0.000000 
0.283871 0.320250 0.000000 
0.298281 0.309624 0.000000 
0.143440 0.265626 0.000000 
0.364782 0.296830 0.000000 
0.345231 0.289337 0.000000 
0.250477 0.233016 0.000000 
0.289971 0.378296 0.000000 
0.295761 0.398640 0.000000 
0.150965 0.215695 0.000000 
0.189751 0.210688 0.000000 
0.280498 0.230401 0.000000 
0.277369 0.145561 0.000000 
0.229258 0.360986 0.000000 
0.200214 0.173002 0.000000 
0.373836 0.309525 0.000000 
0.396969 0.309320 0.000000 
0.369696 0.201878 0.000000 
0.383958 0.183664 0.000000 
0.163036 0.298232 0.000000 
0.186386 0.359961 0.000000 
0.181439 0.382560 0.000000 
0.319786 0.346998 0.000000 
0.360809 0.266469 0.000000 
0.330374 0.294655 0.000000 
0.322870 0.171610 0.000000 
0.163828 0.316410 0.000000 
0.367983 0.249748 0.000000 
0.276082 0.176546 0.000000 
0.263035 0.189368 0.000000 
0.266597 0.159242 0.000000 
0.241878 0.180350 0.000000 
0.120140 0.201662 0.000000 
0.243393 0.160981 0.000000 
0.174108 0.249050 0.000000 
0.156894 0.242121 0.000000 
0.725743 0.930247 0.000000 
0.621050 0.590842 0.000000 
0.929931 0.768227 0.000000 
0.556575 0.796893 0.000000 
0.835390 0.574779 0.000000 
0.781239 0.923394 0.000000 
0.621050 0.889158 0.000000 
0.725743 0.549753 0.000000 
0.879852 0.869764 0.000000 
0.555966 0.683514 0.000000 
0.911887 0.657223 0.000000 
0.670217 0.918888 0.000000 
0.671321 0.564487 0.000000 
0.911887 0.822777 0.000000 
0.549219 0.740000 0.000000 
0.880489 0.609105 0.000000 
0.582370 0.847470 0.000000 
0.782453 0.554003 0.000000 
0.836487 0.906582 0.000000 
0.581094 0.631334 0.000000 
0.928650 0.711566 0.000000 
0.697547 0.925997 0.000000 
0.643717 0.573834 0.000000 
0.919973 0.795241 0.000000 
0.553605 0.767902 0.000000 
0.858950 0.590842 0.000000 
0.753875 0.931469 0.000000 
0.598699 0.870741 0.000000 
0.754118 0.548011 0.000000 
0.858950 0.889158 0.000000 
0.568113 0.657223 0.000000 
0.924034 0.683514 0.000000 
0.646096 0.903168 0.000000 
0.697547 0.554003 0.000000 
0.898906 0.848666 0.000000 
0.551350 0.711566 0.000000 
0.895400 0.633734 0.000000 
0.568113 0.822777 0.000000 
0.810581 0.560898 0.000000 
0.809700 0.917593 0.000000 
0.600148 0.610236 0.000000 
0.930781 0.740000 0.000000 
0.712877 0.919951 0.000000 
0.715510 0.902479 0.000000 
0.702660 0.892254 0.000000 
0.730803 0.896495 0.000000 
0.688756 0.898921 0.000000 
0.686276 0.915194 0.000000 
0.674198 0.890572 0.000000 
0.662444 0.903204 0.000000 
0.704178 0.875210 0.000000 
0.734376 0.879762 0.000000 
0.742045 0.906925 0.000000 
0.758019 0.903033 0.000000 
0.739618 0.923205 0.000000 
0.765528 0.918569 0.000000 
0.690189 0.865086 0.000000 
0.720601 0.868703 0.000000 
0.749098 0.875641 0.000000 
0.582398 0.830992 0.000000 
0.597699 0.822157 0.000000 
0.597682 0.805735 0.000000 
0.611913 0.830383 0.000000 
0.583744 0.798938 0.000000 
0.569476 0.807146 0.000000 
0.580919 0.781936 0.000000 
0.563714 0.780622 0.000000 
0.611954 0.796296 0.000000 
0.627223 0.822743 0.000000 
0.610512 0.846189 0.000000 
0.622235 0.858824 0.000000 
0.596271 0.854442 0.000000 
0.614771 0.874381 0.000000 
0.611147 0.779046 0.000000 
0.627281 0.805078 0.000000 
0.639812 0.834456 0.000000 
0.638972 0.888309 0.000000 
0.646681 0.869439 0.000000 
0.863780 0.873403 0.000000 
0.851762 0.860451 0.000000 
0.835756 0.864122 0.000000 
0.856619 0.844763 0.000000 
0.832435 0.879639 0.000000 
0.843611 0.891723 0.000000 
0.817509 0.888256 0.000000 
0.820056 0.905323 0.000000 
0.823377 0.852309 0.000000 
0.845764 0.831537 0.000000 
0.872341 0.842612 0.000000 
0.882050 0.828371 0.000000 
0.883556 0.854660 0.000000 
0.898878 0.832187 0.000000 
0.806739 0.856934 0.000000 
0.828529 0.835411 0.000000 
0.854382 0.816658 0.000000 
0.560780 0.753067 0.000000 
0.591539 0.752794 0.000000 
0.616220 0.606597 0.000000 
0.628238 0.619549 0.000000 
0.644244 0.615878 0.000000 
0.623381 0.635237 0.000000 
0.647769 0.600777 0.000000 
0.636593 0.588693 0.000000 
0.663716 0.594239 0.000000 
0.661169 0.577173 0.000000 
0.656623 0.627691 0.000000 
0.634236 0.648463 0.000000 
0.607659 0.637388 0.000000 
0.597950 0.651629 0.000000 
0.596444 0.625340 0.000000 
0.581122 0.647813 0.000000 
0.673261 0.623066 0.000000 
0.651471 0.644589 0.000000 
0.628380 0.664709 0.000000 
0.842515 0.589638 0.000000 
0.832562 0.604237 0.000000 
0.839702 0.619025 0.000000 
0.816187 0.602993 0.000000 
0.855123 0.619051 0.000000 
0.864417 0.605466 0.000000 
0.864616 0.632889 0.000000 
0.880687 0.626608 0.000000 
0.830940 0.633722 0.000000 
0.805707 0.616519 0.000000 
0.810590 0.588144 0.000000 
0.794547 0.581847 0.000000 
0.819841 0.574529 0.000000 
0.794522 0.564592 0.000000 
0.839152 0.648914 0.000000 
0.813320 0.632460 0.000000 
0.788566 0.614425 0.000000 
0.921474 0.726400 0.000000 
0.903855 0.727721 0.000000 
0.896745 0.742524 0.000000 
0.894618 0.714142 0.000000 
0.906340 0.754596 0.000000 
0.922756 0.753393 0.000000 
0.901439 0.770646 0.000000 
0.916370 0.779295 0.000000 
0.879791 0.744836 0.000000 
0.877509 0.714383 0.000000 
0.902738 0.700509 0.000000 
0.897658 0.684040 0.000000 
0.919150 0.699253 0.000000 
0.911133 0.673262 0.000000 
0.873034 0.760728 0.000000 
0.869792 0.730273 0.000000 
0.871250 0.698368 0.000000 
0.895372 0.650213 0.000000 
0.880239 0.663869 0.000000 
0.687380 0.568181 0.000000 
0.695905 0.599262 0.000000 
0.766984 0.558307 0.000000 
0.759475 0.573843 0.000000 
0.558526 0.726400 0.000000 
0.574705 0.728843 0.000000 
0.583942 0.715264 0.000000 
0.576960 0.745545 0.000000 
0.577262 0.700509 0.000000 
0.560850 0.699253 0.000000 
0.582342 0.684040 0.000000 
0.568867 0.673262 0.000000 
0.601051 0.715505 0.000000 
0.612169 0.698372 0.000000 
0.606393 0.736332 0.000000 
0.712877 0.560049 0.000000 
0.715510 0.577521 0.000000 
0.730803 0.583505 0.000000 
0.699728 0.583435 0.000000 
0.742288 0.572555 0.000000 
0.739861 0.556274 0.000000 
0.765753 0.590665 0.000000 
0.732813 0.601958 0.000000 
0.750576 0.607831 0.000000 
0.713696 0.611801 0.000000 
0.907072 0.805493 0.000000 
0.886959 0.802176 0.000000 
0.792427 0.911295 0.000000 
0.789466 0.888134 0.000000 
0.674113 0.873780 0.000000 
0.804192 0.877365 0.000000 
0.857407 0.648055 0.000000 
0.594049 0.771483 0.000000 
0.676829 0.604714 0.000000 
0.885087 0.774466 0.000000 
0.752534 0.858677 0.000000 
0.843261 0.803396 0.000000 
0.778111 0.628218 0.000000 
0.655216 0.826566 0.000000 
0.639501 0.677971 0.000000 
0.853947 0.698794 0.000000 
0.691906 0.847864 0.000000 
0.794345 0.844854 0.000000 
0.830132 0.663685 0.000000 
0.625682 0.769651 0.000000 
0.685655 0.635146 0.000000 
0.855862 0.762886 0.000000 
0.761499 0.888483 0.000000 
0.874946 0.815644 0.000000 
0.783001 0.594602 0.000000 
0.636224 0.854731 0.000000 
0.607816 0.665723 0.000000 
0.883279 0.681658 0.000000 
0.741174 0.845796 0.000000 
0.656553 0.674955 0.000000 
0.834125 0.681041 0.000000 
0.819967 0.693831 0.000000 
0.819988 0.710157 0.000000 
0.805839 0.685650 0.000000 
0.838397 0.714283 0.000000 
0.805796 0.719679 0.000000 
0.790497 0.693180 0.000000 
0.811470 0.667644 0.000000 
0.806693 0.736919 0.000000 
0.790433 0.710882 0.000000 
0.776015 0.683783 0.000000 
0.822496 0.748894 0.000000 
0.792211 0.746394 0.000000 
0.760568 0.691587 0.000000 
0.773545 0.664110 0.000000 
0.723964 0.851700 0.000000 
0.745547 0.829160 0.000000 
0.662668 0.657818 0.000000 
0.776762 0.738570 0.000000 
0.730842 0.819250 0.000000 
0.763472 0.828629 0.000000 
0.776536 0.844885 0.000000 
0.762257 0.748036 0.000000 
0.775882 0.720299 0.000000 
0.711764 0.825172 0.000000 
0.763203 0.765330 0.000000 
0.746807 0.740208 0.000000 
0.778654 0.773158 0.000000 
0.748699 0.774797 0.000000 
0.732302 0.749674 0.000000 
0.745928 0.720844 0.000000 
0.793157 0.763687 0.000000 
0.749740 0.793251 0.000000 
0.733248 0.766969 0.000000 
0.718744 0.776435 0.000000 
0.717302 0.793569 0.000000 
0.732847 0.802557 0.000000 
0.696761 0.804237 0.000000 
0.703293 0.768607 0.000000 
0.684807 0.778058 0.000000 
0.702347 0.751313 0.000000 
0.679717 0.796553 0.000000 
0.659174 0.806184 0.000000 
0.663473 0.769510 0.000000 
0.686896 0.743485 0.000000 
0.716852 0.741846 0.000000 
0.666508 0.752232 0.000000 
0.685950 0.726190 0.000000 
0.715906 0.724551 0.000000 
0.669030 0.711929 0.000000 
0.700455 0.716723 0.000000 
0.699509 0.699429 0.000000 
0.685725 0.687655 0.000000 
0.690073 0.667105 0.000000 
0.714013 0.689962 0.000000 
0.708376 0.669959 0.000000 
0.729531 0.695721 0.000000 
0.745051 0.684736 0.000000 
0.784803 0.649462 0.000000 
0.680778 0.833959 0.000000 
0.693228 0.819146 0.000000 
0.707015 0.629334 0.000000 
0.823447 0.805045 0.000000 
0.817332 0.822182 0.000000 
0.809952 0.792606 0.000000 
0.792362 0.798104 0.000000 
0.788311 0.815360 0.000000 
0.769805 0.816960 0.000000 
0.763871 0.800250 0.000000 
0.778281 0.789624 0.000000 
0.623440 0.745626 0.000000 
0.844782 0.776830 0.000000 
0.825231 0.769337 0.000000 
0.730477 0.713016 0.000000 
0.769971 0.858296 0.000000 
0.775761 0.878640 0.000000 
0.630965 0.695695 0.000000 
0.669751 0.690688 0.000000 
0.760498 0.710401 0.000000 
0.757369 0.625561 0.000000 
0.709258 0.840986 0.000000 
0.680214 0.653002 0.000000 
0.853836 0.789525 0.000000 
0.876969 0.789320 0.000000 
0.849696 0.681878 0.000000 
0.863958 0.663664 0.000000 
0.643036 0.778232 0.000000 
0.666386 0.839961 0.000000 
0.661439 0.862560 0.000000 
0.799786 0.826998 0.000000 
0.840809 0.746469 0.000000 
0.810374 0.774655 0.000000 
0.802870 0.651610 0.000000 
0.643828 0.796410 0.000000 
0.847983 0.729748 0.000000 
0.756082 0.656546 0.000000 
0.743035 0.669368 0.000000 
0.746597 0.639242 0.000000 
0.721878 0.660350 0.000000 
0.600140 0.681662 0.000000 
0.723393 0.640981 0.000000 
0.654108 0.729050 0.000000 
0.636894 0.722121 0.000000 
VECTORS X_EC float 
-0.004941 -0.085141 0.000000 
0.783164 -0.178994 0.000000 
-0.764545 -0.001376 0.000000 
0.662136 0.531502 0.000000 
-0.895585 0.107805 0.000000 
0.132125 -0.975221 0.000000 
0.816836 -0.178994 0.000000 
-0.395059 -0.085141 0.000000 
-0.795274 0.997040 0.000000 
0.929711 0.519313 0.000000 
-0.544469 -0.362254 0.000000 
0.222238 0.804336 0.000000 
-0.689736 0.826417 0.000000 
0.144469 -0.362254 0.000000 
-0.200000 0.384390 0.000000 
0.417896 -0.990218 0.000000 
-0.349410 -0.952605 0.000000 
-0.480055 -0.950947 0.000000 
0.468360 0.129736 0.000000 
-0.026686 -0.978115 0.000000 
0.368687 -0.027007 0.000000 
0.080055 -0.649053 0.000000 
-0.876677 0.274347 0.000000 
0.695182 -0.200545 0.000000 
-0.758037 0.472095 0.000000 
0.783164 0.578994 0.000000 
-0.029375 0.477502 0.000000 
-0.814825 -0.626021 0.000000 
-0.360211 0.482357 0.000000 
0.816836 0.578994 0.000000 
-0.544469 0.762254 0.000000 
0.929711 -0.119313 0.000000 
0.536636 0.321928 0.000000 
-0.480055 -0.649053 0.000000 
-0.373314 -0.621885 0.000000 
0.368687 0.427007 0.000000 
-0.074676 -0.691995 0.000000 
0.144469 0.762254 0.000000 
-0.617959 -0.388373 0.000000 
0.248149 -0.406001 0.000000 
0.395274 -0.597040 0.000000 
-0.200000 0.015610 0.000000 
0.200986 -0.342464 0.000000 
0.550411 -0.289797 0.000000 
0.754929 -0.546798 0.000000 
0.670091 0.016069 0.000000 
0.621572 -0.824887 0.000000 
0.296124 -0.874476 0.000000 
0.788559 0.883969 0.000000 
0.535915 0.648876 0.000000 
-0.904206 -0.516431 0.000000 
-0.995238 0.087523 0.000000 
0.461506 0.240904 0.000000 
0.539335 0.560371 0.000000 
0.135899 0.192362 0.000000 
0.228621 0.710552 0.000000 
-0.701726 -0.796230 0.000000 
-0.774053 -0.187976 0.000000 
-0.912814 0.381966 0.000000 
-0.019833 -0.952043 0.000000 
0.156853 -0.646014 0.000000 
0.485299 -0.646353 0.000000 
-0.007664 -0.361741 0.000000 
0.621232 -0.925111 0.000000 
0.457088 0.789525 0.000000 
0.961273 -0.981627 0.000000 
0.987556 0.674271 0.000000 
0.674083 -0.360921 0.000000 
0.145135 -0.055533 0.000000 
-0.323786 -0.389752 0.000000 
-0.576472 -0.155293 0.000000 
-0.488846 -0.674587 0.000000 
-0.887615 -0.304583 0.000000 
-0.980917 -0.377068 0.000000 
0.498436 -0.054375 0.000000 
-0.089125 0.196232 0.000000 
0.833818 0.179436 0.000000 
-0.788772 0.333623 0.000000 
-0.868064 0.675602 0.000000 
-0.609024 0.435248 0.000000 
-0.682440 0.115112 0.000000 
-0.295270 0.532383 0.000000 
-0.992775 0.048699 0.000000 
0.765542 0.272228 0.000000 
0.834873 -0.249824 0.000000 
0.493549 -0.198877 0.000000 
-0.446173 -0.132454 0.000000 
-0.030740 0.315277 0.000000 
-0.252234 0.846812 0.000000 
0.032574 -0.959009 0.000000 
-0.493199 -0.928884 0.000000 
-0.043737 -0.622447 0.000000 