# vtk DataFile Version 3.0 
vtk output 
ASCII 
DATASET UNSTRUCTURED_GRID 
POINTS 616 float 
0.278478 0.483251 0.000000 
0.174005 0.143691 0.000000 
0.482772 0.321408 0.000000 
0.109430 0.349751 0.000000 
0.388375 0.127845 0.000000 
0.334035 0.476467 0.000000 
0.173814 0.442037 0.000000 
0.278805 0.102760 0.000000 
0.431836 0.422036 0.000000 
0.108863 0.236401 0.000000 
0.464823 0.210345 0.000000 
0.222949 0.471830 0.000000 
0.224340 0.117388 0.000000 
0.464691 0.375948 0.000000 
0.102132 0.292884 0.000000 
0.433442 0.162183 0.000000 
0.135165 0.400329 0.000000 
0.335488 0.107055 0.000000 
0.389262 0.459633 0.000000 
0.133990 0.184200 0.000000 
0.481528 0.264716 0.000000 
0.250279 0.478970 0.000000 
0.196711 0.126685 0.000000 
0.472817 0.348434 0.000000 
0.106492 0.320772 0.000000 
0.411917 0.143911 0.000000 
0.306618 0.484499 0.000000 
0.151479 0.423601 0.000000 
0.307180 0.101054 0.000000 
0.411329 0.441792 0.000000 
0.121000 0.210104 0.000000 
0.476944 0.236653 0.000000 
0.198842 0.456080 0.000000 
0.250594 0.106956 0.000000 
0.451618 0.401719 0.000000 
0.104255 0.264452 0.000000 
0.448343 0.186833 0.000000 
0.120939 0.375631 0.000000 
0.363591 0.113959 0.000000 
0.362526 0.470693 0.000000 
0.153069 0.163090 0.000000 
0.483627 0.293158 0.000000 
0.265613 0.472940 0.000000 
0.268254 0.455472 0.000000 
0.255409 0.445232 0.000000 
0.283548 0.449506 0.000000 
0.241502 0.451884 0.000000 
0.239013 0.468154 0.000000 
0.226952 0.443518 0.000000 
0.215188 0.456137 0.000000 
0.256935 0.428191 0.000000 
0.287124 0.432776 0.000000 
0.294785 0.459946 0.000000 
0.310757 0.456060 0.000000 
0.292356 0.476223 0.000000 
0.318283 0.471608 0.000000 
0.242955 0.418051 0.000000 
0.273356 0.421702 0.000000 
0.301840 0.428667 0.000000 
0.135214 0.383855 0.000000 
0.150524 0.375033 0.000000 
0.150523 0.358612 0.000000 
0.164728 0.383269 0.000000 
0.136594 0.351809 0.000000 
0.122319 0.360007 0.000000 
0.133786 0.334810 0.000000 
0.116585 0.333490 0.000000 
0.164802 0.349181 0.000000 
0.180045 0.375640 0.000000 
0.163308 0.399073 0.000000 
0.175022 0.411715 0.000000 
0.149062 0.407310 0.000000 
0.167546 0.427258 0.000000 
0.164011 0.331930 0.000000 
0.180119 0.357972 0.000000 
0.192622 0.387365 0.000000 
0.191734 0.441214 0.000000 
0.199456 0.422353 0.000000 
0.416017 0.425928 0.000000 
0.404092 0.413118 0.000000 
0.388172 0.416881 0.000000 
0.408961 0.397454 0.000000 
0.384989 0.432512 0.000000 
0.396257 0.444652 0.000000 
0.370155 0.441207 0.000000 
0.372815 0.458367 0.000000 
0.375791 0.405068 0.000000 
0.398172 0.384283 0.000000 
0.424814 0.395435 0.000000 
0.434643 0.381314 0.000000 
0.436034 0.407469 0.000000 
0.451581 0.385258 0.000000 
0.359241 0.409767 0.000000 
0.380983 0.388191 0.000000 
0.406874 0.369457 0.000000 
0.113682 0.305945 0.000000 
0.144434 0.305676 0.000000 
0.169149 0.159446 0.000000 
0.181148 0.172395 0.000000 
0.197162 0.168718 0.000000 
0.176266 0.188084 0.000000 
0.200714 0.153627 0.000000 
0.189558 0.141541 0.000000 
0.216679 0.147114 0.000000 
0.214162 0.130051 0.000000 
0.209522 0.180543 0.000000 
0.187104 0.201302 0.000000 
0.160546 0.190242 0.000000 
0.150828 0.204491 0.000000 
0.149346 0.178198 0.000000 
0.134003 0.200685 0.000000 
0.226176 0.175942 0.000000 
0.204337 0.197427 0.000000 
0.181252 0.217557 0.000000 
0.395487 0.142708 0.000000 
0.385527 0.157296 0.000000 
0.392657 0.172088 0.000000 
0.369156 0.156040 0.000000 
0.408075 0.172118 0.000000 
0.417375 0.158537 0.000000 
0.417560 0.185965 0.000000 
0.433634 0.179693 0.000000 
0.383884 0.186771 0.000000 
0.358666 0.169552 0.000000 
0.363575 0.141193 0.000000 
0.347544 0.134890 0.000000 
0.372834 0.127589 0.000000 
0.347538 0.117644 0.000000 
0.392086 0.201966 0.000000 
0.366264 0.185493 0.000000 
0.341528 0.167445 0.000000 
0.474339 0.279544 0.000000 
0.456726 0.280842 0.000000 
0.449605 0.295636 0.000000 
0.447504 0.267251 0.000000 
0.459177 0.307719 0.000000 
0.475586 0.306539 0.000000 
0.454255 0.323756 0.000000 
0.469201 0.332454 0.000000 
0.432657 0.297925 0.000000 
0.430400 0.267470 0.000000 
0.455634 0.253626 0.000000 
0.450569 0.237150 0.000000 
0.472044 0.252389 0.000000 
0.464054 0.226385 0.000000 
0.425864 0.313788 0.000000 
0.422675 0.283350 0.000000 
0.424153 0.251448 0.000000 
0.448312 0.203318 0.000000 
0.433166 0.216960 0.000000 
0.240399 0.121108 0.000000 
0.248873 0.152185 0.000000 
0.320024 0.111350 0.000000 
0.312498 0.126871 0.000000 
0.111433 0.279284 0.000000 
0.127608 0.281724 0.000000 
0.136839 0.268143 0.000000 
0.129867 0.298427 0.000000 
0.130157 0.253388 0.000000 
0.113749 0.252137 0.000000 
0.135232 0.236915 0.000000 
0.121757 0.226143 0.000000 
0.153943 0.268380 0.000000 
0.165053 0.251240 0.000000 
0.159289 0.289212 0.000000 
0.265918 0.113026 0.000000 
0.268523 0.130489 0.000000 
0.283812 0.136494 0.000000 
0.252724 0.136374 0.000000 
0.295320 0.125573 0.000000 
0.292917 0.109301 0.000000 
0.318750 0.143684 0.000000 
0.285793 0.154935 0.000000 
0.303552 0.160826 0.000000 
0.266651 0.164742 0.000000 
0.459861 0.358626 0.000000 
0.439665 0.355198 0.000000 
0.345200 0.464351 0.000000 
0.342153 0.441119 0.000000 
0.226878 0.426726 0.000000 
0.356801 0.430286 0.000000 
0.410342 0.201122 0.000000 
0.146925 0.324362 0.000000 
0.229779 0.157605 0.000000 
0.437875 0.327525 0.000000 
0.305271 0.411701 0.000000 
0.395837 0.356249 0.000000 
0.331057 0.181221 0.000000 
0.208027 0.379484 0.000000 
0.192372 0.230821 0.000000 
0.406852 0.251852 0.000000 
0.244680 0.400827 0.000000 
0.346907 0.397726 0.000000 
0.383052 0.216725 0.000000 
0.178553 0.322538 0.000000 
0.238555 0.188034 0.000000 
0.408677 0.315906 0.000000 
0.314227 0.441503 0.000000 
0.427545 0.368564 0.000000 
0.335988 0.147630 0.000000 
0.189013 0.407637 0.000000 
0.160694 0.218583 0.000000 
0.436193 0.234752 0.000000 
0.293929 0.398810 0.000000 
0.209422 0.227809 0.000000 
0.387033 0.234082 0.000000 
0.372856 0.246849 0.000000 
0.372861 0.263169 0.000000 
0.358727 0.238654 0.000000 
0.391283 0.267319 0.000000 
0.358647 0.272667 0.000000 
0.343367 0.246160 0.000000 
0.364381 0.220663 0.000000 
0.359526 0.289901 0.000000 
0.343281 0.263853 0.000000 
0.328889 0.236751 0.000000 
0.375335 0.301897 0.000000 
0.345015 0.299349 0.000000 
0.313422 0.244531 0.000000 
0.326448 0.217088 0.000000 
0.276722 0.404699 0.000000 
0.298297 0.382152 0.000000 
0.215537 0.210672 0.000000 
0.329558 0.291504 0.000000 
0.283603 0.372221 0.000000 
0.316179 0.381600 0.000000 
0.329177 0.397822 0.000000 
0.315022 0.300941 0.000000 
0.328703 0.273243 0.000000 
0.264537 0.378135 0.000000 
0.315951 0.318242 0.000000 
0.299575 0.293100 0.000000 
0.331398 0.326086 0.000000 
0.301446 0.327714 0.000000 
0.285076 0.302564 0.000000 
0.298730 0.273752 0.000000 
0.345926 0.316631 0.000000 
0.302486 0.346194 0.000000 
0.286013 0.319874 0.000000 
0.271524 0.329350 0.000000 
0.270080 0.346502 0.000000 
0.285609 0.355508 0.000000 
0.249555 0.357170 0.000000 
0.256095 0.321511 0.000000 
0.237626 0.330966 0.000000 
0.255159 0.304204 0.000000 
0.232530 0.349473 0.000000 
0.212000 0.359098 0.000000 
0.216323 0.322411 0.000000 
0.239736 0.296374 0.000000 
0.269653 0.294735 0.000000 
0.219368 0.305125 0.000000 
0.238798 0.279077 0.000000 
0.268727 0.277447 0.000000 
0.221895 0.264807 0.000000 
0.253296 0.269616 0.000000 
0.252363 0.252322 0.000000 
0.238590 0.240539 0.000000 
0.242948 0.219992 0.000000 
0.266872 0.242868 0.000000 
0.261253 0.222864 0.000000 
0.282378 0.248636 0.000000 
0.297912 0.237670 0.000000 
0.337726 0.202460 0.000000 
0.233568 0.386903 0.000000 
0.246018 0.372090 0.000000 
0.259937 0.182254 0.000000 
0.376053 0.357917 0.000000 
0.369881 0.375024 0.000000 
0.362629 0.345517 0.000000 
0.345045 0.351021 0.000000 
0.340963 0.368271 0.000000 
0.322504 0.369907 0.000000 
0.316596 0.353194 0.000000 
0.330999 0.342552 0.000000 
0.176334 0.298509 0.000000 
0.397510 0.329785 0.000000 
0.377996 0.322302 0.000000 
0.283301 0.265922 0.000000 
0.322642 0.411270 0.000000 
0.328448 0.431626 0.000000 
0.183844 0.248556 0.000000 
0.222618 0.243560 0.000000 
0.313321 0.263330 0.000000 
0.310318 0.178547 0.000000 
0.262031 0.393964 0.000000 
0.233092 0.205876 0.000000 
0.406490 0.342433 0.000000 
0.429685 0.342318 0.000000 
0.402609 0.234934 0.000000 
0.416884 0.216738 0.000000 
0.195896 0.331125 0.000000 
0.219182 0.392896 0.000000 
0.214216 0.415490 0.000000 
0.352374 0.379875 0.000000 
0.393677 0.299504 0.000000 
0.363115 0.327598 0.000000 
0.355795 0.204625 0.000000 
0.196671 0.349308 0.000000 
0.400867 0.282796 0.000000 
0.308992 0.209512 0.000000 
0.295919 0.222310 0.000000 
0.299527 0.192209 0.000000 
0.274768 0.213274 0.000000 
0.153024 0.234530 0.000000 
0.276304 0.193914 0.000000 
0.206984 0.281930 0.000000 
0.189777 0.274993 0.000000 
0.692702 0.897199 0.000000 
0.588661 0.558197 0.000000 
0.897042 0.735342 0.000000 
0.523654 0.763748 0.000000 
0.802661 0.541904 0.000000 
0.748225 0.890413 0.000000 
0.588086 0.856081 0.000000 
0.693019 0.516725 0.000000 
0.846944 0.836874 0.000000 
0.523075 0.650272 0.000000 
0.879069 0.624392 0.000000 
0.637201 0.885821 0.000000 
0.638526 0.531413 0.000000 
0.879005 0.789882 0.000000 
0.516340 0.706823 0.000000 
0.847710 0.576277 0.000000 
0.549434 0.814369 0.000000 
0.749741 0.521048 0.000000 
0.803521 0.873679 0.000000 
0.548364 0.598254 0.000000 
0.895781 0.678709 0.000000 
0.664518 0.892940 0.000000 
0.610960 0.540800 0.000000 
0.887087 0.762350 0.000000 
0.520703 0.734741 0.000000 
0.826194 0.558000 0.000000 
0.720839 0.898447 0.000000 
0.565762 0.837661 0.000000 
0.721408 0.515008 0.000000 
0.826016 0.856265 0.000000 
0.535286 0.624025 0.000000 
0.891193 0.650674 0.000000 
0.613102 0.870093 0.000000 
0.664760 0.520931 0.000000 
0.866017 0.815774 0.000000 
0.518474 0.678364 0.000000 
0.862603 0.600901 0.000000 
0.535176 0.789650 0.000000 
0.777868 0.527984 0.000000 
0.776707 0.884651 0.000000 
0.568137 0.577927 0.000000 
0.897890 0.707124 0.000000 
0.679850 0.886904 0.000000 
0.682502 0.869448 0.000000 
0.669665 0.859220 0.000000 
[...]
POINT_DATA 616 
VECTORS X_GC float 
0.278478 0.483251 0.000000 
0.174005 0.143691 0.000000 
0.482772 0.321408 0.000000 
0.109430 0.349751 0.000000 
0.388375 0.127845 0.000000 
0.334035 0.476467 0.000000 
0.173814 0.442037 0.000000 
0.278805 0.102760 0.000000 
0.431836 0.422036 0.000000 
0.108863 0.236401 0.000000 
0.464823 0.210345 0.000000 
0.222949 0.471830 0.000000 
0.224340 0.117388 0.000000 
0.464691 0.375948 0.000000 
0.102132 0.292884 0.000000 
0.433442 0.162183 0.000000 
0.135165 0.400329 0.000000 
0.335488 0.107055 0.000000 
0.389262 0.459633 0.000000 
0.133990 0.184200 0.000000 
0.481528 0.264716 0.000000 
0.250279 0.478970 0.000000 
0.196711 0.126685 0.000000 
0.472817 0.348434 0.000000 
0.106492 0.320772 0.000000 
0.411917 0.143911 0.000000 
0.306618 0.484499 0.000000 
0.151479 0.423601 0.000000 
0.307180 0.101054 0.000000 
0.411329 0.441792 0.000000 
0.121000 0.210104 0.000000 
0.476944 0.236653 0.000000 
0.198842 0.456080 0.000000 
0.250594 0.106956 0.000000 
0.451618 0.401719 0.000000 
0.104255 0.264452 0.000000 
0.448343 0.186833 0.000000 
0.120939 0.375631 0.000000 
0.363591 0.113959 0.000000 
0.362526 0.470693 0.000000 
0.153069 0.163090 0.000000 
0.483627 0.293158 0.000000 
0.265613 0.472940 0.000000 
0.268254 0.455472 0.000000 
0.255409 0.445232 0.000000 
0.283548 0.449506 0.000000 
0.241502 0.451884 0.000000 
0.239013 0.468154 0.000000 
0.226952 0.443518 0.000000 
0.215188 0.456137 0.000000 
0.256935 0.428191 0.000000 
0.287124 0.432776 0.000000 
0.294785 0.459946 0.000000 
0.310757 0.456060 0.000000 
0.292356 0.476223 0.000000 
0.318283 0.471608 0.000000 
0.242955 0.418051 0.000000 
0.273356 0.421702 0.000000 
0.301840 0.428667 0.000000 
0.135214 0.383855 0.000000 
0.150524 0.375033 0.000000 
0.150523 0.358612 0.000000 
0.164728 0.383269 0.000000 
0.136594 0.351809 0.000000 
0.122319 0.360007 0.000000 
0.133786 0.334810 0.000000 
0.116585 0.333490 0.000000 
0.164802 0.349181 0.000000 
0.180045 0.375640 0.000000 
0.163308 0.399073 0.000000 
0.175022 0.411715 0.000000 
0.149062 0.407310 0.000000 
0.167546 0.427258 0.000000 
0.164011 0.331930 0.000000 
0.180119 0.357972 0.000000 
0.192622 0.387365 0.000000 
0.191734 0.441214 0.000000 
0.199456 0.422353 0.000000 
0.416017 0.425928 0.000000 
0.404092 0.413118 0.000000 
0.388172 0.416881 0.000000 
0.408961 0.397454 0.000000 
0.384989 0.432512 0.000000 
0.396257 0.444652 0.000000 
0.370155 0.441207 0.000000 
0.372815 0.458367 0.000000 
0.375791 0.405068 0.000000 
0.398172 0.384283 0.000000 
0.424814 0.395435 0.000000 
0.434643 0.381314 0.000000 
0.436034 0.407469 0.000000 
0.451581 0.385258 0.000000 
0.359241 0.409767 0.000000 
0.380983 0.388191 0.000000 
0.406874 0.369457 0.000000 
0.113682 0.305945 0.000000 
0.144434 0.305676 0.000000 
0.169149 0.159446 0.000000 
0.181148 0.172395 0.000000 
0.197162 0.168718 0.000000 
0.176266 0.188084 0.000000 
0.200714 0.153627 0.000000 
0.189558 0.141541 0.000000 
0.216679 0.147114 0.000000 
0.214162 0.130051 0.000000 
0.209522 0.180543 0.000000 
0.187104 0.201302 0.000000 
0.160546 0.190242 0.000000 
0.150828 0.204491 0.000000 
0.149346 0.178198 0.000000 
0.134003 0.200685 0.000000 
0.226176 0.175942 0.000000 
0.204337 0.197427 0.000000 
0.181252 0.217557 0.000000 
0.395487 0.142708 0.000000 
0.385527 0.157296 0.000000 
0.392657 0.172088 0.000000 
0.369156 0.156040 0.000000 
0.408075 0.172118 0.000000 
0.417375 0.158537 0.000000 
0.417560 0.185965 0.000000 
0.433634 0.179693 0.000000 
0.383884 0.186771 0.000000 
0.358666 0.169552 0.000000 
0.363575 0.141193 0.000000 
0.347544 0.134890 0.000000 
0.372834 0.127589 0.000000 
0.347538 0.117644 0.000000 
0.392086 0.201966 0.000000 
0.366264 0.185493 0.000000 
0.341528 0.167445 0.000000 
0.474339 0.279544 0.000000 
0.456726 0.280842 0.000000 
0.449605 0.295636 0.000000 
0.447504 0.267251 0.000000 
0.459177 0.307719 0.000000 
0.475586 0.306539 0.000000 
0.454255 0.323756 0.000000 
0.469201 0.332454 0.000000 
0.432657 0.297925 0.000000 
0.430400 0.267470 0.000000 
0.455634 0.253626 0.000000 
0.450569 0.237150 0.000000 
0.472044 0.252389 0.000000 
0.464054 0.226385 0.000000 
0.425864 0.313788 0.000000 
0.422675 0.283350 0.000000 
0.424153 0.251448 0.000000 
0.448312 0.203318 0.000000 
0.433166 0.216960 0.000000 
0.240399 0.121108 0.000000 
0.248873 0.152185 0.000000 
0.320024 0.111350 0.000000 
0.312498 0.126871 0.000000 
0.111433 0.279284 0.000000 
0.127608 0.281724 0.000000 
0.136839 0.268143 0.000000 
0.129867 0.298427 0.000000 
0.130157 0.253388 0.000000 
0.113749 0.252137 0.000000 
0.135232 0.236915 0.000000 
0.121757 0.226143 0.000000 
0.153943 0.268380 0.000000 
0.165053 0.251240 0.000000 
0.159289 0.289212 0.000000 
0.265918 0.113026 0.000000 
0.268523 0.130489 0.000000 
0.283812 0.136494 0.000000 
0.252724 0.136374 0.000000 
0.295320 0.125573 0.000000 
0.292917 0.109301 0.000000 
0.318750 0.143684 0.000000 
0.285793 0.154935 0.000000 
0.303552 0.160826 0.000000 
0.266651 0.164742 0.000000 
0.459861 0.358626 0.000000 
0.439665 0.355198 0.000000 
0.345200 0.464351 0.000000 
0.342153 0.441119 0.000000 
0.226878 0.426726 0.000000 
0.356801 0.430286 0.000000 
0.410342 0.201122 0.000000 
0.146925 0.324362 0.000000 
0.229779 0.157605 0.000000 
0.437875 0.327525 0.000000 
0.305271 0.411701 0.000000 
0.395837 0.356249 0.000000 
0.331057 0.181221 0.000000 
0.208027 0.379484 0.000000 
0.192372 0.230821 0.000000 
0.406852 0.251852 0.000000 
0.244680 0.400827 0.000000 
0.346907 0.397726 0.000000 
0.383052 0.216725 0.000000 
0.178553 0.322538 0.000000 
0.238555 0.188034 0.000000 
0.408677 0.315906 0.000000 
0.314227 0.441503 0.000000 
0.427545 0.368564 0.000000 
0.335988 0.147630 0.000000 
0.189013 0.407637 0.000000 
0.160694 0.218583 0.000000 
0.436193 0.234752 0.000000 
0.293929 0.398810 0.000000 
0.209422 0.227809 0.000000 
0.387033 0.234082 0.000000 
0.372856 0.246849 0.000000 
0.372861 0.263169 0.000000 
0.358727 0.238654 0.000000 
0.391283 0.267319 0.000000 
0.358647 0.272667 0.000000 
0.343367 0.246160 0.000000 
0.364381 0.220663 0.000000 
0.359526 0.289901 0.000000 
0.343281 0.263853 0.000000 
0.328889 0.236751 0.000000 
0.375335 0.301897 0.000000 
0.345015 0.299349 0.000000 
0.313422 0.244531 0.000000 
0.326448 0.217088 0.000000 
0.276722 0.404699 0.000000 
0.298297 0.382152 0.000000 
0.215537 0.210672 0.000000 
0.329558 0.291504 0.000000 
0.283603 0.372221 0.000000 
0.316179 0.381600 0.000000 
0.329177 0.397822 0.000000 
0.315022 0.300941 0.000000 
0.328703 0.273243 0.000000 
0.264537 0.378135 0.000000 
0.315951 0.318242 0.000000 
0.299575 0.293100 0.000000 
0.331398 0.326086 0.000000 
0.301446 0.327714 0.000000 
0.285076 0.302564 0.000000 
0.298730 0.273752 0.000000 
0.345926 0.316631 0.000000 
0.302486 0.346194 0.000000 
0.286013 0.319874 0.000000 
0.271524 0.329350 0.000000 
0.270080 0.346502 0.000000 
0.285609 0.355508 0.000000 
0.249555 0.357170 0.000000 
0.256095 0.321511 0.000000 
0.237626 0.330966 0.000000 
0.255159 0.304204 0.000000 
0.232530 0.349473 0.000000 
0.212000 0.359098 0.000000 
0.216323 0.322411 0.000000 
0.239736 0.296374 0.000000 
0.269653 0.294735 0.000000 
0.219368 0.305125 0.000000 
0.238798 0.279077 0.000000 
0.268727 0.277447 0.000000 
0.221895 0.264807 0.000000 
0.253296 0.269616 0.000000 
0.252363 0.252322 0.000000 
0.238590 0.240539 0.000000 
0.242948 0.219992 0.000000 
0.266872 0.242868 0.000000 
0.261253 0.222864 0.000000 
0.282378 0.248636 0.000000 
0.297912 0.237670 0.000000 
0.337726 0.202460 0.000000 
0.233568 0.386903 0.000000 
0.246018 0.372090 0.000000 
0.259937 0.182254 0.000000 
0.376053 0.357917 0.000000 
0.369881 0.375024 0.000000 
0.362629 0.345517 0.000000 
0.345045 0.351021 0.000000 
0.340963 0.368271 0.000000 
0.322504 0.369907 0.000000 
0.316596 0.353194 0.000000 
0.330999 0.342552 0.000000 
0.176334 0.298509 0.000000 
0.397510 0.329785 0.000000 
0.377996 0.322302 0.000000 
0.283301 0.265922 0.000000 
0.322642 0.411270 0.000000 
0.328448 0.431626 0.000000 
0.183844 0.248556 0.000000 
0.222618 0.243560 0.000000 
0.313321 0.263330 0.000000 
0.310318 0.178547 0.000000 
0.262031 0.393964 0.000000 
0.233092 0.205876 0.000000 
0.406490 0.342433 0.000000 
0.429685 0.342318 0.000000 
0.402609 0.234934 0.000000 
0.416884 0.216738 0.000000 
0.195896 0.331125 0.000000 
0.219182 0.392896 0.000000 
0.214216 0.415490 0.000000 
0.352374 0.379875 0.000000 
0.393677 0.299504 0.000000 
0.363115 0.327598 0.000000 
0.355795 0.204625 0.000000 
0.196671 0.349308 0.000000 
0.400867 0.282796 0.000000 
0.308992 0.209512 0.000000 
0.295919 0.222310 0.000000 
0.299527 0.192209 0.000000 
0.274768 0.213274 0.000000 
0.153024 0.234530 0.000000 
0.276304 0.193914 0.000000 
0.206984 0.281930 0.000000 
0.189777 0.274993 0.000000 
0.692702 0.897199 0.000000 
0.588661 0.558197 0.000000 
0.897042 0.735342 0.000000 
0.523654 0.763748 0.000000 
0.802661 0.541904 0.000000 
0.748225 0.890413 0.000000 
0.588086 0.856081 0.000000 
0.693019 0.516725 0.000000 
0.846944 0.836874 0.000000 
0.523075 0.650272 0.000000 
0.879069 0.624392 0.000000 
0.637201 0.885821 0.000000 
0.638526 0.531413 0.000000 
0.879005 0.789882 0.000000 
0.516340 0.706823 0.000000 
0.847710 0.576277 0.000000 
0.549434 0.814369 0.000000 
0.749741 0.521048 0.000000 
0.803521 0.873679 0.000000 
0.548364 0.598254 0.000000 
0.895781 0.678709 0.000000 
0.664518 0.892940 0.000000 
0.610960 0.540800 0.000000 
0.887087 0.762350 0.000000 
0.520703 0.734741 0.000000 
0.826194 0.558000 0.000000 
0.720839 0.898447 0.000000 
0.565762 0.837661 0.000000 
0.721408 0.515008 0.000000 
0.826016 0.856265 0.000000 
0.535286 0.624025 0.000000 
0.891193 0.650674 0.000000 
0.613102 0.870093 0.000000 
0.664760 0.520931 0.000000 
0.866017 0.815774 0.000000 
0.518474 0.678364 0.000000 
0.862603 0.600901 0.000000 
0.535176 0.789650 0.000000 
0.777868 0.527984 0.000000 
0.776707 0.884651 0.000000 
0.568137 0.577927 0.000000 
0.897890 0.707124 0.000000 
0.679850 0.886904 0.000000 
0.682502 0.869448 0.000000 
0.669665 0.859220 0.000000 
0.697800 0.863479 0.000000 
0.655756 0.865874 0.000000 
0.653261 0.882137 0.000000 
0.641210 0.857519 0.000000 
0.629445 0.870138 0.000000 
0.671202 0.842190 0.000000 
0.701392 0.846764 0.000000 
0.709034 0.873911 0.000000 
0.725020 0.870041 0.000000 
0.706584 0.890172 0.000000 
0.732513 0.885572 0.000000 
0.657224 0.832059 0.000000 
0.687630 0.835702 0.000000 
0.716129 0.842663 0.000000 
0.549459 0.797878 0.000000 
0.564766 0.789053 0.000000 
0.564755 0.772630 0.000000 
0.578978 0.797290 0.000000 
0.550821 0.765820 0.000000 
0.536548 0.774016 0.000000 
0.548004 0.748811 0.000000 
0.530802 0.747478 0.000000 
0.579030 0.763203 0.000000 
0.594293 0.789663 0.000000 
0.577572 0.813099 0.000000 
0.589285 0.825741 0.000000 
0.563333 0.821351 0.000000 
0.581820 0.841301 0.000000 
0.578229 0.745953 0.000000 
0.594356 0.772000 0.000000 
0.606877 0.801384 0.000000 
0.605991 0.855227 0.000000 
0.613715 0.836368 0.000000 
0.830866 0.840516 0.000000 
0.818862 0.827572 0.000000 
0.802851 0.831246 0.000000 
0.823738 0.811889 0.000000 
0.799508 0.846750 0.000000 
0.810670 0.858829 0.000000 
0.784562 0.855346 0.000000 
0.787086 0.872403 0.000000 
0.790485 0.819430 0.000000 
0.812899 0.798676 0.000000 
0.839459 0.809732 0.000000 
0.849176 0.795490 0.000000 
0.850662 0.821773 0.000000 
0.865999 0.799297 0.000000 
0.773830 0.824035 0.000000 
0.795665 0.802550 0.000000 
0.821515 0.783790 0.000000 
0.527886 0.719909 0.000000 
0.558636 0.719677 0.000000 
0.583972 0.574057 0.000000 
0.595912 0.586884 0.000000 
0.611836 0.583128 0.000000 
0.591041 0.602544 0.000000 
0.615229 0.567919 0.000000 
0.603966 0.555785 0.000000 
0.631097 0.561315 0.000000 
0.628442 0.544158 0.000000 
0.624215 0.594943 0.000000 
0.601825 0.615718 0.000000 
0.575180 0.604556 0.000000 
0.565343 0.618671 0.000000 
0.563949 0.592506 0.000000 
0.548401 0.614719 0.000000 
0.640766 0.590249 0.000000 
0.619017 0.611817 0.000000 
0.595875 0.631903 0.000000 
0.809764 0.556773 0.000000 
0.799797 0.571357 0.000000 
0.806919 0.586151 0.000000 
0.783428 0.570091 0.000000 
0.822338 0.586193 0.000000 
0.831645 0.572623 0.000000 
0.831818 0.600034 0.000000 
0.847894 0.593768 0.000000 
0.798141 0.600839 0.000000 
0.772938 0.583606 0.000000 
0.777849 0.555234 0.000000 
0.761813 0.548915 0.000000 
0.787113 0.541630 0.000000 
0.761803 0.531657 0.000000 
0.806337 0.616034 0.000000 
0.780532 0.599559 0.000000 
0.755806 0.581491 0.000000 
0.888593 0.693532 0.000000 
0.870975 0.694848 0.000000 
0.863862 0.709646 0.000000 
0.861751 0.681274 0.000000 
0.873454 0.721716 0.000000 
0.889867 0.720513 0.000000 
0.868556 0.737764 0.000000 
0.883484 0.746409 0.000000 
0.846911 0.711957 0.000000 
0.844644 0.681509 0.000000 
0.869882 0.667650 0.000000 
0.864816 0.651186 0.000000 
0.886294 0.666400 0.000000 
0.878301 0.640421 0.000000 
0.840157 0.727849 0.000000 
0.836915 0.697393 0.000000 
0.838398 0.665497 0.000000 
0.862560 0.617373 0.000000 
0.847414 0.631014 0.000000 
0.654622 0.535137 0.000000 
0.663244 0.566306 0.000000 
0.734266 0.525331 0.000000 
0.726748 0.540861 0.000000 
0.525658 0.693235 0.000000 
0.541828 0.695702 0.000000 
0.551088 0.682146 0.000000 
0.544066 0.712407 0.000000 
0.544427 0.667377 0.000000 
0.527981 0.666059 0.000000 
0.549553 0.650935 0.000000 
0.536034 0.640080 0.000000 
0.568206 0.682425 0.000000 
0.579419 0.665374 0.000000 
0.573491 0.703235 0.000000 
0.680135 0.527015 0.000000 
0.682788 0.544507 0.000000 
0.698078 0.550494 0.000000 
0.667020 0.550436 0.000000 
0.709562 0.539551 0.000000 
0.707141 0.523264 0.000000 
0.733017 0.557696 0.000000 
0.700082 0.568956 0.000000 
0.717835 0.574848 0.000000 
0.681009 0.578828 0.000000 
0.874190 0.772604 0.000000 
0.854082 0.769294 0.000000 
0.759435 0.878337 0.000000 
0.756503 0.855191 0.000000 
0.641141 0.840734 0.000000 
0.771252 0.844448 0.000000 
0.824594 0.615189 0.000000 
0.561137 0.738371 0.000000 
0.644238 0.571816 0.000000 
0.852208 0.741586 0.000000 
0.719587 0.825719 0.000000 
0.810395 0.770528 0.000000 
0.745346 0.595277 0.000000 
0.622286 0.793515 0.000000 
0.606899 0.645110 0.000000 
0.821096 0.665916 0.000000 
0.658958 0.814848 0.000000 
0.761445 0.811951 0.000000 
0.797309 0.630798 0.000000 
0.592766 0.736576 0.000000 
0.653098 0.602293 0.000000 
0.822988 0.730008 0.000000 
0.728520 0.855508 0.000000 
0.842073 0.782767 0.000000 
0.750259 0.561657 0.000000 
0.603272 0.821651 0.000000 
0.575212 0.632804 0.000000 
0.850439 0.648798 0.000000 
0.708236 0.812838 0.000000 
0.623937 0.642086 0.000000 
0.801289 0.648157 0.000000 
0.787131 0.660938 0.000000 
0.787141 0.677264 0.000000 
0.773021 0.652751 0.000000 
0.805537 0.681399 0.000000 
0.772958 0.686787 0.000000 
0.757689 0.660279 0.000000 
0.778659 0.634745 0.000000 
0.773843 0.704030 0.000000 
0.757617 0.677989 0.000000 
0.743225 0.650873 0.000000 
0.789631 0.716007 0.000000 
0.759371 0.713505 0.000000 
0.727790 0.658678 0.000000 
0.740766 0.631186 0.000000 
0.691012 0.818717 0.000000 
0.712629 0.796217 0.000000 
0.630114 0.624984 0.000000 
0.743943 0.705683 0.000000 
0.697928 0.786298 0.000000 
0.730567 0.795705 0.000000 
0.743623 0.811963 0.000000 
0.729440 0.715144 0.000000 
0.743077 0.687411 0.000000 
0.678839 0.792192 0.000000 
0.730366 0.732431 0.000000 
0.714015 0.707320 0.000000 
0.745804 0.740262 0.000000 
0.715856 0.741888 0.000000 
0.699503 0.716780 0.000000 
0.713155 0.687959 0.000000 
0.760307 0.730797 0.000000 
0.716871 0.760332 0.000000 
0.700420 0.734061 0.000000 
0.685896 0.743504 0.000000 
0.684426 0.760621 0.000000 
0.699961 0.769619 0.000000 
0.663861 0.771252 0.000000 
0.670444 0.735658 0.000000 
0.651931 0.745072 0.000000 
0.669521 0.718374 0.000000 
0.646818 0.763550 0.000000 
0.626259 0.773146 0.000000 
0.630588 0.736497 0.000000 
0.654061 0.710525 0.000000 
0.684056 0.708939 0.000000 
0.633640 0.719232 0.000000 
0.653138 0.693239 0.000000 
0.683136 0.691654 0.000000 
0.636248 0.678973 0.000000 
0.667681 0.683802 0.000000 
0.666767 0.666511 0.000000 
0.653020 0.654744 0.000000 
0.657416 0.634210 0.000000 
0.681278 0.657045 0.000000 
0.675672 0.637038 0.000000 
0.696780 0.662811 0.000000 
0.712289 0.651816 0.000000 
0.752021 0.616539 0.000000 
0.647844 0.800938 0.000000 
0.660308 0.786146 0.000000 
0.674372 0.596408 0.000000 
0.790583 0.772175 0.000000 
0.784465 0.789311 0.000000 
0.777087 0.759724 0.000000 
0.759493 0.765211 0.000000 
0.755431 0.782462 0.000000 
0.736915 0.784045 0.000000 
0.730996 0.767337 0.000000 
0.745417 0.756723 0.000000 
0.590530 0.712550 0.000000 
0.811912 0.743956 0.000000 
0.792365 0.736457 0.000000 
0.697721 0.680125 0.000000 
0.737037 0.825357 0.000000 
0.742804 0.845690 0.000000 
0.598265 0.662762 0.000000 
0.637051 0.657775 0.000000 
0.727714 0.677507 0.000000 
0.724617 0.592595 0.000000 
0.676318 0.807994 0.000000 
0.647624 0.620140 0.000000 
0.820965 0.756652 0.000000 
0.844093 0.756441 0.000000 
0.816857 0.649001 0.000000 
0.831133 0.630799 0.000000 
0.610130 0.745182 0.000000 
0.633447 0.806919 0.000000 
0.628478 0.829505 0.000000 
0.766907 0.794110 0.000000 
0.807938 0.713587 0.000000 
0.777513 0.741771 0.000000 
0.770075 0.618702 0.000000 
0.610913 0.763354 0.000000 
0.815109 0.696863 0.000000 
0.723320 0.623606 0.000000 
0.710280 0.636432 0.000000 
0.713842 0.606275 0.000000 
0.689151 0.627405 0.000000 
0.567428 0.648655 0.000000 
0.690673 0.608016 0.000000 
0.621245 0.696038 0.000000 
0.604035 0.689090 0.000000 
VECTORS X_EC float 
-0.665014 0.569558 0.000000 
0.126188 0.480099 0.000000 
0.571839 0.655450 0.000000 
0.004975 -0.811395 0.000000 
0.443096 0.767492 0.000000 
-0.529335 -0.319306 0.000000 
0.159256 0.476272 0.000000 
0.944809 0.576094 0.000000 
0.559282 -0.363271 0.000000 
0.271988 -0.822749 0.000000 
0.793093 0.296467 0.000000 
-0.436602 -0.541015 0.000000 
0.652234 -0.513196 0.000000 
-0.518955 0.293819 0.000000 
-0.857672 -0.957368 0.000000 
-0.243665 -0.331166 0.000000 
0.993410 -0.296695 0.000000 
0.858903 -0.290246 0.000000 
-0.192665 0.785235 0.000000 
-0.684004 -0.320204 0.000000 
-0.294310 0.630554 0.000000 
-0.579394 0.005579 0.000000 
0.466301 0.934222 0.000000 
0.031327 0.456340 0.000000 
0.584559 -0.870153 0.000000 
0.121786 -0.761660 0.000000 
-0.689979 -0.867639 0.000000 
0.527978 0.029578 0.000000 
0.978912 -0.856396 0.000000 
0.164167 -0.773413 0.000000 
0.797923 -0.580007 0.000000 
0.266940 0.538876 0.000000 
-0.121597 0.976841 0.000000 
0.860879 0.011873 0.000000 
0.965626 0.032362 0.000000 
-0.289030 -0.914891 0.000000 
-0.736655 -0.033134 0.000000 
-0.512627 -0.581226 0.000000 
0.720828 0.271820 0.000000 
-0.413853 0.250515 0.000000 
-0.261796 0.061387 0.000000 
-0.863161 0.672534 0.000000 
-0.458806 0.312267 0.000000 
-0.109447 0.365074 0.000000 
0.095359 0.108180 0.000000 
0.009883 0.670963 0.000000 
-0.037681 -0.169960 0.000000 
-0.363075 -0.219747 0.000000 
0.129637 -0.460968 0.000000 
-0.122746 -0.696236 0.000000 
0.436185 0.138706 0.000000 
0.344484 0.742486 0.000000 
-0.198930 0.895697 0.000000 
-0.121208 -0.784861 0.000000 
-0.524465 0.847125 0.000000 
-0.432161 -0.634337 0.000000 
0.638988 -0.140904 0.000000 
0.565956 0.467125 0.000000 
0.426662 -0.963194 0.000000 
-0.677094 -0.295714 0.000000 
-0.500662 0.010474 0.000000 
-0.172245 0.010462 0.000000 
-0.665383 0.294569 0.000000 
-0.036185 -0.268123 0.000000 
-0.200132 -0.553623 0.000000 
0.303804 -0.324279 0.000000 
0.330198 -0.668291 0.000000 
0.016385 0.296040 0.000000 
-0.512796 0.600900 0.000000 
-0.981467 0.266160 0.000000 
0.765709 0.500438 0.000000 
0.853791 -0.018762 0.000000 
0.454849 0.350928 0.000000 
0.361401 0.280226 0.000000 
-0.159438 0.602382 0.000000 
-0.747305 0.852436 0.000000 
0.175720 0.834674 0.000000 
0.552947 0.989119 0.000000 
0.481435 -0.679654 0.000000 
0.737635 -0.918159 0.000000 
0.662371 0.763439 0.000000 
-0.949078 -0.820788 0.000000 
0.349764 0.699773 0.000000 
0.106953 0.925133 0.000000 
0.175858 0.403094 0.000000 
-0.167344 0.456294 0.000000 
0.898642 0.515821 0.000000 
-0.685666 0.963433 0.000000 
-0.908698 -0.503723 0.000000 
-0.626271 -0.307132 0.000000 
0.850626 -0.279312 0.000000 
-0.705165 0.031628 0.000000 
0.804665 0.184824 0.000000 