# vtk DataFile Version 3.0 
vtk output 
ASCII 
DATASET UNSTRUCTURED_GRID 
POINTS 616 float 
0.293210 0.497645 0.000000 
0.188386 0.158197 0.000000 
0.497261 0.335685 0.000000 
0.123945 0.364390 0.000000 
0.402882 0.142134 0.000000 
0.348726 0.490699 0.000000 
0.188445 0.456704 0.000000 
0.293141 0.117079 0.000000 
0.444378 0.434276 0.000000 
0.123310 0.250934 0.000000 
0.479460 0.224580 0.000000 
0.237640 0.486402 0.000000 
0.238691 0.131828 0.000000 
0.478929 0.390003 0.000000 
0.116570 0.307465 0.000000 
0.448042 0.176440 0.000000 
0.149753 0.414997 0.000000 
0.349895 0.121353 0.000000 
0.403651 0.473495 0.000000 
0.148433 0.198704 0.000000 
0.496105 0.278990 0.000000 
0.264991 0.493456 0.000000 
0.211072 0.141184 0.000000 
0.487194 0.362614 0.000000 
0.120965 0.335382 0.000000 
0.426470 0.158182 0.000000 
0.321370 0.498821 0.000000 
0.166090 0.438278 0.000000 
0.321538 0.115347 0.000000 
0.424294 0.454340 0.000000 
0.135452 0.224616 0.000000 
0.491557 0.250905 0.000000 
0.213500 0.470715 0.000000 
0.264933 0.121338 0.000000 
0.464987 0.414885 0.000000 
0.118697 0.279008 0.000000 
0.462991 0.201075 0.000000 
0.135485 0.390284 0.000000 
0.378047 0.128257 0.000000 
0.377139 0.484803 0.000000 
0.167476 0.177593 0.000000 
0.498164 0.307449 0.000000 
0.280304 0.487368 0.000000 
0.282876 0.469874 0.000000 
0.270001 0.459666 0.000000 
0.298137 0.463850 0.000000 
0.256126 0.466371 0.000000 
0.253690 0.482667 0.000000 
0.241560 0.458044 0.000000 
0.229838 0.470717 0.000000 
0.271464 0.442601 0.000000 
0.301638 0.447093 0.000000 
0.309413 0.474260 0.000000 
0.325331 0.470296 0.000000 
0.307061 0.490565 0.000000 
0.332948 0.485864 0.000000 
0.257467 0.432496 0.000000 
0.287840 0.436052 0.000000 
0.316285 0.442894 0.000000 
0.149761 0.398498 0.000000 
0.165046 0.389648 0.000000 
0.165021 0.373213 0.000000 
0.179251 0.397874 0.000000 
0.151092 0.366419 0.000000 
0.136840 0.374641 0.000000 
0.148262 0.349406 0.000000 
0.131071 0.348103 0.000000 
0.179276 0.363757 0.000000 
0.194545 0.390219 0.000000 
0.177871 0.413700 0.000000 
0.189598 0.426341 0.000000 
0.163649 0.421968 0.000000 
0.182155 0.441915 0.000000 
0.178462 0.346492 0.000000 
0.194595 0.372537 0.000000 
0.207129 0.401932 0.000000 
0.206359 0.455848 0.000000 
0.214039 0.436945 0.000000 
0.429016 0.438557 0.000000 
0.417620 0.426250 0.000000 
0.402036 0.430322 0.000000 
0.422559 0.410702 0.000000 
0.399081 0.446150 0.000000 
0.410184 0.458099 0.000000 
0.384416 0.455030 0.000000 
0.387271 0.472331 0.000000 
0.389591 0.418512 0.000000 
0.411806 0.397547 0.000000 
0.438507 0.408833 0.000000 
0.448609 0.395014 0.000000 
0.449174 0.420342 0.000000 
0.465673 0.399140 0.000000 
0.373207 0.423413 0.000000 
0.394620 0.401497 0.000000 
0.420696 0.382924 0.000000 
0.128127 0.320532 0.000000 
0.158859 0.320234 0.000000 
0.183552 0.173950 0.000000 
0.195571 0.186897 0.000000 
0.211580 0.183214 0.000000 
0.190709 0.202584 0.000000 
0.215112 0.168115 0.000000 
0.203939 0.156043 0.000000 
0.231069 0.161571 0.000000 
0.228528 0.144513 0.000000 
0.223956 0.195014 0.000000 
0.201551 0.215805 0.000000 
0.174990 0.204744 0.000000 
0.165278 0.218998 0.000000 
0.163778 0.192701 0.000000 
0.148458 0.215191 0.000000 
0.240604 0.190380 0.000000 
0.218787 0.211910 0.000000 
0.195691 0.232064 0.000000 
0.410019 0.156978 0.000000 
0.400055 0.171557 0.000000 
0.407211 0.186333 0.000000 
0.383661 0.170308 0.000000 
0.422652 0.186369 0.000000 
0.431950 0.172797 0.000000 
0.432165 0.200206 0.000000 
0.448254 0.193939 0.000000 
0.398436 0.201007 0.000000 
0.373169 0.183816 0.000000 
0.378057 0.155473 0.000000 
0.361997 0.149176 0.000000 
0.387316 0.141878 0.000000 
0.361974 0.131939 0.000000 
0.406637 0.216179 0.000000 
0.380792 0.199742 0.000000 
0.356006 0.181718 0.000000 
0.488883 0.293804 0.000000 
0.471241 0.295044 0.000000 
0.464075 0.309791 0.000000 
0.462027 0.281433 0.000000 
0.473624 0.321882 0.000000 
0.490083 0.320787 0.000000 
0.468623 0.337848 0.000000 
0.483604 0.346629 0.000000 
0.447084 0.312003 0.000000 
0.444897 0.281605 0.000000 
0.470190 0.267837 0.000000 
0.465144 0.251360 0.000000 
0.486626 0.266636 0.000000 
0.478665 0.240618 0.000000 
0.440179 0.327752 0.000000 
0.437135 0.297437 0.000000 
0.438668 0.265593 0.000000 
0.462938 0.217549 0.000000 
0.447750 0.231169 0.000000 
0.254755 0.135513 0.000000 
0.263269 0.166575 0.000000 
0.334413 0.125644 0.000000 
0.326892 0.141162 0.000000 
0.125867 0.293848 0.000000 
0.142035 0.296279 0.000000 
0.151267 0.282684 0.000000 
0.144290 0.312991 0.000000 
0.144593 0.267925 0.000000 
0.128191 0.266680 0.000000 
0.149672 0.251440 0.000000 
0.136205 0.240665 0.000000 
0.168364 0.282911 0.000000 
0.179478 0.265759 0.000000 
0.173698 0.303747 0.000000 
0.280266 0.127375 0.000000 
0.282893 0.144835 0.000000 
0.298190 0.150809 0.000000 
0.267101 0.150754 0.000000 
0.309689 0.139867 0.000000 
0.307266 0.123598 0.000000 
0.333172 0.157973 0.000000 
0.300193 0.169250 0.000000 
0.317971 0.175118 0.000000 
0.281063 0.179098 0.000000 
0.474123 0.372670 0.000000 
0.453810 0.369065 0.000000 
0.359771 0.478477 0.000000 
0.356517 0.455117 0.000000 
0.241438 0.441234 0.000000 
0.370998 0.444110 0.000000 
0.424922 0.215348 0.000000 
0.161376 0.338936 0.000000 
0.244183 0.172034 0.000000 
0.452155 0.341496 0.000000 
0.319600 0.425866 0.000000 
0.409696 0.369720 0.000000 
0.345535 0.195495 0.000000 
0.222498 0.393999 0.000000 
0.206801 0.245320 0.000000 
0.421341 0.265959 0.000000 
0.259133 0.415248 0.000000 
0.360841 0.411414 0.000000 
0.397566 0.230901 0.000000 
0.192981 0.337078 0.000000 
0.252996 0.202447 0.000000 
0.422919 0.329761 0.000000 
0.328697 0.455677 0.000000 
0.441529 0.382250 0.000000 
0.350438 0.161913 0.000000 
0.203573 0.422236 0.000000 
0.175136 0.233093 0.000000 
0.450752 0.248942 0.000000 
0.308263 0.413053 0.000000 
0.223845 0.242274 0.000000 
0.401524 0.248207 0.000000 
0.387308 0.260959 0.000000 
0.387287 0.277238 0.000000 
0.373175 0.252801 0.000000 
0.405725 0.281357 0.000000 
0.373040 0.286733 0.000000 
0.357784 0.260309 0.000000 
0.378864 0.234846 0.000000 
0.373888 0.303922 0.000000 
0.357669 0.277963 0.000000 
0.343302 0.250937 0.000000 
0.389640 0.315821 0.000000 
0.359322 0.313364 0.000000 
0.327803 0.258720 0.000000 
0.340889 0.231316 0.000000 
0.291131 0.419021 0.000000 
0.312569 0.396337 0.000000 
0.229973 0.225127 0.000000 
0.343880 0.305576 0.000000 
0.297935 0.386481 0.000000 
0.330326 0.395605 0.000000 
0.343246 0.411700 0.000000 
0.329310 0.315028 0.000000 
0.343058 0.287356 0.000000 
0.278906 0.392464 0.000000 
0.330209 0.332310 0.000000 
0.313864 0.307229 0.000000 
0.345612 0.340070 0.000000 
0.315719 0.341847 0.000000 
0.299365 0.316740 0.000000 
0.313048 0.287912 0.000000 
0.360155 0.330579 0.000000 
0.316746 0.360328 0.000000 
0.300310 0.334067 0.000000 
0.285847 0.343604 0.000000 
0.284417 0.360779 0.000000 
0.299928 0.369743 0.000000 
0.263931 0.371528 0.000000 
0.270430 0.335811 0.000000 
0.251994 0.345340 0.000000 
0.269481 0.318490 0.000000 
0.246925 0.363881 0.000000 
0.226437 0.373583 0.000000 
0.230708 0.336851 0.000000 
0.254070 0.310710 0.000000 
0.283958 0.308963 0.000000 
0.233729 0.319540 0.000000 
0.253150 0.293425 0.000000 
0.283054 0.291694 0.000000 
0.236277 0.279220 0.000000 
0.267646 0.283923 0.000000 
0.266736 0.266650 0.000000 
0.252986 0.254917 0.000000 
0.257365 0.234376 0.000000 
0.281247 0.257164 0.000000 
0.275659 0.237200 0.000000 
0.296736 0.262879 0.000000 
0.312286 0.251892 0.000000 
0.352205 0.216708 0.000000 
0.248002 0.401342 0.000000 
0.260414 0.386474 0.000000 
0.274371 0.196625 0.000000 
0.389949 0.371473 0.000000 
0.383692 0.388526 0.000000 
0.376665 0.359244 0.000000 
0.359123 0.364846 0.000000 
0.354987 0.382070 0.000000 
0.336632 0.383867 0.000000 
0.330790 0.367224 0.000000 
0.345163 0.356500 0.000000 
0.190730 0.313033 0.000000 
0.411598 0.343469 0.000000 
0.392149 0.336081 0.000000 
0.297632 0.280137 0.000000 
0.336858 0.425271 0.000000 
0.342788 0.445666 0.000000 
0.198264 0.263066 0.000000 
0.237020 0.257982 0.000000 
0.327673 0.277485 0.000000 
0.324766 0.192835 0.000000 
0.276426 0.408319 0.000000 
0.247527 0.220294 0.000000 
0.420519 0.356087 0.000000 
0.443841 0.356159 0.000000 
0.417121 0.249074 0.000000 
0.431447 0.230934 0.000000 
0.210320 0.345644 0.000000 
0.233655 0.407388 0.000000 
0.228762 0.430026 0.000000 
0.366273 0.393522 0.000000 
0.408011 0.313416 0.000000 
0.377259 0.341418 0.000000 
0.370293 0.218855 0.000000 
0.211119 0.363838 0.000000 
0.415295 0.296810 0.000000 
0.323423 0.223770 0.000000 
0.310317 0.236562 0.000000 
0.313968 0.206499 0.000000 
0.289182 0.227589 0.000000 
0.167460 0.249048 0.000000 
0.290743 0.208249 0.000000 
0.221364 0.296387 0.000000 
0.204179 0.289499 0.000000 
0.678294 0.882905 0.000000 
0.575707 0.545625 0.000000 
0.882566 0.720752 0.000000 
0.509062 0.749487 0.000000 
0.787968 0.527234 0.000000 
0.733833 0.876089 0.000000 
0.573547 0.841779 0.000000 
0.678220 0.502388 0.000000 
0.832548 0.822435 0.000000 
0.508694 0.636101 0.000000 
0.864480 0.609705 0.000000 
0.622731 0.871499 0.000000 
0.623909 0.517286 0.000000 
0.864569 0.775381 0.000000 
0.501819 0.692554 0.000000 
0.833075 0.561577 0.000000 
0.534809 0.800094 0.000000 
0.734979 0.506537 0.000000 
0.789127 0.859289 0.000000 
0.535003 0.585104 0.000000 
0.881255 0.664055 0.000000 
0.650079 0.878629 0.000000 
0.596555 0.526903 0.000000 
0.872634 0.747808 0.000000 
0.506148 0.720479 0.000000 
0.811536 0.543305 0.000000 
0.706447 0.884151 0.000000 
0.551176 0.823368 0.000000 
0.706605 0.500591 0.000000 
0.811623 0.841851 0.000000 
0.521057 0.610010 0.000000 
0.876631 0.635998 0.000000 
0.598600 0.855777 0.000000 
0.650009 0.506664 0.000000 
0.851602 0.801306 0.000000 
0.504012 0.664130 0.000000 
0.847988 0.586210 0.000000 
0.520564 0.775393 0.000000 
0.763139 0.513383 0.000000 
0.762314 0.870296 0.000000 
0.555621 0.565692 0.000000 
0.883397 0.692497 0.000000 
0.665427 0.872605 0.000000 
0.668080 0.855156 0.000000 
0.655227 0.844929 0.000000 
[...]
POINT_DATA 616 
VECTORS X_GC float 
0.293210 0.497645 0.000000 
0.188386 0.158197 0.000000 
0.497261 0.335685 0.000000 
0.123945 0.364390 0.000000 
0.402882 0.142134 0.000000 
0.348726 0.490699 0.000000 
0.188445 0.456704 0.000000 
0.293141 0.117079 0.000000 
0.444378 0.434276 0.000000 
0.123310 0.250934 0.000000 
0.479460 0.224580 0.000000 
0.237640 0.486402 0.000000 
0.238691 0.131828 0.000000 
0.478929 0.390003 0.000000 
0.116570 0.307465 0.000000 
0.448042 0.176440 0.000000 
0.149753 0.414997 0.000000 
0.349895 0.121353 0.000000 
0.403651 0.473495 0.000000 
0.148433 0.198704 0.000000 
0.496105 0.278990 0.000000 
0.264991 0.493456 0.000000 
0.211072 0.141184 0.000000 
0.487194 0.362614 0.000000 
0.120965 0.335382 0.000000 
0.426470 0.158182 0.000000 
0.321370 0.498821 0.000000 
0.166090 0.438278 0.000000 
0.321538 0.115347 0.000000 
0.424294 0.454340 0.000000 
0.135452 0.224616 0.000000 
0.491557 0.250905 0.000000 
0.213500 0.470715 0.000000 
0.264933 0.121338 0.000000 
0.464987 0.414885 0.000000 
0.118697 0.279008 0.000000 
0.462991 0.201075 0.000000 
0.135485 0.390284 0.000000 
0.378047 0.128257 0.000000 
0.377139 0.484803 0.000000 
0.167476 0.177593 0.000000 
0.498164 0.307449 0.000000 
0.280304 0.487368 0.000000 
0.282876 0.469874 0.000000 
0.270001 0.459666 0.000000 
0.298137 0.463850 0.000000 
0.256126 0.466371 0.000000 
0.253690 0.482667 0.000000 
0.241560 0.458044 0.000000 
0.229838 0.470717 0.000000 
0.271464 0.442601 0.000000 
0.301638 0.447093 0.000000 
0.309413 0.474260 0.000000 
0.325331 0.470296 0.000000 
0.307061 0.490565 0.000000 
0.332948 0.485864 0.000000 
0.257467 0.432496 0.000000 
0.287840 0.436052 0.000000 
0.316285 0.442894 0.000000 
0.149761 0.398498 0.000000 
0.165046 0.389648 0.000000 
0.165021 0.373213 0.000000 
0.179251 0.397874 0.000000 
0.151092 0.366419 0.000000 
0.136840 0.374641 0.000000 
0.148262 0.349406 0.000000 
0.131071 0.348103 0.000000 
0.179276 0.363757 0.000000 
0.194545 0.390219 0.000000 
0.177871 0.413700 0.000000 
0.189598 0.426341 0.000000 
0.163649 0.421968 0.000000 
0.182155 0.441915 0.000000 
0.178462 0.346492 0.000000 
0.194595 0.372537 0.000000 
0.207129 0.401932 0.000000 
0.206359 0.455848 0.000000 
0.214039 0.436945 0.000000 
0.429016 0.438557 0.000000 
0.417620 0.426250 0.000000 
0.402036 0.430322 0.000000 
0.422559 0.410702 0.000000 
0.399081 0.446150 0.000000 
0.410184 0.458099 0.000000 
0.384416 0.455030 0.000000 
0.387271 0.472331 0.000000 
0.389591 0.418512 0.000000 
0.411806 0.397547 0.000000 
0.438507 0.408833 0.000000 
0.448609 0.395014 0.000000 
0.449174 0.420342 0.000000 
0.465673 0.399140 0.000000 
0.373207 0.423413 0.000000 
0.394620 0.401497 0.000000 
0.420696 0.382924 0.000000 
0.128127 0.320532 0.000000 
0.158859 0.320234 0.000000 
0.183552 0.173950 0.000000 
0.195571 0.186897 0.000000 
0.211580 0.183214 0.000000 
0.190709 0.202584 0.000000 
0.215112 0.168115 0.000000 
0.203939 0.156043 0.000000 
0.231069 0.161571 0.000000 
0.228528 0.144513 0.000000 
0.223956 0.195014 0.000000 
0.201551 0.215805 0.000000 
0.174990 0.204744 0.000000 
0.165278 0.218998 0.000000 
0.163778 0.192701 0.000000 
0.148458 0.215191 0.000000 
0.240604 0.190380 0.000000 
0.218787 0.211910 0.000000 
0.195691 0.232064 0.000000 
0.410019 0.156978 0.000000 
0.400055 0.171557 0.000000 
0.407211 0.186333 0.000000 
0.383661 0.170308 0.000000 
0.422652 0.186369 0.000000 
0.431950 0.172797 0.000000 
0.432165 0.200206 0.000000 
0.448254 0.193939 0.000000 
0.398436 0.201007 0.000000 
0.373169 0.183816 0.000000 
0.378057 0.155473 0.000000 
0.361997 0.149176 0.000000 
0.387316 0.141878 0.000000 
0.361974 0.131939 0.000000 
0.406637 0.216179 0.000000 
0.380792 0.199742 0.000000 
0.356006 0.181718 0.000000 
0.488883 0.293804 0.000000 
0.471241 0.295044 0.000000 
0.464075 0.309791 0.000000 
0.462027 0.281433 0.000000 
0.473624 0.321882 0.000000 
0.490083 0.320787 0.000000 
0.468623 0.337848 0.000000 
0.483604 0.346629 0.000000 
0.447084 0.312003 0.000000 
0.444897 0.281605 0.000000 
0.470190 0.267837 0.000000 
0.465144 0.251360 0.000000 
0.486626 0.266636 0.000000 
0.478665 0.240618 0.000000 
0.440179 0.327752 0.000000 
0.437135 0.297437 0.000000 
0.438668 0.265593 0.000000 
0.462938 0.217549 0.000000 
0.447750 0.231169 0.000000 
0.254755 0.135513 0.000000 
0.263269 0.166575 0.000000 
0.334413 0.125644 0.000000 
0.326892 0.141162 0.000000 
0.125867 0.293848 0.000000 
0.142035 0.296279 0.000000 
0.151267 0.282684 0.000000 
0.144290 0.312991 0.000000 
0.144593 0.267925 0.000000 
0.128191 0.266680 0.000000 
0.149672 0.251440 0.000000 
0.136205 0.240665 0.000000 
0.168364 0.282911 0.000000 
0.179478 0.265759 0.000000 
0.173698 0.303747 0.000000 
0.280266 0.127375 0.000000 
0.282893 0.144835 0.000000 
0.298190 0.150809 0.000000 
0.267101 0.150754 0.000000 
0.309689 0.139867 0.000000 
0.307266 0.123598 0.000000 
0.333172 0.157973 0.000000 
0.300193 0.169250 0.000000 
0.317971 0.175118 0.000000 
0.281063 0.179098 0.000000 
0.474123 0.372670 0.000000 
0.453810 0.369065 0.000000 
0.359771 0.478477 0.000000 
0.356517 0.455117 0.000000 
0.241438 0.441234 0.000000 
0.370998 0.444110 0.000000 
0.424922 0.215348 0.000000 
0.161376 0.338936 0.000000 
0.244183 0.172034 0.000000 
0.452155 0.341496 0.000000 
0.319600 0.425866 0.000000 
0.409696 0.369720 0.000000 
0.345535 0.195495 0.000000 
0.222498 0.393999 0.000000 
0.206801 0.245320 0.000000 
0.421341 0.265959 0.000000 
0.259133 0.415248 0.000000 
0.360841 0.411414 0.000000 
0.397566 0.230901 0.000000 
0.192981 0.337078 0.000000 
0.252996 0.202447 0.000000 
0.422919 0.329761 0.000000 
0.328697 0.455677 0.000000 
0.441529 0.382250 0.000000 
0.350438 0.161913 0.000000 
0.203573 0.422236 0.000000 
0.175136 0.233093 0.000000 
0.450752 0.248942 0.000000 
0.308263 0.413053 0.000000 
0.223845 0.242274 0.000000 
0.401524 0.248207 0.000000 
0.387308 0.260959 0.000000 
0.387287 0.277238 0.000000 
0.373175 0.252801 0.000000 
0.405725 0.281357 0.000000 
0.373040 0.286733 0.000000 
0.357784 0.260309 0.000000 
0.378864 0.234846 0.000000 
0.373888 0.303922 0.000000 
0.357669 0.277963 0.000000 
0.343302 0.250937 0.000000 
0.389640 0.315821 0.000000 
0.359322 0.313364 0.000000 
0.327803 0.258720 0.000000 
0.340889 0.231316 0.000000 
0.291131 0.419021 0.000000 
0.312569 0.396337 0.000000 
0.229973 0.225127 0.000000 
0.343880 0.305576 0.000000 
0.297935 0.386481 0.000000 
0.330326 0.395605 0.000000 
0.343246 0.411700 0.000000 
0.329310 0.315028 0.000000 
0.343058 0.287356 0.000000 
0.278906 0.392464 0.000000 
0.330209 0.332310 0.000000 
0.313864 0.307229 0.000000 
0.345612 0.340070 0.000000 
0.315719 0.341847 0.000000 
0.299365 0.316740 0.000000 
0.313048 0.287912 0.000000 
0.360155 0.330579 0.000000 
0.316746 0.360328 0.000000 
0.300310 0.334067 0.000000 
0.285847 0.343604 0.000000 
0.284417 0.360779 0.000000 
0.299928 0.369743 0.000000 
0.263931 0.371528 0.000000 
0.270430 0.335811 0.000000 
0.251994 0.345340 0.000000 
0.269481 0.318490 0.000000 
0.246925 0.363881 0.000000 
0.226437 0.373583 0.000000 
0.230708 0.336851 0.000000 
0.254070 0.310710 0.000000 
0.283958 0.308963 0.000000 
0.233729 0.319540 0.000000 
0.253150 0.293425 0.000000 
0.283054 0.291694 0.000000 
0.236277 0.279220 0.000000 
0.267646 0.283923 0.000000 
0.266736 0.266650 0.000000 
0.252986 0.254917 0.000000 
0.257365 0.234376 0.000000 
0.281247 0.257164 0.000000 
0.275659 0.237200 0.000000 
0.296736 0.262879 0.000000 
0.312286 0.251892 0.000000 
0.352205 0.216708 0.000000 
0.248002 0.401342 0.000000 
0.260414 0.386474 0.000000 
0.274371 0.196625 0.000000 
0.389949 0.371473 0.000000 
0.383692 0.388526 0.000000 
0.376665 0.359244 0.000000 
0.359123 0.364846 0.000000 
0.354987 0.382070 0.000000 
0.336632 0.383867 0.000000 
0.330790 0.367224 0.000000 
0.345163 0.356500 0.000000 
0.190730 0.313033 0.000000 
0.411598 0.343469 0.000000 
0.392149 0.336081 0.000000 
0.297632 0.280137 0.000000 
0.336858 0.425271 0.000000 
0.342788 0.445666 0.000000 
0.198264 0.263066 0.000000 
0.237020 0.257982 0.000000 
0.327673 0.277485 0.000000 
0.324766 0.192835 0.000000 
0.276426 0.408319 0.000000 
0.247527 0.220294 0.000000 
0.420519 0.356087 0.000000 
0.443841 0.356159 0.000000 
0.417121 0.249074 0.000000 
0.431447 0.230934 0.000000 
0.210320 0.345644 0.000000 
0.233655 0.407388 0.000000 
0.228762 0.430026 0.000000 
0.366273 0.393522 0.000000 
0.408011 0.313416 0.000000 
0.377259 0.341418 0.000000 
0.370293 0.218855 0.000000 
0.211119 0.363838 0.000000 
0.415295 0.296810 0.000000 
0.323423 0.223770 0.000000 
0.310317 0.236562 0.000000 
0.313968 0.206499 0.000000 
0.289182 0.227589 0.000000 
0.167460 0.249048 0.000000 
0.290743 0.208249 0.000000 
0.221364 0.296387 0.000000 
0.204179 0.289499 0.000000 
0.678294 0.882905 0.000000 
0.575707 0.545625 0.000000 
0.882566 0.720752 0.000000 
0.509062 0.749487 0.000000 
0.787968 0.527234 0.000000 
0.733833 0.876089 0.000000 
0.573547 0.841779 0.000000 
0.678220 0.502388 0.000000 
0.832548 0.822435 0.000000 
0.508694 0.636101 0.000000 
0.864480 0.609705 0.000000 
0.622731 0.871499 0.000000 
0.623909 0.517286 0.000000 
0.864569 0.775381 0.000000 
0.501819 0.692554 0.000000 
0.833075 0.561577 0.000000 
0.534809 0.800094 0.000000 
0.734979 0.506537 0.000000 
0.789127 0.859289 0.000000 
0.535003 0.585104 0.000000 
0.881255 0.664055 0.000000 
0.650079 0.878629 0.000000 
0.596555 0.526903 0.000000 
0.872634 0.747808 0.000000 
0.506148 0.720479 0.000000 
0.811536 0.543305 0.000000 
0.706447 0.884151 0.000000 
0.551176 0.823368 0.000000 
0.706605 0.500591 0.000000 
0.811623 0.841851 0.000000 
0.521057 0.610010 0.000000 
0.876631 0.635998 0.000000 
0.598600 0.855777 0.000000 
0.650009 0.506664 0.000000 
0.851602 0.801306 0.000000 
0.504012 0.664130 0.000000 
0.847988 0.586210 0.000000 
0.520564 0.775393 0.000000 
0.763139 0.513383 0.000000 
0.762314 0.870296 0.000000 
0.555621 0.565692 0.000000 
0.883397 0.692497 0.000000 
0.665427 0.872605 0.000000 
0.668080 0.855156 0.000000 
0.655227 0.844929 0.000000 
0.683395 0.849194 0.000000 
0.641303 0.851576 0.000000 
0.638807 0.867826 0.000000 
0.626737 0.843223 0.000000 
0.614962 0.855828 0.000000 
0.656763 0.827907 0.000000 
0.686991 0.832480 0.000000 
0.694636 0.859622 0.000000 
0.710624 0.855737 0.000000 
0.692189 0.875885 0.000000 
0.718119 0.871263 0.000000 
0.642766 0.817783 0.000000 
0.673212 0.821421 0.000000 
0.701730 0.828366 0.000000 
0.534855 0.783624 0.000000 
0.550198 0.774822 0.000000 
0.550214 0.758424 0.000000 
0.564416 0.783054 0.000000 
0.536269 0.751602 0.000000 
0.521962 0.759770 0.000000 
0.533474 0.734606 0.000000 
0.516245 0.733236 0.000000 
0.564527 0.749036 0.000000 
0.579767 0.775455 0.000000 
0.562992 0.798839 0.000000 
0.574731 0.811473 0.000000 
0.548734 0.807075 0.000000 
0.567262 0.827012 0.000000 
0.563754 0.731819 0.000000 
0.579861 0.757837 0.000000 
0.592350 0.787156 0.000000 
0.591477 0.840935 0.000000 
0.599204 0.822094 0.000000 
0.816468 0.826086 0.000000 
0.804457 0.813136 0.000000 
0.788444 0.816820 0.000000 
0.809327 0.797439 0.000000 
0.785105 0.832341 0.000000 
0.796271 0.844424 0.000000 
0.770161 0.840963 0.000000 
0.772690 0.858029 0.000000 
0.776075 0.805014 0.000000 
0.798480 0.784219 0.000000 
0.825044 0.795273 0.000000 
0.834749 0.781013 0.000000 
0.836255 0.807318 0.000000 
0.851570 0.784815 0.000000 
0.759423 0.809648 0.000000 
0.781244 0.788114 0.000000 
0.807095 0.769321 0.000000 
0.513365 0.705672 0.000000 
0.544170 0.705534 0.000000 
0.570978 0.561412 0.000000 
0.582365 0.573724 0.000000 
0.597947 0.569654 0.000000 
0.577419 0.589276 0.000000 
0.601119 0.554250 0.000000 
0.590009 0.542285 0.000000 
0.616838 0.547475 0.000000 
0.613992 0.530180 0.000000 
0.610390 0.581467 0.000000 
0.588168 0.602430 0.000000 
0.561474 0.591152 0.000000 
0.551372 0.604983 0.000000 
0.550816 0.579638 0.000000 
0.534310 0.600867 0.000000 
0.626780 0.576573 0.000000 
0.605356 0.598478 0.000000 
0.582053 0.618441 0.000000 
0.795104 0.542101 0.000000 
0.785173 0.556728 0.000000 
0.792319 0.571520 0.000000 
0.768820 0.555517 0.000000 
0.807729 0.571535 0.000000 
0.817009 0.557938 0.000000 
0.817225 0.585380 0.000000 
0.833281 0.579087 0.000000 
0.783589 0.586249 0.000000 
0.758386 0.569082 0.000000 
0.763203 0.540662 0.000000 
0.747156 0.534392 0.000000 
0.772423 0.527012 0.000000 
0.747084 0.517115 0.000000 
0.791800 0.601443 0.000000 
0.766015 0.585027 0.000000 
0.741275 0.567023 0.000000 
0.874095 0.678904 0.000000 
0.856498 0.680249 0.000000 
0.849404 0.695071 0.000000 
0.847263 0.666674 0.000000 
0.858992 0.707140 0.000000 
0.875389 0.705911 0.000000 
0.854104 0.723212 0.000000 
0.869025 0.731850 0.000000 
0.832472 0.697410 0.000000 
0.830173 0.666936 0.000000 
0.855365 0.653023 0.000000 
0.850279 0.636549 0.000000 
0.871759 0.651748 0.000000 
0.863736 0.625752 0.000000 
0.825725 0.713324 0.000000 
0.822477 0.682851 0.000000 
0.823908 0.650915 0.000000 
0.847973 0.602701 0.000000 
0.832862 0.616379 0.000000 
0.640015 0.520982 0.000000 
0.648901 0.552288 0.000000 
0.719518 0.510879 0.000000 
0.712071 0.526450 0.000000 
0.511189 0.679020 0.000000 
0.527398 0.681554 0.000000 
0.536739 0.668085 0.000000 
0.529584 0.698227 0.000000 
0.530109 0.653325 0.000000 
0.513588 0.651900 0.000000 
0.535325 0.636973 0.000000 
0.521761 0.626036 0.000000 
0.553918 0.668456 0.000000 
0.565276 0.651564 0.000000 
0.559105 0.689185 0.000000 
0.665419 0.512737 0.000000 
0.668198 0.530282 0.000000 
0.683485 0.536209 0.000000 
0.652523 0.536313 0.000000 
0.694885 0.525198 0.000000 
0.692378 0.508902 0.000000 
0.718414 0.543281 0.000000 
0.685594 0.554689 0.000000 
0.703330 0.560502 0.000000 
0.666682 0.564732 0.000000 
0.859748 0.758086 0.000000 
0.839648 0.754790 0.000000 
0.745040 0.863997 0.000000 
0.742104 0.840844 0.000000 
0.626665 0.826453 0.000000 
0.756850 0.830076 0.000000 
0.810035 0.600566 0.000000 
0.546646 0.724209 0.000000 
0.630037 0.557970 0.000000 
0.837769 0.727057 0.000000 
0.705186 0.811415 0.000000 
0.795982 0.756063 0.000000 
0.730888 0.580858 0.000000 
0.607797 0.779302 0.000000 
0.593038 0.631613 0.000000 
0.806624 0.651359 0.000000 
0.644500 0.800583 0.000000 
0.747036 0.797577 0.000000 
0.782815 0.616253 0.000000 
0.578332 0.722497 0.000000 
0.639150 0.588576 0.000000 
0.808571 0.715508 0.000000 
0.714122 0.841196 0.000000 
0.827647 0.768283 0.000000 
0.735658 0.547187 0.000000 
0.588738 0.807396 0.000000 
0.561239 0.619143 0.000000 
0.835912 0.634179 0.000000 
0.693834 0.798549 0.000000 
0.610040 0.628508 0.000000 
0.786814 0.633620 0.000000 
0.772703 0.646468 0.000000 
0.772736 0.662816 0.000000 
0.758608 0.638320 0.000000 
0.791108 0.666891 0.000000 
0.758589 0.672403 0.000000 
0.743314 0.645912 0.000000 
0.764210 0.620270 0.000000 
0.759491 0.689663 0.000000 
0.743262 0.663647 0.000000 
0.728867 0.636543 0.000000 
0.775253 0.701585 0.000000 
0.745034 0.699192 0.000000 
0.713468 0.644414 0.000000 
0.726395 0.616837 0.000000 
0.676596 0.804439 0.000000 
0.698242 0.781940 0.000000 
0.616292 0.611455 0.000000 
0.729629 0.691426 0.000000 
0.683550 0.772054 0.000000 
0.716173 0.781394 0.000000 
0.729216 0.797619 0.000000 
0.715139 0.700936 0.000000 
0.728754 0.673135 0.000000 
0.664428 0.777950 0.000000 
0.716045 0.718199 0.000000 
0.699742 0.693174 0.000000 
0.731458 0.725972 0.000000 
0.701538 0.727688 0.000000 
0.685221 0.702653 0.000000 
0.698879 0.673792 0.000000 
0.745954 0.716469 0.000000 
0.702528 0.746101 0.000000 
0.686116 0.719904 0.000000 
0.671563 0.729348 0.000000 
0.670067 0.746435 0.000000 
0.685608 0.755403 0.000000 
0.649462 0.757062 0.000000 
0.656105 0.721536 0.000000 
0.637558 0.730952 0.000000 
0.655206 0.704289 0.000000 
0.632410 0.749392 0.000000 
0.611810 0.758984 0.000000 
0.616204 0.722423 0.000000 
0.639745 0.696481 0.000000 
0.669772 0.694851 0.000000 
0.619288 0.705197 0.000000 
0.638893 0.679255 0.000000 
0.668883 0.677583 0.000000 
0.622087 0.665112 0.000000 
0.653458 0.669796 0.000000 
0.652596 0.652547 0.000000 
0.638934 0.640897 0.000000 
0.643391 0.620398 0.000000 
0.667085 0.643011 0.000000 
0.661543 0.623067 0.000000 
0.682531 0.648681 0.000000 
0.697992 0.637596 0.000000 
0.737610 0.602130 0.000000 
0.633378 0.786694 0.000000 
0.645882 0.771928 0.000000 
0.660223 0.582441 0.000000 
0.776177 0.757748 0.000000 
0.770054 0.774896 0.000000 
0.762698 0.745333 0.000000 
0.745113 0.750864 0.000000 
0.741039 0.768112 0.000000 
0.722531 0.769735 0.000000 
0.716634 0.753060 0.000000 
0.731056 0.742420 0.000000 
0.576134 0.698524 0.000000 
0.797502 0.729477 0.000000 
0.777975 0.722025 0.000000 
0.683464 0.666002 0.000000 
0.722633 0.811026 0.000000 
0.728403 0.831357 0.000000 
0.584232 0.649098 0.000000 
0.623006 0.644017 0.000000 
0.713407 0.663272 0.000000 
0.710188 0.578243 0.000000 
0.661884 0.793727 0.000000 
0.633716 0.606467 0.000000 
0.806548 0.742169 0.000000 
0.829662 0.741934 0.000000 
0.802361 0.634430 0.000000 
0.816594 0.616185 0.000000 
0.595706 0.731108 0.000000 
0.618955 0.792672 0.000000 
0.613983 0.815237 0.000000 
0.752500 0.779730 0.000000 
0.793536 0.699105 0.000000 
0.763135 0.727384 0.000000 
0.755624 0.604234 0.000000 
0.596459 0.749230 0.000000 
0.800694 0.682354 0.000000 
0.708980 0.609305 0.000000 
0.695978 0.622197 0.000000 
0.699501 0.591979 0.000000 
0.674961 0.613326 0.000000 
0.553316 0.634845 0.000000 
0.676477 0.593915 0.000000 
0.606991 0.682130 0.000000 
0.589826 0.675258 0.000000 
VECTORS X_EC float 
-0.952905 0.864206 0.000000 
-0.163931 0.767713 0.000000 
0.286303 0.945218 0.000000 
-0.287798 -0.521093 0.000000 
0.157329 -0.942363 0.000000 
-0.813977 -0.025485 0.000000 
-0.134088 0.768907 0.000000 
0.658419 0.862827 0.000000 
0.314472 -0.112450 0.000000 
-0.018682 -0.533798 0.000000 
0.508397 0.589209 0.000000 
-0.728036 -0.247209 0.000000 
0.363443 -0.226185 0.000000 
-0.800061 0.578582 0.000000 
0.850705 -0.668595 0.000000 
-0.528792 -0.039168 0.000000 
0.700068 -0.004936 0.000000 
0.572947 -0.002098 0.000000 
-0.469891 -0.926982 0.000000 
-0.974086 -0.031337 0.000000 
-0.579800 0.922097 0.000000 
-0.869125 0.299828 0.000000 
0.176312 -0.778569 0.000000 
-0.252276 0.743890 0.000000 
0.292366 -0.580701 0.000000 
-0.163630 -0.470592 0.000000 
-0.976423 -0.572598 0.000000 
0.234437 0.321796 0.000000 
0.693051 -0.569239 0.000000 
-0.086804 -0.514129 0.000000 
0.507674 -0.290953 0.000000 
-0.018091 0.831140 0.000000 
-0.414290 -0.730008 0.000000 
0.573240 0.298658 0.000000 
0.702300 0.299736 0.000000 
-0.580170 -0.626056 0.000000 
0.978499 0.259828 0.000000 
-0.805681 -0.290309 0.000000 
0.434865 0.560950 0.000000 
-0.696069 0.542786 0.000000 
-0.551867 0.349514 0.000000 
0.851020 0.963276 0.000000 
-0.747367 0.606078 0.000000 
-0.397471 0.657519 0.000000 
-0.193310 0.400018 0.000000 
-0.276999 0.962746 0.000000 
-0.327421 0.122517 0.000000 
-0.653338 0.073795 0.000000 
-0.160887 -0.168805 0.000000 
-0.414345 -0.403232 0.000000 
0.147975 0.429286 0.000000 
0.058144 -0.967243 0.000000 
-0.485195 -0.811742 0.000000 
-0.405925 -0.493385 0.000000 
-0.811298 -0.858786 0.000000 
-0.717275 -0.341042 0.000000 
0.350080 0.149335 0.000000 
0.278956 0.756801 0.000000 
0.142117 -0.674308 0.000000 
-0.969952 -0.004777 0.000000 
-0.792966 0.300912 0.000000 
-0.464253 0.300427 0.000000 
-0.957470 0.585018 0.000000 
-0.328386 0.021848 0.000000 
-0.492827 -0.263198 0.000000 
0.011873 -0.034769 0.000000 
0.037933 -0.378585 0.000000 
-0.275132 0.585528 0.000000 
-0.804373 0.890895 0.000000 
0.725996 0.557419 0.000000 
0.473175 0.791967 0.000000 
0.560635 0.272985 0.000000 
0.161694 0.643096 0.000000 
0.070155 0.569239 0.000000 
-0.450745 0.891891 0.000000 
0.961368 -0.857419 0.000000 
-0.116969 -0.872811 0.000000 
0.261102 -0.719226 0.000000 
0.228853 -0.419672 0.000000 
0.475004 -0.647609 0.000000 
0.393558 -0.959279 0.000000 
0.785959 -0.548814 0.000000 
0.077000 0.981626 0.000000 
-0.161977 -0.796315 0.000000 
-0.100592 0.688314 0.000000 
-0.446624 0.745411 0.000000 
0.629768 0.791823 0.000000 
-0.950937 -0.763888 0.000000 
0.823339 -0.229866 0.000000 
-0.900272 -0.027827 0.000000 
0.593159 -0.016523 0.000000 
-0.982799 0.313468 0.000000 