# vtk DataFile Version 3.0 
vtk output 
ASCII 
DATASET UNSTRUCTURED_GRID 
POINTS 616 float 
0.185743 0.390247 0.000000 
0.081050 0.050842 0.000000 
0.389931 0.228227 0.000000 
0.016575 0.256893 0.000000 
0.295390 0.034779 0.000000 
0.241239 0.383394 0.000000 
0.081050 0.349158 0.000000 
0.185743 0.009753 0.000000 
0.339852 0.329764 0.000000 
0.015966 0.143514 0.000000 
0.371887 0.117223 0.000000 
0.130217 0.378888 0.000000 
0.131321 0.024487 0.000000 
0.371887 0.282777 0.000000 
0.009219 0.200000 0.000000 
0.340489 0.069105 0.000000 
0.042370 0.307470 0.000000 
0.242453 0.014003 0.000000 
0.296487 0.366582 0.000000 
0.041094 0.091334 0.000000 
0.388650 0.171566 0.000000 
0.157547 0.385997 0.000000 
0.103717 0.033834 0.000000 
0.379973 0.255241 0.000000 
0.013605 0.227902 0.000000 
0.318950 0.050842 0.000000 
0.213875 0.391469 0.000000 
0.058699 0.330741 0.000000 
0.214118 0.008011 0.000000 
0.318950 0.349158 0.000000 
0.028113 0.117223 0.000000 
0.384034 0.143514 0.000000 
0.106096 0.363168 0.000000 
0.157547 0.014003 0.000000 
0.358906 0.308666 0.000000 
0.011350 0.171566 0.000000 
0.355400 0.093734 0.000000 
0.028113 0.282777 0.000000 
0.270581 0.020898 0.000000 
0.269700 0.377593 0.000000 
0.060148 0.070236 0.000000 
0.390781 0.200000 0.000000 
0.172877 0.379951 0.000000 
0.175510 0.362479 0.000000 
0.162660 0.352254 0.000000 
0.190803 0.356495 0.000000 
0.148756 0.358921 0.000000 
0.146276 0.375194 0.000000 
0.134198 0.350572 0.000000 
0.122444 0.363204 0.000000 
0.164178 0.335210 0.000000 
0.194376 0.339762 0.000000 
0.202045 0.366925 0.000000 
0.218019 0.363033 0.000000 
0.199618 0.383205 0.000000 
0.225528 0.378569 0.000000 
0.150189 0.325086 0.000000 
0.180601 0.328703 0.000000 
0.209098 0.335641 0.000000 
0.042398 0.290992 0.000000 
0.057699 0.282157 0.000000 
0.057682 0.265735 0.000000 
0.071913 0.290383 0.000000 
0.043744 0.258938 0.000000 
0.029476 0.267146 0.000000 
0.040919 0.241936 0.000000 
0.023714 0.240622 0.000000 
0.071954 0.256296 0.000000 
0.087223 0.282743 0.000000 
0.070512 0.306189 0.000000 
0.082235 0.318824 0.000000 
0.056271 0.314442 0.000000 
0.074771 0.334381 0.000000 
0.071147 0.239046 0.000000 
0.087281 0.265078 0.000000 
0.099812 0.294456 0.000000 
0.098972 0.348309 0.000000 
0.106681 0.329439 0.000000 
0.323780 0.333403 0.000000 
0.311762 0.320451 0.000000 
0.295756 0.324122 0.000000 
0.316619 0.304763 0.000000 
0.292435 0.339639 0.000000 
0.303611 0.351723 0.000000 
0.277509 0.348256 0.000000 
0.280056 0.365323 0.000000 
0.283377 0.312309 0.000000 
0.305764 0.291537 0.000000 
0.332341 0.302612 0.000000 
0.342050 0.288371 0.000000 
0.343556 0.314660 0.000000 
0.358878 0.292187 0.000000 
0.266739 0.316934 0.000000 
0.288529 0.295411 0.000000 
0.314382 0.276658 0.000000 
0.020780 0.213067 0.000000 
0.051539 0.212794 0.000000 
0.076220 0.066597 0.000000 
0.088238 0.079549 0.000000 
0.104244 0.075878 0.000000 
0.083381 0.095237 0.000000 
0.107769 0.060777 0.000000 
0.096593 0.048693 0.000000 
0.123716 0.054239 0.000000 
0.121169 0.037173 0.000000 
0.116623 0.087691 0.000000 
0.094236 0.108463 0.000000 
0.067659 0.097388 0.000000 
0.057950 0.111629 0.000000 
0.056444 0.085340 0.000000 
0.041122 0.107813 0.000000 
0.133261 0.083066 0.000000 
0.111471 0.104589 0.000000 
0.088380 0.124709 0.000000 
0.302515 0.049638 0.000000 
0.292562 0.064237 0.000000 
0.299702 0.079025 0.000000 
0.276187 0.062993 0.000000 
0.315123 0.079051 0.000000 
0.324417 0.065466 0.000000 
0.324616 0.092889 0.000000 
0.340687 0.086608 0.000000 
0.290940 0.093722 0.000000 
0.265707 0.076519 0.000000 
0.270590 0.048144 0.000000 
0.254547 0.041847 0.000000 
0.279841 0.034529 0.000000 
0.254522 0.024592 0.000000 
0.299152 0.108914 0.000000 
0.273320 0.092460 0.000000 
0.248566 0.074425 0.000000 
0.381474 0.186400 0.000000 
0.363855 0.187721 0.000000 
0.356745 0.202524 0.000000 
0.354618 0.174142 0.000000 
0.366340 0.214596 0.000000 
0.382756 0.213393 0.000000 
0.361439 0.230646 0.000000 
0.376370 0.239295 0.000000 
0.339791 0.204836 0.000000 
0.337509 0.174383 0.000000 
0.362738 0.160509 0.000000 
0.357658 0.144040 0.000000 
0.379150 0.159253 0.000000 
0.371133 0.133262 0.000000 
0.333034 0.220728 0.000000 
0.329792 0.190273 0.000000 
0.331250 0.158368 0.000000 
0.355372 0.110213 0.000000 
0.340239 0.123869 0.000000 
0.147380 0.028181 0.000000 
0.155905 0.059262 0.000000 
0.226984 0.018307 0.000000 
0.219475 0.033843 0.000000 
0.018526 0.186400 0.000000 
0.034705 0.188843 0.000000 
0.043942 0.175264 0.000000 
0.036960 0.205545 0.000000 
0.037262 0.160509 0.000000 
0.020850 0.159253 0.000000 
0.042342 0.144040 0.000000 
0.028867 0.133262 0.000000 
0.061051 0.175505 0.000000 
0.072169 0.158372 0.000000 
0.066393 0.196332 0.000000 
0.172877 0.020049 0.000000 
0.175510 0.037521 0.000000 
0.190803 0.043505 0.000000 
0.159728 0.043435 0.000000 
0.202288 0.032555 0.000000 
0.199861 0.016274 0.000000 
0.225753 0.050665 0.000000 
0.192813 0.061958 0.000000 
0.210576 0.067831 0.000000 
0.173696 0.071801 0.000000 
0.367072 0.265493 0.000000 
0.346959 0.262176 0.000000 
0.252427 0.371295 0.000000 
0.249466 0.348134 0.000000 
0.134113 0.333780 0.000000 
0.264192 0.337365 0.000000 
0.317407 0.108055 0.000000 
0.054049 0.231483 0.000000 
0.136829 0.064714 0.000000 
0.345087 0.234466 0.000000 
0.212534 0.318677 0.000000 
0.303261 0.263396 0.000000 
0.238111 0.088218 0.000000 
0.115216 0.286566 0.000000 
0.099501 0.137971 0.000000 
0.313947 0.158794 0.000000 
0.151906 0.307864 0.000000 
0.254345 0.304854 0.000000 
0.290132 0.123685 0.000000 
0.085682 0.229651 0.000000 
0.145655 0.095146 0.000000 
0.315862 0.222886 0.000000 
0.221499 0.348483 0.000000 
0.334946 0.275644 0.000000 
0.243001 0.054602 0.000000 
0.096224 0.314731 0.000000 
0.067816 0.125723 0.000000 
0.343279 0.141658 0.000000 
0.201174 0.305796 0.000000 
0.116553 0.134955 0.000000 
0.294125 0.141041 0.000000 
0.279967 0.153831 0.000000 
0.279988 0.170157 0.000000 
0.265839 0.145650 0.000000 
0.298397 0.174283 0.000000 
0.265796 0.179679 0.000000 
0.250497 0.153180 0.000000 
0.271470 0.127644 0.000000 
0.266693 0.196919 0.000000 
0.250433 0.170882 0.000000 
0.236015 0.143783 0.000000 
0.282496 0.208894 0.000000 
0.252211 0.206394 0.000000 
0.220568 0.151587 0.000000 
0.233545 0.124110 0.000000 
0.183964 0.311700 0.000000 
0.205547 0.289160 0.000000 
0.122668 0.117818 0.000000 
0.236762 0.198570 0.000000 
0.190842 0.279250 0.000000 
0.223472 0.288629 0.000000 
0.236536 0.304885 0.000000 
0.222257 0.208036 0.000000 
0.235882 0.180299 0.000000 
0.171764 0.285172 0.000000 
0.223203 0.225330 0.000000 
0.206807 0.200208 0.000000 
0.238654 0.233158 0.000000 
0.208699 0.234797 0.000000 
0.192302 0.209674 0.000000 
0.205928 0.180844 0.000000 
0.253157 0.223687 0.000000 
0.209740 0.253251 0.000000 
0.193248 0.226969 0.000000 
0.178744 0.236435 0.000000 
0.177302 0.253569 0.000000 
0.192847 0.262557 0.000000 
0.156761 0.264237 0.000000 
0.163293 0.228607 0.000000 
0.144807 0.238058 0.000000 
0.162347 0.211313 0.000000 
0.139717 0.256553 0.000000 
0.119174 0.266184 0.000000 
0.123473 0.229510 0.000000 
0.146896 0.203485 0.000000 
0.176852 0.201846 0.000000 
0.126508 0.212232 0.000000 
0.145950 0.186190 0.000000 
0.175906 0.184551 0.000000 
0.129030 0.171929 0.000000 
0.160455 0.176723 0.000000 
0.159509 0.159429 0.000000 
0.145725 0.147655 0.000000 
0.150073 0.127105 0.000000 
0.174013 0.149962 0.000000 
0.168376 0.129959 0.000000 
0.189531 0.155721 0.000000 
0.205051 0.144736 0.000000 
0.244803 0.109462 0.000000 
0.140778 0.293959 0.000000 
0.153228 0.279146 0.000000 
0.167015 0.089334 0.000000 
0.283447 0.265045 0.000000 
0.277332 0.282182 0.000000 
0.269952 0.252606 0.000000 
0.252362 0.258104 0.000000 
0.248311 0.275360 0.000000 
0.229805 0.276960 0.000000 
0.223871 0.260250 0.000000 
0.238281 0.249624 0.000000 
0.083440 0.205626 0.000000 
0.304782 0.236830 0.000000 
0.285231 0.229337 0.000000 
0.190477 0.173016 0.000000 
0.229971 0.318296 0.000000 
0.235761 0.338640 0.000000 
0.090965 0.155695 0.000000 
0.129751 0.150688 0.000000 
0.220498 0.170401 0.000000 
0.217369 0.085561 0.000000 
0.169258 0.300986 0.000000 
0.140214 0.113002 0.000000 
0.313836 0.249525 0.000000 
0.336969 0.249320 0.000000 
0.309696 0.141878 0.000000 
0.323958 0.123664 0.000000 
0.103036 0.238232 0.000000 
0.126386 0.299961 0.000000 
0.121439 0.322560 0.000000 
0.259786 0.286998 0.000000 
0.300809 0.206469 0.000000 
0.270374 0.234655 0.000000 
0.262870 0.111610 0.000000 
0.103828 0.256410 0.000000 
0.307983 0.189748 0.000000 
0.216082 0.116546 0.000000 
0.203035 0.129368 0.000000 
0.206597 0.099242 0.000000 
0.181878 0.120350 0.000000 
0.060140 0.141662 0.000000 
0.183393 0.100981 0.000000 
0.114108 0.189050 0.000000 
0.096894 0.182121 0.000000 
0.785743 0.990247 0.000000 
0.681050 0.650842 0.000000 
0.989931 0.828227 0.000000 
0.616575 0.856893 0.000000 
0.895390 0.634779 0.000000 
0.841239 0.983394 0.000000 
0.681050 0.949158 0.000000 
0.785743 0.609753 0.000000 
0.939852 0.929764 0.000000 
0.615966 0.743514 0.000000 
0.971887 0.717223 0.000000 
0.730217 0.978888 0.000000 
0.731321 0.624487 0.000000 
0.971887 0.882777 0.000000 
0.609219 0.800000 0.000000 
0.940489 0.669105 0.000000 
0.642370 0.907470 0.000000 
0.842453 0.614003 0.000000 
0.896487 0.966582 0.000000 
0.641094 0.691334 0.000000 
0.988650 0.771566 0.000000 
0.757547 0.985997 0.000000 
0.703717 0.633834 0.000000 
0.979973 0.855241 0.000000 
0.613605 0.827902 0.000000 
0.918950 0.650842 0.000000 
0.813875 0.991469 0.000000 
0.658699 0.930741 0.000000 
0.814118 0.608011 0.000000 
0.918950 0.949158 0.000000 
0.628113 0.717223 0.000000 
0.984034 0.743514 0.000000 
0.706096 0.963168 0.000000 
0.757547 0.614003 0.000000 
0.958906 0.908666 0.000000 
0.611350 0.771566 0.000000 
0.955400 0.693734 0.000000 
0.628113 0.882777 0.000000 
0.870581 0.620898 0.000000 
0.869700 0.977593 0.000000 
0.660148 0.670236 0.000000 
0.990781 0.800000 0.000000 
0.772877 0.979951 0.000000 
0.775510 0.962479 0.000000 
0.762660 0.952254 0.000000 
[...]
POINT_DATA 616 
VECTORS X_GC float 
0.185743 0.390247 0.000000 
0.081050 0.050842 0.000000 
0.389931 0.228227 0.000000 
0.016575 0.256893 0.000000 
0.295390 0.034779 0.000000 
0.241239 0.383394 0.000000 
0.081050 0.349158 0.000000 
0.185743 0.009753 0.000000 
0.339852 0.329764 0.000000 
0.015966 0.143514 0.000000 
0.371887 0.117223 0.000000 
0.130217 0.378888 0.000000 
0.131321 0.024487 0.000000 
0.371887 0.282777 0.000000 
0.009219 0.200000 0.000000 
0.340489 0.069105 0.000000 
0.042370 0.307470 0.000000 
0.242453 0.014003 0.000000 
0.296487 0.366582 0.000000 
0.041094 0.091334 0.000000 
0.388650 0.171566 0.000000 
0.157547 0.385997 0.000000 
0.103717 0.033834 0.000000 
0.379973 0.255241 0.000000 
0.013605 0.227902 0.000000 
0.318950 0.050842 0.000000 
0.213875 0.391469 0.000000 
0.058699 0.330741 0.000000 
0.214118 0.008011 0.000000 
0.318950 0.349158 0.000000 
0.028113 0.117223 0.000000 
0.384034 0.143514 0.000000 
0.106096 0.363168 0.000000 
0.157547 0.014003 0.000000 
0.358906 0.308666 0.000000 
0.011350 0.171566 0.000000 
0.355400 0.093734 0.000000 
0.028113 0.282777 0.000000 
0.270581 0.020898 0.000000 
0.269700 0.377593 0.000000 
0.060148 0.070236 0.000000 
0.390781 0.200000 0.000000 
0.172877 0.379951 0.000000 
0.175510 0.362479 0.000000 
0.162660 0.352254 0.000000 
0.190803 0.356495 0.000000 
0.148756 0.358921 0.000000 
0.146276 0.375194 0.000000 
0.134198 0.350572 0.000000 
0.122444 0.363204 0.000000 
0.164178 0.335210 0.000000 
0.194376 0.339762 0.000000 
0.202045 0.366925 0.000000 
0.218019 0.363033 0.000000 
0.199618 0.383205 0.000000 
0.225528 0.378569 0.000000 
0.150189 0.325086 0.000000 
0.180601 0.328703 0.000000 
0.209098 0.335641 0.000000 
0.042398 0.290992 0.000000 
0.057699 0.282157 0.000000 
0.057682 0.265735 0.000000 
0.071913 0.290383 0.000000 
0.043744 0.258938 0.000000 
0.029476 0.267146 0.000000 
0.040919 0.241936 0.000000 
0.023714 0.240622 0.000000 
0.071954 0.256296 0.000000 
0.087223 0.282743 0.000000 
0.070512 0.306189 0.000000 
0.082235 0.318824 0.000000 
0.056271 0.314442 0.000000 
0.074771 0.334381 0.000000 
0.071147 0.239046 0.000000 
0.087281 0.265078 0.000000 
0.099812 0.294456 0.000000 
0.098972 0.348309 0.000000 
0.106681 0.329439 0.000000 
0.323780 0.333403 0.000000 
0.311762 0.320451 0.000000 
0.295756 0.324122 0.000000 
0.316619 0.304763 0.000000 
0.292435 0.339639 0.000000 
0.303611 0.351723 0.000000 
0.277509 0.348256 0.000000 
0.280056 0.365323 0.000000 
0.283377 0.312309 0.000000 
0.305764 0.291537 0.000000 
0.332341 0.302612 0.000000 
0.342050 0.288371 0.000000 
0.343556 0.314660 0.000000 
0.358878 0.292187 0.000000 
0.266739 0.316934 0.000000 
0.288529 0.295411 0.000000 
0.314382 0.276658 0.000000 
0.020780 0.213067 0.000000 
0.051539 0.212794 0.000000 
0.076220 0.066597 0.000000 
0.088238 0.079549 0.000000 
0.104244 0.075878 0.000000 
0.083381 0.095237 0.000000 
0.107769 0.060777 0.000000 
0.096593 0.048693 0.000000 
0.123716 0.054239 0.000000 
0.121169 0.037173 0.000000 
0.116623 0.087691 0.000000 
0.094236 0.108463 0.000000 
0.067659 0.097388 0.000000 
0.057950 0.111629 0.000000 
0.056444 0.085340 0.000000 
0.041122 0.107813 0.000000 
0.133261 0.083066 0.000000 
0.111471 0.104589 0.000000 
0.088380 0.124709 0.000000 
0.302515 0.049638 0.000000 
0.292562 0.064237 0.000000 
0.299702 0.079025 0.000000 
0.276187 0.062993 0.000000 
0.315123 0.079051 0.000000 
0.324417 0.065466 0.000000 
0.324616 0.092889 0.000000 
0.340687 0.086608 0.000000 
0.290940 0.093722 0.000000 
0.265707 0.076519 0.000000 
0.270590 0.048144 0.000000 
0.254547 0.041847 0.000000 
0.279841 0.034529 0.000000 
0.254522 0.024592 0.000000 
0.299152 0.108914 0.000000 
0.273320 0.092460 0.000000 
0.248566 0.074425 0.000000 
0.381474 0.186400 0.000000 
0.363855 0.187721 0.000000 
0.356745 0.202524 0.000000 
0.354618 0.174142 0.000000 
0.366340 0.214596 0.000000 
0.382756 0.213393 0.000000 
0.361439 0.230646 0.000000 
0.376370 0.239295 0.000000 
0.339791 0.204836 0.000000 
0.337509 0.174383 0.000000 
0.362738 0.160509 0.000000 
0.357658 0.144040 0.000000 
0.379150 0.159253 0.000000 
0.371133 0.133262 0.000000 
0.333034 0.220728 0.000000 
0.329792 0.190273 0.000000 
0.331250 0.158368 0.000000 
0.355372 0.110213 0.000000 
0.340239 0.123869 0.000000 
0.147380 0.028181 0.000000 
0.155905 0.059262 0.000000 
0.226984 0.018307 0.000000 
0.219475 0.033843 0.000000 
0.018526 0.186400 0.000000 
0.034705 0.188843 0.000000 
0.043942 0.175264 0.000000 
0.036960 0.205545 0.000000 
0.037262 0.160509 0.000000 
0.020850 0.159253 0.000000 
0.042342 0.144040 0.000000 
0.028867 0.133262 0.000000 
0.061051 0.175505 0.000000 
0.072169 0.158372 0.000000 
0.066393 0.196332 0.000000 
0.172877 0.020049 0.000000 
0.175510 0.037521 0.000000 
0.190803 0.043505 0.000000 
0.159728 0.043435 0.000000 
0.202288 0.032555 0.000000 
0.199861 0.016274 0.000000 
0.225753 0.050665 0.000000 
0.192813 0.061958 0.000000 
0.210576 0.067831 0.000000 
0.173696 0.071801 0.000000 
0.367072 0.265493 0.000000 
0.346959 0.262176 0.000000 
0.252427 0.371295 0.000000 
0.249466 0.348134 0.000000 
0.134113 0.333780 0.000000 
0.264192 0.337365 0.000000 
0.317407 0.108055 0.000000 
0.054049 0.231483 0.000000 
0.136829 0.064714 0.000000 
0.345087 0.234466 0.000000 
0.212534 0.318677 0.000000 
0.303261 0.263396 0.000000 
0.238111 0.088218 0.000000 
0.115216 0.286566 0.000000 
0.099501 0.137971 0.000000 
0.313947 0.158794 0.000000 
0.151906 0.307864 0.000000 
0.254345 0.304854 0.000000 
0.290132 0.123685 0.000000 
0.085682 0.229651 0.000000 
0.145655 0.095146 0.000000 
0.315862 0.222886 0.000000 
0.221499 0.348483 0.000000 
0.334946 0.275644 0.000000 
0.243001 0.054602 0.000000 
0.096224 0.314731 0.000000 
0.067816 0.125723 0.000000 
0.343279 0.141658 0.000000 
0.201174 0.305796 0.000000 
0.116553 0.134955 0.000000 
0.294125 0.141041 0.000000 
0.279967 0.153831 0.000000 
0.279988 0.170157 0.000000 
0.265839 0.145650 0.000000 
0.298397 0.174283 0.000000 
0.265796 0.179679 0.000000 
0.250497 0.153180 0.000000 
0.271470 0.127644 0.000000 
0.266693 0.196919 0.000000 
0.250433 0.170882 0.000000 
0.236015 0.143783 0.000000 
0.282496 0.208894 0.000000 
0.252211 0.206394 0.000000 
0.220568 0.151587 0.000000 
0.233545 0.124110 0.000000 
0.183964 0.311700 0.000000 
0.205547 0.289160 0.000000 
0.122668 0.117818 0.000000 
0.236762 0.198570 0.000000 
0.190842 0.279250 0.000000 
0.223472 0.288629 0.000000 
0.236536 0.304885 0.000000 
0.222257 0.208036 0.000000 
0.235882 0.180299 0.000000 
0.171764 0.285172 0.000000 
0.223203 0.225330 0.000000 
0.206807 0.200208 0.000000 
0.238654 0.233158 0.000000 
0.208699 0.234797 0.000000 
0.192302 0.209674 0.000000 
0.205928 0.180844 0.000000 
0.253157 0.223687 0.000000 
0.209740 0.253251 0.000000 
0.193248 0.226969 0.000000 
0.178744 0.236435 0.000000 
0.177302 0.253569 0.000000 
0.192847 0.262557 0.000000 
0.156761 0.264237 0.000000 
0.163293 0.228607 0.000000 
0.144807 0.238058 0.000000 
0.162347 0.211313 0.000000 
0.139717 0.256553 0.000000 
0.119174 0.266184 0.000000 
0.123473 0.229510 0.000000 
0.146896 0.203485 0.000000 
0.176852 0.201846 0.000000 
0.126508 0.212232 0.000000 
0.145950 0.186190 0.000000 
0.175906 0.184551 0.000000 
0.129030 0.171929 0.000000 
0.160455 0.176723 0.000000 
0.159509 0.159429 0.000000 
0.145725 0.147655 0.000000 
0.150073 0.127105 0.000000 
0.174013 0.149962 0.000000 
0.168376 0.129959 0.000000 
0.189531 0.155721 0.000000 
0.205051 0.144736 0.000000 
0.244803 0.109462 0.000000 
0.140778 0.293959 0.000000 
0.153228 0.279146 0.000000 
0.167015 0.089334 0.000000 
0.283447 0.265045 0.000000 
0.277332 0.282182 0.000000 
0.269952 0.252606 0.000000 
0.252362 0.258104 0.000000 
0.248311 0.275360 0.000000 
0.229805 0.276960 0.000000 
0.223871 0.260250 0.000000 
0.238281 0.249624 0.000000 
0.083440 0.205626 0.000000 
0.304782 0.236830 0.000000 
0.285231 0.229337 0.000000 
0.190477 0.173016 0.000000 
0.229971 0.318296 0.000000 
0.235761 0.338640 0.000000 
0.090965 0.155695 0.000000 
0.129751 0.150688 0.000000 
0.220498 0.170401 0.000000 
0.217369 0.085561 0.000000 
0.169258 0.300986 0.000000 
0.140214 0.113002 0.000000 
0.313836 0.249525 0.000000 
0.336969 0.249320 0.000000 
0.309696 0.141878 0.000000 
0.323958 0.123664 0.000000 
0.103036 0.238232 0.000000 
0.126386 0.299961 0.000000 
0.121439 0.322560 0.000000 
0.259786 0.286998 0.000000 
0.300809 0.206469 0.000000 
0.270374 0.234655 0.000000 
0.262870 0.111610 0.000000 
0.103828 0.256410 0.000000 
0.307983 0.189748 0.000000 
0.216082 0.116546 0.000000 
0.203035 0.129368 0.000000 
0.206597 0.099242 0.000000 
0.181878 0.120350 0.000000 
0.060140 0.141662 0.000000 
0.183393 0.100981 0.000000 
0.114108 0.189050 0.000000 
0.096894 0.182121 0.000000 
0.785743 0.990247 0.000000 
0.681050 0.650842 0.000000 
0.989931 0.828227 0.000000 
0.616575 0.856893 0.000000 
0.895390 0.634779 0.000000 
0.841239 0.983394 0.000000 
0.681050 0.949158 0.000000 
0.785743 0.609753 0.000000 
0.939852 0.929764 0.000000 
0.615966 0.743514 0.000000 
0.971887 0.717223 0.000000 
0.730217 0.978888 0.000000 
0.731321 0.624487 0.000000 
0.971887 0.882777 0.000000 
0.609219 0.800000 0.000000 
0.940489 0.669105 0.000000 
0.642370 0.907470 0.000000 
0.842453 0.614003 0.000000 
0.896487 0.966582 0.000000 
0.641094 0.691334 0.000000 
0.988650 0.771566 0.000000 
0.757547 0.985997 0.000000 
0.703717 0.633834 0.000000 
0.979973 0.855241 0.000000 
0.613605 0.827902 0.000000 
0.918950 0.650842 0.000000 
0.813875 0.991469 0.000000 
0.658699 0.930741 0.000000 
0.814118 0.608011 0.000000 
0.918950 0.949158 0.000000 
0.628113 0.717223 0.000000 
0.984034 0.743514 0.000000 
0.706096 0.963168 0.000000 
0.757547 0.614003 0.000000 
0.958906 0.908666 0.000000 
0.611350 0.771566 0.000000 
0.955400 0.693734 0.000000 
0.628113 0.882777 0.000000 
0.870581 0.620898 0.000000 
0.869700 0.977593 0.000000 
0.660148 0.670236 0.000000 
0.990781 0.800000 0.000000 
0.772877 0.979951 0.000000 
0.775510 0.962479 0.000000 
0.762660 0.952254 0.000000 
0.790803 0.956495 0.000000 
0.748756 0.958921 0.000000 
0.746276 0.975194 0.000000 
0.734198 0.950572 0.000000 
0.722444 0.963204 0.000000 
0.764178 0.935210 0.000000 
0.794376 0.939762 0.000000 
0.802045 0.966925 0.000000 
0.818019 0.963033 0.000000 
0.799618 0.983205 0.000000 
0.825528 0.978569 0.000000 
0.750189 0.925086 0.000000 
0.780601 0.928703 0.000000 
0.809098 0.935641 0.000000 
0.642398 0.890992 0.000000 
0.657699 0.882157 0.000000 
0.657682 0.865735 0.000000 
0.671913 0.890383 0.000000 
0.643744 0.858938 0.000000 
0.629476 0.867146 0.000000 
0.640919 0.841936 0.000000 
0.623714 0.840622 0.000000 
0.671954 0.856296 0.000000 
0.687223 0.882743 0.000000 
0.670512 0.906189 0.000000 
0.682235 0.918824 0.000000 
0.656271 0.914442 0.000000 
0.674771 0.934381 0.000000 
0.671147 0.839046 0.000000 
0.687281 0.865078 0.000000 
0.699812 0.894456 0.000000 
0.698972 0.948309 0.000000 
0.706681 0.929439 0.000000 
0.923780 0.933403 0.000000 
0.911762 0.920451 0.000000 
0.895756 0.924122 0.000000 
0.916619 0.904763 0.000000 
0.892435 0.939639 0.000000 
0.903611 0.951723 0.000000 
0.877509 0.948256 0.000000 
0.880056 0.965323 0.000000 
0.883377 0.912309 0.000000 
0.905764 0.891537 0.000000 
0.932341 0.902612 0.000000 
0.942050 0.888371 0.000000 
0.943556 0.914660 0.000000 
0.958878 0.892187 0.000000 
0.866739 0.916934 0.000000 
0.888529 0.895411 0.000000 
0.914382 0.876658 0.000000 
0.620780 0.813067 0.000000 
0.651539 0.812794 0.000000 
0.676220 0.666597 0.000000 
0.688238 0.679549 0.000000 
0.704244 0.675878 0.000000 
0.683381 0.695237 0.000000 
0.707769 0.660777 0.000000 
0.696593 0.648693 0.000000 
0.723716 0.654239 0.000000 
0.721169 0.637173 0.000000 
0.716623 0.687691 0.000000 
0.694236 0.708463 0.000000 
0.667659 0.697388 0.000000 
0.657950 0.711629 0.000000 
0.656444 0.685340 0.000000 
0.641122 0.707813 0.000000 
0.733261 0.683066 0.000000 
0.711471 0.704589 0.000000 
0.688380 0.724709 0.000000 
0.902515 0.649638 0.000000 
0.892562 0.664237 0.000000 
0.899702 0.679025 0.000000 
0.876187 0.662993 0.000000 
0.915123 0.679051 0.000000 
0.924417 0.665466 0.000000 
0.924616 0.692889 0.000000 
0.940687 0.686608 0.000000 
0.890940 0.693722 0.000000 
0.865707 0.676519 0.000000 
0.870590 0.648144 0.000000 
0.854547 0.641847 0.000000 
0.879841 0.634529 0.000000 
0.854522 0.624592 0.000000 
0.899152 0.708914 0.000000 
0.873320 0.692460 0.000000 
0.848566 0.674425 0.000000 
0.981474 0.786400 0.000000 
0.963855 0.787721 0.000000 
0.956745 0.802524 0.000000 
0.954618 0.774142 0.000000 
0.966340 0.814596 0.000000 
0.982756 0.813393 0.000000 
0.961439 0.830646 0.000000 
0.976370 0.839295 0.000000 
0.939791 0.804836 0.000000 
0.937509 0.774383 0.000000 
0.962738 0.760509 0.000000 
0.957658 0.744040 0.000000 
0.979150 0.759253 0.000000 
0.971133 0.733262 0.000000 
0.933034 0.820728 0.000000 
0.929792 0.790273 0.000000 
0.931250 0.758368 0.000000 
0.955372 0.710213 0.000000 
0.940239 0.723869 0.000000 
0.747380 0.628181 0.000000 
0.755905 0.659262 0.000000 
0.826984 0.618307 0.000000 
0.819475 0.633843 0.000000 
0.618526 0.786400 0.000000 
0.634705 0.788843 0.000000 
0.643942 0.775264 0.000000 
0.636960 0.805545 0.000000 
0.637262 0.760509 0.000000 
0.620850 0.759253 0.000000 
0.642342 0.744040 0.000000 
0.628867 0.733262 0.000000 
0.661051 0.775505 0.000000 
0.672169 0.758372 0.000000 
0.666393 0.796332 0.000000 
0.772877 0.620049 0.000000 
0.775510 0.637521 0.000000 
0.790803 0.643505 0.000000 
0.759728 0.643435 0.000000 
0.802288 0.632555 0.000000 
0.799861 0.616274 0.000000 
0.825753 0.650665 0.000000 
0.792813 0.661958 0.000000 
0.810576 0.667831 0.000000 
0.773696 0.671801 0.000000 
0.967072 0.865493 0.000000 
0.946959 0.862176 0.000000 
0.852427 0.971295 0.000000 
0.849466 0.948134 0.000000 
0.734113 0.933780 0.000000 
0.864192 0.937365 0.000000 
0.917407 0.708055 0.000000 
0.654049 0.831483 0.000000 
0.736829 0.664714 0.000000 
0.945087 0.834466 0.000000 
0.812534 0.918677 0.000000 
0.903261 0.863396 0.000000 
0.838111 0.688218 0.000000 
0.715216 0.886566 0.000000 
0.699501 0.737971 0.000000 
0.913947 0.758794 0.000000 
0.751906 0.907864 0.000000 
0.854345 0.904854 0.000000 
0.890132 0.723685 0.000000 
0.685682 0.829651 0.000000 
0.745655 0.695146 0.000000 
0.915862 0.822886 0.000000 
0.821499 0.948483 0.000000 
0.934946 0.875644 0.000000 
0.843001 0.654602 0.000000 
0.696224 0.914731 0.000000 
0.667816 0.725723 0.000000 
0.943279 0.741658 0.000000 
0.801174 0.905796 0.000000 
0.716553 0.734955 0.000000 
0.894125 0.741041 0.000000 
0.879967 0.753831 0.000000 
0.879988 0.770157 0.000000 
0.865839 0.745650 0.000000 
0.898397 0.774283 0.000000 
0.865796 0.779679 0.000000 
0.850497 0.753180 0.000000 
0.871470 0.727644 0.000000 
0.866693 0.796919 0.000000 
0.850433 0.770882 0.000000 
0.836015 0.743783 0.000000 
0.882496 0.808894 0.000000 
0.852211 0.806394 0.000000 
0.820568 0.751587 0.000000 
0.833545 0.724110 0.000000 
0.783964 0.911700 0.000000 
0.805547 0.889160 0.000000 
0.722668 0.717818 0.000000 
0.836762 0.798570 0.000000 
0.790842 0.879250 0.000000 
0.823472 0.888629 0.000000 
0.836536 0.904885 0.000000 
0.822257 0.808036 0.000000 
0.835882 0.780299 0.000000 
0.771764 0.885172 0.000000 
0.823203 0.825330 0.000000 
0.806807 0.800208 0.000000 
0.838654 0.833158 0.000000 
0.808699 0.834797 0.000000 
0.792302 0.809674 0.000000 
0.805928 0.780844 0.000000 
0.853157 0.823687 0.000000 
0.809740 0.853251 0.000000 
0.793248 0.826969 0.000000 
0.778744 0.836435 0.000000 
0.777302 0.853569 0.000000 
0.792847 0.862557 0.000000 
0.756761 0.864237 0.000000 
0.763293 0.828607 0.000000 
0.744807 0.838058 0.000000 
0.762347 0.811313 0.000000 
0.739717 0.856553 0.000000 
0.719174 0.866184 0.000000 
0.723473 0.829510 0.000000 
0.746896 0.803485 0.000000 
0.776852 0.801846 0.000000 
0.726508 0.812232 0.000000 
0.745950 0.786190 0.000000 
0.775906 0.784551 0.000000 
0.729030 0.771929 0.000000 
0.760455 0.776723 0.000000 
0.759509 0.759429 0.000000 
0.745725 0.747655 0.000000 
0.750073 0.727105 0.000000 
0.774013 0.749962 0.000000 
0.768376 0.729959 0.000000 
0.789531 0.755721 0.000000 
0.805051 0.744736 0.000000 
0.844803 0.709462 0.000000 
0.740778 0.893959 0.000000 
0.753228 0.879146 0.000000 
0.767015 0.689334 0.000000 
0.883447 0.865045 0.000000 
0.877332 0.882182 0.000000 
0.869952 0.852606 0.000000 
0.852362 0.858104 0.000000 
0.848311 0.875360 0.000000 
0.829805 0.876960 0.000000 
0.823871 0.860250 0.000000 
0.838281 0.849624 0.000000 
0.683440 0.805626 0.000000 
0.904782 0.836830 0.000000 
0.885231 0.829337 0.000000 
0.790477 0.773016 0.000000 
0.829971 0.918296 0.000000 
0.835761 0.938640 0.000000 
0.690965 0.755695 0.000000 
0.729751 0.750688 0.000000 
0.820498 0.770401 0.000000 
0.817369 0.685561 0.000000 
0.769258 0.900986 0.000000 
0.740214 0.713002 0.000000 
0.913836 0.849525 0.000000 
0.936969 0.849320 0.000000 
0.909696 0.741878 0.000000 
0.923958 0.723664 0.000000 
0.703036 0.838232 0.000000 
0.726386 0.899961 0.000000 
0.721439 0.922560 0.000000 
0.859786 0.886998 0.000000 
0.900809 0.806469 0.000000 
0.870374 0.834655 0.000000 
0.862870 0.711610 0.000000 
0.703828 0.856410 0.000000 
0.907983 0.789748 0.000000 
0.816082 0.716546 0.000000 
0.803035 0.729368 0.000000 
0.806597 0.699242 0.000000 
0.781878 0.720350 0.000000 
0.660140 0.741662 0.000000 
0.783393 0.700981 0.000000 
0.714108 0.789050 0.000000 
0.696894 0.782121 0.000000 
VECTORS X_EC float 
-0.804941 0.714859 0.000000 
-0.016836 0.621006 0.000000 
0.435455 0.798624 0.000000 
-0.137864 -0.668498 0.000000 
0.304415 0.907805 0.000000 
-0.667875 -0.175221 0.000000 
0.016836 0.621006 0.000000 
0.804941 0.714859 0.000000 
0.404726 -0.202960 0.000000 
0.129711 -0.680687 0.000000 
0.655531 0.437746 0.000000 
-0.577762 -0.395664 0.000000 
0.510264 -0.373583 0.000000 
-0.655531 0.437746 0.000000 
1.000000 -0.815610 0.000000 
-0.382104 -0.190218 0.000000 
0.850590 -0.152605 0.000000 
0.719945 -0.150947 0.000000 
-0.331640 0.929736 0.000000 
-0.826686 -0.178115 0.000000 
-0.431313 0.772993 0.000000 
-0.719945 0.150947 0.000000 
0.323323 -0.925653 0.000000 
-0.104818 0.599455 0.000000 
0.441963 -0.727905 0.000000 
-0.016836 -0.621006 0.000000 
-0.829375 -0.722498 0.000000 
0.385175 0.173979 0.000000 
0.839789 -0.717643 0.000000 
0.016836 -0.621006 0.000000 
0.655531 -0.437746 0.000000 
0.129711 0.680687 0.000000 
-0.263364 -0.878072 0.000000 
0.719945 0.150947 0.000000 
0.826686 0.178115 0.000000 
-0.431313 -0.772993 0.000000 
-0.874676 0.108005 0.000000 
-0.655531 -0.437746 0.000000 
0.582041 0.411627 0.000000 
-0.551851 0.393999 0.000000 
-0.404726 0.202960 0.000000 
1.000000 0.815610 0.000000 
-0.599014 0.457536 0.000000 
-0.249589 0.510203 0.000000 
-0.045071 0.253202 0.000000 
-0.129909 0.816069 0.000000 
-0.178428 -0.024887 0.000000 
-0.503876 -0.074476 0.000000 
-0.011441 -0.316031 0.000000 
-0.264085 -0.551124 0.000000 
0.295794 0.283569 0.000000 
0.204762 0.887523 0.000000 
-0.338494 -0.959096 0.000000 
-0.260665 -0.639629 0.000000 
-0.664101 0.992362 0.000000 
-0.571379 -0.489448 0.000000 
0.498274 0.003770 0.000000 
0.425947 0.612024 0.000000 
0.287186 -0.818034 0.000000 
-0.819833 -0.152043 0.000000 
-0.643147 0.153986 0.000000 
-0.314701 0.153647 0.000000 
-0.807664 0.438259 0.000000 
-0.178768 -0.125111 0.000000 
-0.342912 -0.410475 0.000000 
0.161273 -0.181627 0.000000 
0.187556 -0.525729 0.000000 
-0.125917 0.439079 0.000000 
-0.654865 0.744467 0.000000 
0.876214 0.410248 0.000000 
0.623528 0.644707 0.000000 
0.711154 0.125413 0.000000 
0.312385 0.495417 0.000000 
0.219083 0.422932 0.000000 
-0.301564 0.745625 0.000000 
-0.889125 0.996232 0.000000 
0.033818 0.979436 0.000000 
0.411228 -0.866377 0.000000 
0.331936 -0.524398 0.000000 
0.590976 -0.764752 0.000000 
0.517560 0.915112 0.000000 
0.904730 -0.667617 0.000000 
0.207225 0.848699 0.000000 
-0.034458 -0.927772 0.000000 
0.034873 0.550176 0.000000 
-0.306451 0.601123 0.000000 
0.753827 0.667546 0.000000 
-0.830740 -0.884723 0.000000 
0.947766 -0.353188 0.000000 
-0.767426 -0.159009 0.000000 
0.706801 -0.128884 0.000000 
-0.843737 0.177553 0.000000 
0.661315 0.334789 0.000000 