# vtk DataFile Version 3.0 
vtk output 
ASCII 
DATASET UNSTRUCTURED_GRID 
POINTS 616 float 
0.284948 0.489402 0.000000 
0.180149 0.149939 0.000000 
0.489093 0.327431 0.000000 
0.115707 0.356079 0.000000 
0.394574 0.133909 0.000000 
0.340466 0.482535 0.000000 
0.180195 0.448364 0.000000 
0.284897 0.108869 0.000000 
0.437484 0.427390 0.000000 
0.115069 0.242655 0.000000 
0.471100 0.216358 0.000000 
0.229381 0.478088 0.000000 
0.230444 0.123588 0.000000 
0.470955 0.381915 0.000000 
0.108334 0.299155 0.000000 
0.439683 0.168238 0.000000 
0.141511 0.406676 0.000000 
0.341624 0.113129 0.000000 
0.395567 0.465559 0.000000 
0.140189 0.190449 0.000000 
0.487830 0.270720 0.000000 
0.256730 0.485176 0.000000 
0.202825 0.132931 0.000000 
0.479114 0.354437 0.000000 
0.112728 0.327072 0.000000 
0.418138 0.149974 0.000000 
0.313094 0.490608 0.000000 
0.157840 0.429945 0.000000 
0.313283 0.107133 0.000000 
0.417152 0.447282 0.000000 
0.127210 0.216353 0.000000 
0.483234 0.242658 0.000000 
0.205248 0.462379 0.000000 
0.256687 0.113112 0.000000 
0.457638 0.407464 0.000000 
0.110460 0.270715 0.000000 
0.454606 0.192866 0.000000 
0.127250 0.381973 0.000000 
0.369759 0.120027 0.000000 
0.368910 0.476705 0.000000 
0.159242 0.169339 0.000000 
0.489939 0.299165 0.000000 
0.272054 0.479113 0.000000 
0.274653 0.461633 0.000000 
0.261786 0.451415 0.000000 
0.289930 0.455634 0.000000 
0.247896 0.458097 0.000000 
0.245440 0.474378 0.000000 
0.233333 0.449756 0.000000 
0.221593 0.462404 0.000000 
0.263273 0.434364 0.000000 
0.293460 0.438892 0.000000 
0.301196 0.466058 0.000000 
0.317140 0.462137 0.000000 
0.298812 0.482345 0.000000 
0.324709 0.477689 0.000000 
0.249279 0.424247 0.000000 
0.279670 0.427840 0.000000 
0.308152 0.434747 0.000000 
0.141533 0.390190 0.000000 
0.156826 0.381345 0.000000 
0.156802 0.364913 0.000000 
0.171038 0.389573 0.000000 
0.142867 0.358116 0.000000 
0.128607 0.366333 0.000000 
0.140036 0.341105 0.000000 
0.122837 0.339796 0.000000 
0.171065 0.355463 0.000000 
0.186340 0.381923 0.000000 
0.169645 0.405388 0.000000 
0.181370 0.418023 0.000000 
0.155410 0.413647 0.000000 
0.173911 0.433584 0.000000 
0.170251 0.338201 0.000000 
0.186390 0.364246 0.000000 
0.198929 0.393641 0.000000 
0.198116 0.447516 0.000000 
0.205815 0.428637 0.000000 
0.421838 0.431419 0.000000 
0.410093 0.418751 0.000000 
0.394266 0.422602 0.000000 
0.414976 0.403102 0.000000 
0.391166 0.438317 0.000000 
0.402458 0.450484 0.000000 
0.376398 0.447095 0.000000 
0.379133 0.464315 0.000000 
0.381856 0.410792 0.000000 
0.404184 0.389915 0.000000 
0.430894 0.401175 0.000000 
0.440794 0.387131 0.000000 
0.441928 0.413063 0.000000 
0.457792 0.391156 0.000000 
0.365366 0.415583 0.000000 
0.387011 0.393878 0.000000 
0.412948 0.375173 0.000000 
0.119895 0.312226 0.000000 
0.150641 0.311940 0.000000 
0.175315 0.165696 0.000000 
0.187329 0.178647 0.000000 
0.203337 0.174972 0.000000 
0.182469 0.194337 0.000000 
0.206868 0.159871 0.000000 
0.195694 0.147789 0.000000 
0.222823 0.153333 0.000000 
0.220282 0.136270 0.000000 
0.215713 0.186780 0.000000 
0.193318 0.207559 0.000000 
0.166750 0.196495 0.000000 
0.157040 0.210742 0.000000 
0.155537 0.184448 0.000000 
0.140215 0.206934 0.000000 
0.232358 0.182152 0.000000 
0.210553 0.203676 0.000000 
0.187463 0.223811 0.000000 
0.401699 0.148765 0.000000 
0.391740 0.163355 0.000000 
0.398882 0.178141 0.000000 
0.375356 0.162105 0.000000 
0.414310 0.178174 0.000000 
0.423607 0.164595 0.000000 
0.423807 0.192012 0.000000 
0.439885 0.185737 0.000000 
0.390112 0.192828 0.000000 
0.364868 0.175622 0.000000 
0.369761 0.147262 0.000000 
0.353713 0.140963 0.000000 
0.379019 0.133655 0.000000 
0.353693 0.123716 0.000000 
0.398323 0.208015 0.000000 
0.372481 0.191559 0.000000 
0.347718 0.173522 0.000000 
0.480638 0.285544 0.000000 
0.463008 0.286829 0.000000 
0.455881 0.301612 0.000000 
0.453776 0.273239 0.000000 
0.465460 0.313698 0.000000 
0.481895 0.312543 0.000000 
0.460520 0.329715 0.000000 
0.475493 0.338447 0.000000 
0.438913 0.303882 0.000000 
0.436656 0.273450 0.000000 
0.461911 0.259624 0.000000 
0.456841 0.243155 0.000000 
0.478335 0.258392 0.000000 
0.470333 0.232393 0.000000 
0.432089 0.319704 0.000000 
0.428923 0.289311 0.000000 
0.430405 0.257440 0.000000 
0.454579 0.209341 0.000000 
0.439426 0.222981 0.000000 
0.246509 0.127283 0.000000 
0.255022 0.158354 0.000000 
0.326149 0.117428 0.000000 
0.318630 0.132953 0.000000 
0.117635 0.285550 0.000000 
0.133809 0.287986 0.000000 
0.143041 0.274400 0.000000 
0.136065 0.304693 0.000000 
0.136361 0.259644 0.000000 
0.119954 0.258395 0.000000 
0.141438 0.243169 0.000000 
0.127965 0.232394 0.000000 
0.160144 0.274633 0.000000 
0.171257 0.257491 0.000000 
0.165486 0.295464 0.000000 
0.272020 0.119158 0.000000 
0.274646 0.136622 0.000000 
0.289942 0.142604 0.000000 
0.258854 0.142533 0.000000 
0.301437 0.131661 0.000000 
0.299018 0.115390 0.000000 
0.324904 0.149767 0.000000 
0.291943 0.161048 0.000000 
0.309710 0.166918 0.000000 
0.272814 0.170887 0.000000 
0.466117 0.364580 0.000000 
0.445865 0.361078 0.000000 
0.351574 0.470372 0.000000 
0.348439 0.447088 0.000000 
0.233229 0.432958 0.000000 
0.363019 0.436178 0.000000 
0.416591 0.207168 0.000000 
0.153157 0.330640 0.000000 
0.235937 0.163805 0.000000 
0.444102 0.333442 0.000000 
0.311523 0.417757 0.000000 
0.401913 0.361976 0.000000 
0.337252 0.187304 0.000000 
0.214315 0.385732 0.000000 
0.198580 0.237071 0.000000 
0.413090 0.257839 0.000000 
0.250968 0.407013 0.000000 
0.353013 0.403566 0.000000 
0.389282 0.222762 0.000000 
0.184777 0.328794 0.000000 
0.244751 0.194227 0.000000 
0.414868 0.321785 0.000000 
0.320558 0.447554 0.000000 
0.433689 0.374373 0.000000 
0.342158 0.153707 0.000000 
0.195354 0.413927 0.000000 
0.166904 0.224835 0.000000 
0.442454 0.240759 0.000000 
0.300164 0.404898 0.000000 
0.215629 0.234042 0.000000 
0.393262 0.240094 0.000000 
0.379076 0.252860 0.000000 
0.379079 0.269162 0.000000 
0.364943 0.244685 0.000000 
0.397507 0.273289 0.000000 
0.364858 0.278665 0.000000 
0.349576 0.252198 0.000000 
0.370602 0.226707 0.000000 
0.365734 0.295881 0.000000 
0.349487 0.269875 0.000000 
0.335093 0.242808 0.000000 
0.381536 0.307835 0.000000 
0.351214 0.305336 0.000000 
0.319618 0.250595 0.000000 
0.332652 0.223162 0.000000 
0.282990 0.410825 0.000000 
0.304514 0.388223 0.000000 
0.221747 0.216900 0.000000 
0.335757 0.297519 0.000000 
0.289830 0.378321 0.000000 
0.322360 0.387593 0.000000 
0.335327 0.403748 0.000000 
0.321214 0.306968 0.000000 
0.334903 0.279273 0.000000 
0.270782 0.384273 0.000000 
0.322140 0.324261 0.000000 
0.305767 0.299153 0.000000 
0.337578 0.332065 0.000000 
0.307643 0.333764 0.000000 
0.291266 0.308640 0.000000 
0.304920 0.279815 0.000000 
0.352108 0.322590 0.000000 
0.308686 0.352244 0.000000 
0.292212 0.325953 0.000000 
0.277732 0.335459 0.000000 
0.276299 0.352619 0.000000 
0.291826 0.361598 0.000000 
0.255792 0.363330 0.000000 
0.262300 0.327646 0.000000 
0.243844 0.337139 0.000000 
0.261351 0.310334 0.000000 
0.238769 0.355662 0.000000 
0.218260 0.365329 0.000000 
0.222537 0.328619 0.000000 
0.245924 0.302532 0.000000 
0.275843 0.300841 0.000000 
0.225561 0.311321 0.000000 
0.244990 0.285243 0.000000 
0.274918 0.283561 0.000000 
0.228091 0.271007 0.000000 
0.259489 0.275760 0.000000 
0.258559 0.258475 0.000000 
0.244790 0.246719 0.000000 
0.249151 0.226173 0.000000 
0.273067 0.249000 0.000000 
0.267452 0.229015 0.000000 
0.288571 0.254740 0.000000 
0.304103 0.243753 0.000000 
0.343936 0.208538 0.000000 
0.239844 0.393105 0.000000 
0.252270 0.378261 0.000000 
0.266122 0.188413 0.000000 
0.382150 0.363707 0.000000 
0.375959 0.380794 0.000000 
0.368764 0.351381 0.000000 
0.351194 0.356931 0.000000 
0.347102 0.374172 0.000000 
0.328674 0.375880 0.000000 
0.322780 0.359197 0.000000 
0.337170 0.348517 0.000000 
0.182526 0.304754 0.000000 
0.403650 0.335598 0.000000 
0.384158 0.328180 0.000000 
0.289493 0.272016 0.000000 
0.328855 0.417250 0.000000 
0.334722 0.437618 0.000000 
0.190047 0.254804 0.000000 
0.228819 0.249766 0.000000 
0.319517 0.269383 0.000000 
0.316498 0.184640 0.000000 
0.268286 0.400111 0.000000 
0.239299 0.212078 0.000000 
0.412621 0.348228 0.000000 
0.435874 0.348186 0.000000 
0.408847 0.240942 0.000000 
0.423135 0.222764 0.000000 
0.202127 0.337375 0.000000 
0.225475 0.399127 0.000000 
0.220555 0.421742 0.000000 
0.358480 0.385710 0.000000 
0.399884 0.305422 0.000000 
0.369276 0.333499 0.000000 
0.362014 0.210691 0.000000 
0.202926 0.355565 0.000000 
0.407094 0.288742 0.000000 
0.315188 0.215601 0.000000 
0.302112 0.228405 0.000000 
0.305714 0.198309 0.000000 
0.280965 0.219407 0.000000 
0.159231 0.240782 0.000000 
0.282500 0.200051 0.000000 
0.213177 0.288151 0.000000 
0.195974 0.281236 0.000000 
0.686566 0.891126 0.000000 
0.582842 0.552702 0.000000 
0.890818 0.729071 0.000000 
0.517382 0.757744 0.000000 
0.796235 0.535569 0.000000 
0.742098 0.884293 0.000000 
0.581860 0.850019 0.000000 
0.686531 0.510609 0.000000 
0.840767 0.830671 0.000000 
0.516803 0.644289 0.000000 
0.872743 0.618026 0.000000 
0.631031 0.879755 0.000000 
0.632124 0.525376 0.000000 
0.872796 0.783651 0.000000 
0.510064 0.700835 0.000000 
0.841341 0.569902 0.000000 
0.543169 0.808328 0.000000 
0.743272 0.514824 0.000000 
0.797388 0.867499 0.000000 
0.542363 0.592536 0.000000 
0.889518 0.672387 0.000000 
0.658366 0.886870 0.000000 
0.604629 0.534841 0.000000 
0.880871 0.756100 0.000000 
0.514431 0.728748 0.000000 
0.819800 0.551637 0.000000 
0.714711 0.892356 0.000000 
0.559506 0.831600 0.000000 
0.714915 0.508854 0.000000 
0.819861 0.850073 0.000000 
0.529048 0.618090 0.000000 
0.884895 0.644325 0.000000 
0.606908 0.864033 0.000000 
0.658300 0.514838 0.000000 
0.859820 0.809558 0.000000 
0.512196 0.672373 0.000000 
0.856252 0.594530 0.000000 
0.528907 0.783633 0.000000 
0.771417 0.521698 0.000000 
0.770580 0.878502 0.000000 
0.562517 0.572602 0.000000 
0.891658 0.700834 0.000000 
0.673703 0.880832 0.000000 
0.676348 0.863372 0.000000 
0.663499 0.853147 0.000000 
[...]
POINT_DATA 616 
VECTORS X_GC float 
0.284948 0.489402 0.000000 
0.180149 0.149939 0.000000 
0.489093 0.327431 0.000000 
0.115707 0.356079 0.000000 
0.394574 0.133909 0.000000 
0.340466 0.482535 0.000000 
0.180195 0.448364 0.000000 
0.284897 0.108869 0.000000 
0.437484 0.427390 0.000000 
0.115069 0.242655 0.000000 
0.471100 0.216358 0.000000 
0.229381 0.478088 0.000000 
0.230444 0.123588 0.000000 
0.470955 0.381915 0.000000 
0.108334 0.299155 0.000000 
0.439683 0.168238 0.000000 
0.141511 0.406676 0.000000 
0.341624 0.113129 0.000000 
0.395567 0.465559 0.000000 
0.140189 0.190449 0.000000 
0.487830 0.270720 0.000000 
0.256730 0.485176 0.000000 
0.202825 0.132931 0.000000 
0.479114 0.354437 0.000000 
0.112728 0.327072 0.000000 
0.418138 0.149974 0.000000 
0.313094 0.490608 0.000000 
0.157840 0.429945 0.000000 
0.313283 0.107133 0.000000 
0.417152 0.447282 0.000000 
0.127210 0.216353 0.000000 
0.483234 0.242658 0.000000 
0.205248 0.462379 0.000000 
0.256687 0.113112 0.000000 
0.457638 0.407464 0.000000 
0.110460 0.270715 0.000000 
0.454606 0.192866 0.000000 
0.127250 0.381973 0.000000 
0.369759 0.120027 0.000000 
0.368910 0.476705 0.000000 
0.159242 0.169339 0.000000 
0.489939 0.299165 0.000000 
0.272054 0.479113 0.000000 
0.274653 0.461633 0.000000 
0.261786 0.451415 0.000000 
0.289930 0.455634 0.000000 
0.247896 0.458097 0.000000 
0.245440 0.474378 0.000000 
0.233333 0.449756 0.000000 
0.221593 0.462404 0.000000 
0.263273 0.434364 0.000000 
0.293460 0.438892 0.000000 
0.301196 0.466058 0.000000 
0.317140 0.462137 0.000000 
0.298812 0.482345 0.000000 
0.324709 0.477689 0.000000 
0.249279 0.424247 0.000000 
0.279670 0.427840 0.000000 
0.308152 0.434747 0.000000 
0.141533 0.390190 0.000000 
0.156826 0.381345 0.000000 
0.156802 0.364913 0.000000 
0.171038 0.389573 0.000000 
0.142867 0.358116 0.000000 
0.128607 0.366333 0.000000 
0.140036 0.341105 0.000000 
0.122837 0.339796 0.000000 
0.171065 0.355463 0.000000 
0.186340 0.381923 0.000000 
0.169645 0.405388 0.000000 
0.181370 0.418023 0.000000 
0.155410 0.413647 0.000000 
0.173911 0.433584 0.000000 
0.170251 0.338201 0.000000 
0.186390 0.364246 0.000000 
0.198929 0.393641 0.000000 
0.198116 0.447516 0.000000 
0.205815 0.428637 0.000000 
0.421838 0.431419 0.000000 
0.410093 0.418751 0.000000 
0.394266 0.422602 0.000000 
0.414976 0.403102 0.000000 
0.391166 0.438317 0.000000 
0.402458 0.450484 0.000000 
0.376398 0.447095 0.000000 
0.379133 0.464315 0.000000 
0.381856 0.410792 0.000000 
0.404184 0.389915 0.000000 
0.430894 0.401175 0.000000 
0.440794 0.387131 0.000000 
0.441928 0.413063 0.000000 
0.457792 0.391156 0.000000 
0.365366 0.415583 0.000000 
0.387011 0.393878 0.000000 
0.412948 0.375173 0.000000 
0.119895 0.312226 0.000000 
0.150641 0.311940 0.000000 
0.175315 0.165696 0.000000 
0.187329 0.178647 0.000000 
0.203337 0.174972 0.000000 
0.182469 0.194337 0.000000 
0.206868 0.159871 0.000000 
0.195694 0.147789 0.000000 
0.222823 0.153333 0.000000 
0.220282 0.136270 0.000000 
0.215713 0.186780 0.000000 
0.193318 0.207559 0.000000 
0.166750 0.196495 0.000000 
0.157040 0.210742 0.000000 
0.155537 0.184448 0.000000 
0.140215 0.206934 0.000000 
0.232358 0.182152 0.000000 
0.210553 0.203676 0.000000 
0.187463 0.223811 0.000000 
0.401699 0.148765 0.000000 
0.391740 0.163355 0.000000 
0.398882 0.178141 0.000000 
0.375356 0.162105 0.000000 
0.414310 0.178174 0.000000 
0.423607 0.164595 0.000000 
0.423807 0.192012 0.000000 
0.439885 0.185737 0.000000 
0.390112 0.192828 0.000000 
0.364868 0.175622 0.000000 
0.369761 0.147262 0.000000 
0.353713 0.140963 0.000000 
0.379019 0.133655 0.000000 
0.353693 0.123716 0.000000 
0.398323 0.208015 0.000000 
0.372481 0.191559 0.000000 
0.347718 0.173522 0.000000 
0.480638 0.285544 0.000000 
0.463008 0.286829 0.000000 
0.455881 0.301612 0.000000 
0.453776 0.273239 0.000000 
0.465460 0.313698 0.000000 
0.481895 0.312543 0.000000 
0.460520 0.329715 0.000000 
0.475493 0.338447 0.000000 
0.438913 0.303882 0.000000 
0.436656 0.273450 0.000000 
0.461911 0.259624 0.000000 
0.456841 0.243155 0.000000 
0.478335 0.258392 0.000000 
0.470333 0.232393 0.000000 
0.432089 0.319704 0.000000 
0.428923 0.289311 0.000000 
0.430405 0.257440 0.000000 
0.454579 0.209341 0.000000 
0.439426 0.222981 0.000000 
0.246509 0.127283 0.000000 
0.255022 0.158354 0.000000 
0.326149 0.117428 0.000000 
0.318630 0.132953 0.000000 
0.117635 0.285550 0.000000 
0.133809 0.287986 0.000000 
0.143041 0.274400 0.000000 
0.136065 0.304693 0.000000 
0.136361 0.259644 0.000000 
0.119954 0.258395 0.000000 
0.141438 0.243169 0.000000 
0.127965 0.232394 0.000000 
0.160144 0.274633 0.000000 
0.171257 0.257491 0.000000 
0.165486 0.295464 0.000000 
0.272020 0.119158 0.000000 
0.274646 0.136622 0.000000 
0.289942 0.142604 0.000000 
0.258854 0.142533 0.000000 
0.301437 0.131661 0.000000 
0.299018 0.115390 0.000000 
0.324904 0.149767 0.000000 
0.291943 0.161048 0.000000 
0.309710 0.166918 0.000000 
0.272814 0.170887 0.000000 
0.466117 0.364580 0.000000 
0.445865 0.361078 0.000000 
0.351574 0.470372 0.000000 
0.348439 0.447088 0.000000 
0.233229 0.432958 0.000000 
0.363019 0.436178 0.000000 
0.416591 0.207168 0.000000 
0.153157 0.330640 0.000000 
0.235937 0.163805 0.000000 
0.444102 0.333442 0.000000 
0.311523 0.417757 0.000000 
0.401913 0.361976 0.000000 
0.337252 0.187304 0.000000 
0.214315 0.385732 0.000000 
0.198580 0.237071 0.000000 
0.413090 0.257839 0.000000 
0.250968 0.407013 0.000000 
0.353013 0.403566 0.000000 
0.389282 0.222762 0.000000 
0.184777 0.328794 0.000000 
0.244751 0.194227 0.000000 
0.414868 0.321785 0.000000 
0.320558 0.447554 0.000000 
0.433689 0.374373 0.000000 
0.342158 0.153707 0.000000 
0.195354 0.413927 0.000000 
0.166904 0.224835 0.000000 
0.442454 0.240759 0.000000 
0.300164 0.404898 0.000000 
0.215629 0.234042 0.000000 
0.393262 0.240094 0.000000 
0.379076 0.252860 0.000000 
0.379079 0.269162 0.000000 
0.364943 0.244685 0.000000 
0.397507 0.273289 0.000000 
0.364858 0.278665 0.000000 
0.349576 0.252198 0.000000 
0.370602 0.226707 0.000000 
0.365734 0.295881 0.000000 
0.349487 0.269875 0.000000 
0.335093 0.242808 0.000000 
0.381536 0.307835 0.000000 
0.351214 0.305336 0.000000 
0.319618 0.250595 0.000000 
0.332652 0.223162 0.000000 
0.282990 0.410825 0.000000 
0.304514 0.388223 0.000000 
0.221747 0.216900 0.000000 
0.335757 0.297519 0.000000 
0.289830 0.378321 0.000000 
0.322360 0.387593 0.000000 
0.335327 0.403748 0.000000 
0.321214 0.306968 0.000000 
0.334903 0.279273 0.000000 
0.270782 0.384273 0.000000 
0.322140 0.324261 0.000000 
0.305767 0.299153 0.000000 
0.337578 0.332065 0.000000 
0.307643 0.333764 0.000000 
0.291266 0.308640 0.000000 
0.304920 0.279815 0.000000 
0.352108 0.322590 0.000000 
0.308686 0.352244 0.000000 
0.292212 0.325953 0.000000 
0.277732 0.335459 0.000000 
0.276299 0.352619 0.000000 
0.291826 0.361598 0.000000 
0.255792 0.363330 0.000000 
0.262300 0.327646 0.000000 
0.243844 0.337139 0.000000 
0.261351 0.310334 0.000000 
0.238769 0.355662 0.000000 
0.218260 0.365329 0.000000 
0.222537 0.328619 0.000000 
0.245924 0.302532 0.000000 
0.275843 0.300841 0.000000 
0.225561 0.311321 0.000000 
0.244990 0.285243 0.000000 
0.274918 0.283561 0.000000 
0.228091 0.271007 0.000000 
0.259489 0.275760 0.000000 
0.258559 0.258475 0.000000 
0.244790 0.246719 0.000000 
0.249151 0.226173 0.000000 
0.273067 0.249000 0.000000 
0.267452 0.229015 0.000000 
0.288571 0.254740 0.000000 
0.304103 0.243753 0.000000 
0.343936 0.208538 0.000000 
0.239844 0.393105 0.000000 
0.252270 0.378261 0.000000 
0.266122 0.188413 0.000000 
0.382150 0.363707 0.000000 
0.375959 0.380794 0.000000 
0.368764 0.351381 0.000000 
0.351194 0.356931 0.000000 
0.347102 0.374172 0.000000 
0.328674 0.375880 0.000000 
0.322780 0.359197 0.000000 
0.337170 0.348517 0.000000 
0.182526 0.304754 0.000000 
0.403650 0.335598 0.000000 
0.384158 0.328180 0.000000 
0.289493 0.272016 0.000000 
0.328855 0.417250 0.000000 
0.334722 0.437618 0.000000 
0.190047 0.254804 0.000000 
0.228819 0.249766 0.000000 
0.319517 0.269383 0.000000 
0.316498 0.184640 0.000000 
0.268286 0.400111 0.000000 
0.239299 0.212078 0.000000 
0.412621 0.348228 0.000000 
0.435874 0.348186 0.000000 
0.408847 0.240942 0.000000 
0.423135 0.222764 0.000000 
0.202127 0.337375 0.000000 
0.225475 0.399127 0.000000 
0.220555 0.421742 0.000000 
0.358480 0.385710 0.000000 
0.399884 0.305422 0.000000 
0.369276 0.333499 0.000000 
0.362014 0.210691 0.000000 
0.202926 0.355565 0.000000 
0.407094 0.288742 0.000000 
0.315188 0.215601 0.000000 
0.302112 0.228405 0.000000 
0.305714 0.198309 0.000000 
0.280965 0.219407 0.000000 
0.159231 0.240782 0.000000 
0.282500 0.200051 0.000000 
0.213177 0.288151 0.000000 
0.195974 0.281236 0.000000 
0.686566 0.891126 0.000000 
0.582842 0.552702 0.000000 
0.890818 0.729071 0.000000 
0.517382 0.757744 0.000000 
0.796235 0.535569 0.000000 
0.742098 0.884293 0.000000 
0.581860 0.850019 0.000000 
0.686531 0.510609 0.000000 
0.840767 0.830671 0.000000 
0.516803 0.644289 0.000000 
0.872743 0.618026 0.000000 
0.631031 0.879755 0.000000 
0.632124 0.525376 0.000000 
0.872796 0.783651 0.000000 
0.510064 0.700835 0.000000 
0.841341 0.569902 0.000000 
0.543169 0.808328 0.000000 
0.743272 0.514824 0.000000 
0.797388 0.867499 0.000000 
0.542363 0.592536 0.000000 
0.889518 0.672387 0.000000 
0.658366 0.886870 0.000000 
0.604629 0.534841 0.000000 
0.880871 0.756100 0.000000 
0.514431 0.728748 0.000000 
0.819800 0.551637 0.000000 
0.714711 0.892356 0.000000 
0.559506 0.831600 0.000000 
0.714915 0.508854 0.000000 
0.819861 0.850073 0.000000 
0.529048 0.618090 0.000000 
0.884895 0.644325 0.000000 
0.606908 0.864033 0.000000 
0.658300 0.514838 0.000000 
0.859820 0.809558 0.000000 
0.512196 0.672373 0.000000 
0.856252 0.594530 0.000000 
0.528907 0.783633 0.000000 
0.771417 0.521698 0.000000 
0.770580 0.878502 0.000000 
0.562517 0.572602 0.000000 
0.891658 0.700834 0.000000 
0.673703 0.880832 0.000000 
0.676348 0.863372 0.000000 
0.663499 0.853147 0.000000 
0.691652 0.857399 0.000000 
0.649586 0.859806 0.000000 
0.647097 0.876068 0.000000 
0.635026 0.851454 0.000000 
0.623262 0.864076 0.000000 
0.665028 0.836115 0.000000 
0.695239 0.840678 0.000000 
0.702891 0.867823 0.000000 
0.718876 0.863937 0.000000 
0.700450 0.884092 0.000000 
0.726379 0.879466 0.000000 
0.651037 0.825989 0.000000 
0.681464 0.829620 0.000000 
0.709970 0.836560 0.000000 
0.543196 0.791853 0.000000 
0.558513 0.783033 0.000000 
0.558509 0.766623 0.000000 
0.572729 0.791259 0.000000 
0.544567 0.759817 0.000000 
0.530283 0.768007 0.000000 
0.541752 0.742820 0.000000 
0.524537 0.741483 0.000000 
0.572797 0.757207 0.000000 
0.588056 0.783637 0.000000 
0.571323 0.807057 0.000000 
0.583050 0.819693 0.000000 
0.557076 0.815303 0.000000 
0.575581 0.835243 0.000000 
0.572002 0.739975 0.000000 
0.588128 0.765996 0.000000 
0.600641 0.795344 0.000000 
0.599785 0.849176 0.000000 
0.607504 0.830316 0.000000 
0.824694 0.834315 0.000000 
0.812679 0.821366 0.000000 
0.796671 0.825042 0.000000 
0.817539 0.805676 0.000000 
0.793344 0.840558 0.000000 
0.804519 0.852640 0.000000 
0.778407 0.849174 0.000000 
0.780948 0.866237 0.000000 
0.784295 0.813234 0.000000 
0.806689 0.792454 0.000000 
0.833259 0.803516 0.000000 
0.842967 0.789266 0.000000 
0.844472 0.815561 0.000000 
0.859791 0.793073 0.000000 
0.767648 0.817861 0.000000 
0.789455 0.796338 0.000000 
0.815305 0.777565 0.000000 
0.521622 0.713926 0.000000 
0.552402 0.713713 0.000000 
0.578156 0.568569 0.000000 
0.589893 0.581233 0.000000 
0.605717 0.577380 0.000000 
0.585008 0.596883 0.000000 
0.609027 0.562084 0.000000 
0.597734 0.549914 0.000000 
0.624839 0.555403 0.000000 
0.622108 0.538185 0.000000 
0.618126 0.589193 0.000000 
0.595799 0.610068 0.000000 
0.569095 0.598817 0.000000 
0.559200 0.612864 0.000000 
0.558069 0.586932 0.000000 
0.542207 0.608845 0.000000 
0.634620 0.584406 0.000000 
0.612971 0.606106 0.000000 
0.589805 0.626186 0.000000 
0.803365 0.550433 0.000000 
0.793419 0.565039 0.000000 
0.800563 0.579830 0.000000 
0.777055 0.563807 0.000000 
0.815981 0.579853 0.000000 
0.825270 0.566263 0.000000 
0.825476 0.593693 0.000000 
0.841541 0.587406 0.000000 
0.791814 0.594537 0.000000 
0.766597 0.577348 0.000000 
0.771450 0.548956 0.000000 
0.755405 0.542670 0.000000 
0.780687 0.535327 0.000000 
0.755359 0.525407 0.000000 
0.800028 0.609734 0.000000 
0.774216 0.593291 0.000000 
0.749471 0.575267 0.000000 
0.882351 0.687233 0.000000 
0.864741 0.688563 0.000000 
0.857639 0.703378 0.000000 
0.855503 0.674982 0.000000 
0.867232 0.715449 0.000000 
0.883641 0.714235 0.000000 
0.862337 0.731508 0.000000 
0.877265 0.740151 0.000000 
0.840693 0.705700 0.000000 
0.838402 0.675231 0.000000 
0.863614 0.661338 0.000000 
0.858529 0.644862 0.000000 
0.880018 0.660073 0.000000 
0.871995 0.634073 0.000000 
0.833942 0.721602 0.000000 
0.830696 0.691136 0.000000 
0.832138 0.659209 0.000000 
0.856231 0.611017 0.000000 
0.841108 0.624686 0.000000 
0.648223 0.529089 0.000000 
0.656958 0.560311 0.000000 
0.727806 0.519143 0.000000 
0.720327 0.534692 0.000000 
0.519392 0.687256 0.000000 
0.535584 0.689741 0.000000 
0.544864 0.676210 0.000000 
0.537819 0.706439 0.000000 
0.538198 0.661442 0.000000 
0.521719 0.660087 0.000000 
0.543343 0.645029 0.000000 
0.529794 0.634140 0.000000 
0.562009 0.676517 0.000000 
0.573261 0.659523 0.000000 
0.567281 0.697296 0.000000 
0.673687 0.520918 0.000000 
0.676397 0.538427 0.000000 
0.691689 0.544385 0.000000 
0.660668 0.544398 0.000000 
0.703138 0.533418 0.000000 
0.700671 0.517133 0.000000 
0.726637 0.551516 0.000000 
0.693746 0.562845 0.000000 
0.711504 0.568701 0.000000 
0.674737 0.572791 0.000000 
0.867977 0.766364 0.000000 
0.847869 0.763058 0.000000 
0.753299 0.872202 0.000000 
0.750350 0.849049 0.000000 
0.634948 0.834670 0.000000 
0.765089 0.838285 0.000000 
0.818277 0.608870 0.000000 
0.554900 0.732393 0.000000 
0.638006 0.565899 0.000000 
0.845993 0.735339 0.000000 
0.713419 0.819608 0.000000 
0.804186 0.764304 0.000000 
0.739049 0.589077 0.000000 
0.616065 0.787473 0.000000 
0.600823 0.639357 0.000000 
0.814844 0.659643 0.000000 
0.652764 0.808778 0.000000 
0.755256 0.805786 0.000000 
0.791023 0.624523 0.000000 
0.586557 0.730613 0.000000 
0.646974 0.596425 0.000000 
0.816777 0.723771 0.000000 
0.722368 0.849396 0.000000 
0.835863 0.776538 0.000000 
0.743882 0.555440 0.000000 
0.597045 0.815607 0.000000 
0.569083 0.627010 0.000000 
0.844155 0.642484 0.000000 
0.702064 0.806736 0.000000 
0.617842 0.636282 0.000000 
0.795022 0.641888 0.000000 
0.780888 0.654705 0.000000 
0.780917 0.671045 0.000000 
0.766776 0.646539 0.000000 
0.799309 0.675151 0.000000 
0.766752 0.680600 0.000000 
0.751462 0.654100 0.000000 
0.772390 0.628508 0.000000 
0.767651 0.697851 0.000000 
0.751408 0.671823 0.000000 
0.736996 0.644714 0.000000 
0.783432 0.709802 0.000000 
0.753183 0.707351 0.000000 
0.721577 0.652552 0.000000 
0.734519 0.625018 0.000000 
0.684840 0.812631 0.000000 
0.706453 0.790110 0.000000 
0.624029 0.619194 0.000000 
0.737760 0.699556 0.000000 
0.691756 0.780212 0.000000 
0.724383 0.789575 0.000000 
0.737440 0.805819 0.000000 
0.723264 0.709041 0.000000 
0.736884 0.681277 0.000000 
0.672655 0.786116 0.000000 
0.724189 0.726321 0.000000 
0.707844 0.701246 0.000000 
0.739619 0.734125 0.000000 
0.709683 0.735798 0.000000 
0.693338 0.710724 0.000000 
0.706976 0.681880 0.000000 
0.754117 0.724639 0.000000 
0.710696 0.754233 0.000000 
0.694254 0.727996 0.000000 
0.679723 0.737450 0.000000 
0.678251 0.754559 0.000000 
0.693792 0.763540 0.000000 
0.657673 0.765200 0.000000 
0.664267 0.729625 0.000000 
0.645745 0.739052 0.000000 
0.663348 0.712355 0.000000 
0.640623 0.757519 0.000000 
0.620049 0.767123 0.000000 
0.624397 0.730507 0.000000 
0.647887 0.704531 0.000000 
0.677889 0.702908 0.000000 
0.627457 0.713256 0.000000 
0.646974 0.687266 0.000000 
0.676968 0.685629 0.000000 
0.630099 0.673056 0.000000 
0.661516 0.677810 0.000000 
0.660606 0.660534 0.000000 
0.646876 0.648819 0.000000 
0.651275 0.628292 0.000000 
0.675102 0.651030 0.000000 
0.669501 0.631047 0.000000 
0.690592 0.656750 0.000000 
0.706080 0.645714 0.000000 
0.745752 0.610339 0.000000 
0.641636 0.794874 0.000000 
0.654114 0.780087 0.000000 
0.668176 0.590424 0.000000 
0.784377 0.765968 0.000000 
0.778260 0.783112 0.000000 
0.770888 0.753537 0.000000 
0.753301 0.759048 0.000000 
0.749238 0.776302 0.000000 
0.730730 0.777910 0.000000 
0.724815 0.761215 0.000000 
0.739231 0.750583 0.000000 
0.584331 0.706615 0.000000 
0.805703 0.737727 0.000000 
0.786163 0.730247 0.000000 
0.691544 0.674069 0.000000 
0.730864 0.819225 0.000000 
0.736644 0.839559 0.000000 
0.592150 0.656962 0.000000 
0.630922 0.651895 0.000000 
0.721519 0.671394 0.000000 
0.718329 0.586436 0.000000 
0.670132 0.801914 0.000000 
0.641508 0.614281 0.000000 
0.814755 0.750422 0.000000 
0.837880 0.750202 0.000000 
0.810585 0.642718 0.000000 
0.824833 0.624486 0.000000 
0.603926 0.739205 0.000000 
0.627231 0.800863 0.000000 
0.622272 0.823448 0.000000 
0.760709 0.787934 0.000000 
0.801730 0.707356 0.000000 
0.771316 0.735584 0.000000 
0.763794 0.612469 0.000000 
0.604700 0.757355 0.000000 
0.808897 0.690622 0.000000 
0.717078 0.617466 0.000000 
0.704058 0.630324 0.000000 
0.707596 0.600144 0.000000 
0.682954 0.621362 0.000000 
0.561263 0.642805 0.000000 
0.684463 0.601962 0.000000 
0.615081 0.690113 0.000000 
0.597884 0.683216 0.000000 
VECTORS X_EC float 
-0.788039 0.698954 0.000000 
0.001225 0.602973 0.000000 
0.451385 0.781868 0.000000 
-0.121572 -0.685858 0.000000 
0.321819 0.891474 0.000000 
-0.650695 -0.190690 0.000000 
0.032727 0.603902 0.000000 
0.822620 0.697940 0.000000 
0.452204 -0.250314 0.000000 
0.146893 -0.698613 0.000000 
0.672839 0.422008 0.000000 
-0.561756 -0.412376 0.000000 
0.528241 -0.391122 0.000000 
-0.638308 0.419096 0.000000 
-0.983107 -0.833327 0.000000 
-0.364753 -0.206342 0.000000 
0.866471 -0.169773 0.000000 
0.737421 -0.167524 0.000000 
-0.311185 0.911346 0.000000 
-0.808985 -0.196228 0.000000 
-0.414409 0.756593 0.000000 
-0.703514 0.134609 0.000000 
0.341377 -0.943501 0.000000 
-0.088743 0.582286 0.000000 
0.458562 -0.745444 0.000000 
0.000525 -0.637239 0.000000 
-0.812163 -0.738116 0.000000 
0.401103 0.156808 0.000000 
0.857347 -0.734342 0.000000 
0.054351 -0.656951 0.000000 
0.672949 -0.455806 0.000000 
0.146832 0.664686 0.000000 
-0.247580 -0.895037 0.000000 
0.737768 0.133738 0.000000 
0.850719 0.152751 0.000000 
-0.414298 -0.790810 0.000000 
-0.857325 0.092129 0.000000 
-0.639470 -0.455003 0.000000 
0.599456 0.395180 0.000000 
-0.534094 0.378204 0.000000 
-0.386781 0.184838 0.000000 
-0.983310 0.798771 0.000000 
-0.582267 0.441086 0.000000 
-0.232670 0.493052 0.000000 
-0.028294 0.235723 0.000000 
-0.112688 0.798592 0.000000 
-0.161937 -0.042076 0.000000 
-0.487559 -0.091206 0.000000 
0.004871 -0.333344 0.000000 
-0.248081 -0.568134 0.000000 
0.312725 0.265469 0.000000 
0.222156 0.869196 0.000000 
-0.321151 -0.976077 0.000000 
-0.242740 -0.657205 0.000000 
-0.646905 0.976233 0.000000 
-0.553785 -0.505815 0.000000 
0.515056 -0.014417 0.000000 
0.443192 0.593395 0.000000 
0.305061 -0.836970 0.000000 
-0.803791 -0.169339 0.000000 
-0.626910 0.136517 0.000000 
-0.298253 0.136049 0.000000 
-0.791455 0.420758 0.000000 
-0.162324 -0.142657 0.000000 
-0.326659 -0.427854 0.000000 
0.177906 -0.199279 0.000000 
0.204080 -0.543255 0.000000 
-0.109253 0.421298 0.000000 
-0.638467 0.726796 0.000000 
0.892231 0.392898 0.000000 
0.639534 0.627396 0.000000 
0.727069 0.108198 0.000000 
0.328324 0.478229 0.000000 
0.235971 0.405016 0.000000 
-0.284920 0.727803 0.000000 
-0.872824 0.978577 0.000000 
0.049689 0.962328 0.000000 
0.427270 -0.883699 0.000000 
0.371629 -0.563239 0.000000 
0.624985 -0.798145 0.000000 
0.547963 0.885312 0.000000 
0.937951 -0.700486 0.000000 
0.233656 0.823328 0.000000 
-0.009683 -0.950850 0.000000 
0.058105 0.527961 0.000000 
-0.286296 0.582665 0.000000 
0.784169 0.637123 0.000000 
-0.798300 -0.916328 0.000000 
0.976500 -0.382123 0.000000 
-0.742625 -0.184114 0.000000 
0.738748 -0.161432 0.000000 
-0.823121 0.155834 0.000000 
0.688349 0.307315 0.000000 