# vtk DataFile Version 3.0 
vtk output 
ASCII 
DATASET UNSTRUCTURED_GRID 
POINTS 616 float 
0.293903 0.498192 0.000000 
0.188843 0.158724 0.000000 
0.497861 0.336115 0.000000 
0.124599 0.365023 0.000000 
0.403412 0.142615 0.000000 
0.349399 0.491201 0.000000 
0.189136 0.457294 0.000000 
0.293675 0.117603 0.000000 
0.444882 0.434654 0.000000 
0.123847 0.251530 0.000000 
0.479989 0.225014 0.000000 
0.238337 0.486964 0.000000 
0.239178 0.132343 0.000000 
0.479533 0.390438 0.000000 
0.117183 0.308095 0.000000 
0.448559 0.176900 0.000000 
0.150428 0.415619 0.000000 
0.350428 0.121854 0.000000 
0.404264 0.473932 0.000000 
0.148900 0.199258 0.000000 
0.496672 0.279409 0.000000 
0.265687 0.494010 0.000000 
0.211538 0.141700 0.000000 
0.487799 0.363049 0.000000 
0.121597 0.336012 0.000000 
0.426992 0.158653 0.000000 
0.322059 0.499349 0.000000 
0.166765 0.438886 0.000000 
0.322075 0.115863 0.000000 
0.424821 0.454730 0.000000 
0.135953 0.225189 0.000000 
0.492103 0.251328 0.000000 
0.214197 0.471287 0.000000 
0.265442 0.121857 0.000000 
0.465527 0.415284 0.000000 
0.119275 0.279624 0.000000 
0.463509 0.201524 0.000000 
0.136157 0.390915 0.000000 
0.378578 0.128746 0.000000 
0.377796 0.485278 0.000000 
0.167934 0.178136 0.000000 
0.498750 0.307868 0.000000 
0.280990 0.487917 0.000000 
0.283547 0.470420 0.000000 
0.270669 0.460216 0.000000 
0.298797 0.464389 0.000000 
0.256805 0.466927 0.000000 
0.254380 0.483224 0.000000 
0.242240 0.458607 0.000000 
0.230530 0.471284 0.000000 
0.272118 0.443149 0.000000 
0.302279 0.447624 0.000000 
0.310078 0.474789 0.000000 
0.325985 0.470809 0.000000 
0.307744 0.491101 0.000000 
0.333619 0.486376 0.000000 
0.258122 0.433051 0.000000 
0.288479 0.436591 0.000000 
0.316912 0.443406 0.000000 
0.150441 0.399122 0.000000 
0.165718 0.390259 0.000000 
0.165679 0.373815 0.000000 
0.179931 0.398480 0.000000 
0.151745 0.367030 0.000000 
0.137500 0.375267 0.000000 
0.148900 0.350013 0.000000 
0.131711 0.348726 0.000000 
0.179924 0.364342 0.000000 
0.195218 0.390810 0.000000 
0.178552 0.414305 0.000000 
0.190284 0.426936 0.000000 
0.164326 0.422581 0.000000 
0.182839 0.442512 0.000000 
0.179093 0.347068 0.000000 
0.195250 0.373116 0.000000 
0.207805 0.402521 0.000000 
0.207055 0.456427 0.000000 
0.214723 0.437523 0.000000 
0.429538 0.438943 0.000000 
0.418153 0.426638 0.000000 
0.402586 0.430717 0.000000 
0.423089 0.411087 0.000000 
0.399662 0.446562 0.000000 
0.410754 0.458511 0.000000 
0.385020 0.455468 0.000000 
0.387903 0.472784 0.000000 
0.390130 0.418906 0.000000 
0.412319 0.397920 0.000000 
0.439048 0.409227 0.000000 
0.449173 0.395422 0.000000 
0.449700 0.420731 0.000000 
0.466261 0.399564 0.000000 
0.373768 0.423836 0.000000 
0.395125 0.401866 0.000000 
0.421228 0.383313 0.000000 
0.128747 0.321151 0.000000 
0.159471 0.320817 0.000000 
0.184013 0.174482 0.000000 
0.196038 0.187424 0.000000 
0.212053 0.183734 0.000000 
0.191183 0.203115 0.000000 
0.215585 0.168633 0.000000 
0.204403 0.156561 0.000000 
0.231551 0.162085 0.000000 
0.229008 0.145028 0.000000 
0.224437 0.195529 0.000000 
0.202040 0.216329 0.000000 
0.175466 0.205285 0.000000 
0.165771 0.219547 0.000000 
0.164243 0.193246 0.000000 
0.148945 0.215750 0.000000 
0.241092 0.190890 0.000000 
0.219277 0.212426 0.000000 
0.196197 0.232592 0.000000 
0.410547 0.157457 0.000000 
0.400588 0.172043 0.000000 
0.407743 0.186818 0.000000 
0.384192 0.170797 0.000000 
0.423180 0.186845 0.000000 
0.432473 0.173266 0.000000 
0.432691 0.200676 0.000000 
0.448774 0.194398 0.000000 
0.398971 0.201498 0.000000 
0.373699 0.184306 0.000000 
0.378588 0.155963 0.000000 
0.362527 0.149670 0.000000 
0.387847 0.142364 0.000000 
0.362505 0.132434 0.000000 
0.407176 0.216657 0.000000 
0.381323 0.200232 0.000000 
0.356533 0.182209 0.000000 
0.489461 0.294223 0.000000 
0.471817 0.295467 0.000000 
0.464653 0.310214 0.000000 
0.462594 0.281862 0.000000 
0.474207 0.322306 0.000000 
0.490673 0.321211 0.000000 
0.469206 0.338273 0.000000 
0.484200 0.347058 0.000000 
0.447657 0.312428 0.000000 
0.445463 0.282039 0.000000 
0.470749 0.268267 0.000000 
0.465693 0.251795 0.000000 
0.487184 0.267060 0.000000 
0.479205 0.241049 0.000000 
0.440747 0.328173 0.000000 
0.437708 0.297868 0.000000 
0.439225 0.266034 0.000000 
0.463466 0.217993 0.000000 
0.448288 0.231618 0.000000 
0.255254 0.136029 0.000000 
0.263771 0.167082 0.000000 
0.334946 0.126151 0.000000 
0.327423 0.141667 0.000000 
0.126464 0.294463 0.000000 
0.142630 0.296874 0.000000 
0.151841 0.283263 0.000000 
0.144899 0.313589 0.000000 
0.145149 0.268506 0.000000 
0.128749 0.267278 0.000000 
0.150206 0.252011 0.000000 
0.136727 0.241244 0.000000 
0.168934 0.283470 0.000000 
0.180025 0.266303 0.000000 
0.174291 0.304304 0.000000 
0.280786 0.127894 0.000000 
0.283411 0.145347 0.000000 
0.298717 0.151317 0.000000 
0.267607 0.151265 0.000000 
0.310220 0.140378 0.000000 
0.307802 0.124116 0.000000 
0.333700 0.158471 0.000000 
0.300715 0.169750 0.000000 
0.318494 0.175613 0.000000 
0.281573 0.179597 0.000000 
0.474717 0.373099 0.000000 
0.454382 0.369482 0.000000 
0.360424 0.478961 0.000000 
0.357137 0.455587 0.000000 
0.242108 0.441797 0.000000 
0.371593 0.444554 0.000000 
0.425457 0.215815 0.000000 
0.162003 0.339525 0.000000 
0.244673 0.172545 0.000000 
0.452728 0.341916 0.000000 
0.320207 0.426367 0.000000 
0.410223 0.370110 0.000000 
0.346059 0.195984 0.000000 
0.223155 0.394574 0.000000 
0.207321 0.245839 0.000000 
0.421899 0.266407 0.000000 
0.259775 0.415801 0.000000 
0.361394 0.411846 0.000000 
0.398111 0.231376 0.000000 
0.193600 0.337634 0.000000 
0.253491 0.202950 0.000000 
0.423478 0.330179 0.000000 
0.329332 0.456179 0.000000 
0.442086 0.382656 0.000000 
0.350966 0.162407 0.000000 
0.204259 0.422823 0.000000 
0.175645 0.233637 0.000000 
0.451300 0.249384 0.000000 
0.308865 0.413566 0.000000 
0.224361 0.242784 0.000000 
0.402075 0.248672 0.000000 
0.387858 0.261418 0.000000 
0.387842 0.277688 0.000000 
0.373717 0.253264 0.000000 
0.406288 0.281804 0.000000 
0.373590 0.287180 0.000000 
0.358320 0.260769 0.000000 
0.379404 0.235319 0.000000 
0.374439 0.304361 0.000000 
0.358209 0.278415 0.000000 
0.343831 0.251401 0.000000 
0.390194 0.316250 0.000000 
0.359866 0.313804 0.000000 
0.328326 0.259182 0.000000 
0.341415 0.231789 0.000000 
0.291753 0.419556 0.000000 
0.313150 0.396838 0.000000 
0.230475 0.225636 0.000000 
0.344416 0.306019 0.000000 
0.298522 0.386998 0.000000 
0.330889 0.396077 0.000000 
0.343815 0.412159 0.000000 
0.329843 0.315477 0.000000 
0.343591 0.287804 0.000000 
0.279514 0.392999 0.000000 
0.330749 0.332764 0.000000 
0.314386 0.307679 0.000000 
0.346154 0.340515 0.000000 
0.316263 0.342314 0.000000 
0.299889 0.317200 0.000000 
0.313564 0.288362 0.000000 
0.360697 0.331015 0.000000 
0.317302 0.360804 0.000000 
0.300850 0.334540 0.000000 
0.286404 0.344095 0.000000 
0.284991 0.361285 0.000000 
0.300498 0.370244 0.000000 
0.264532 0.372056 0.000000 
0.270993 0.336307 0.000000 
0.252580 0.345857 0.000000 
0.270029 0.318973 0.000000 
0.247532 0.364415 0.000000 
0.227071 0.374140 0.000000 
0.231302 0.337377 0.000000 
0.254621 0.311199 0.000000 
0.284486 0.309428 0.000000 
0.234304 0.320050 0.000000 
0.253688 0.293907 0.000000 
0.283572 0.292154 0.000000 
0.236816 0.279717 0.000000 
0.268172 0.284397 0.000000 
0.267256 0.267130 0.000000 
0.253505 0.255408 0.000000 
0.257875 0.234869 0.000000 
0.281761 0.257637 0.000000 
0.276170 0.237682 0.000000 
0.297246 0.263341 0.000000 
0.312802 0.252356 0.000000 
0.352732 0.217188 0.000000 
0.248643 0.401903 0.000000 
0.261031 0.387016 0.000000 
0.274874 0.197121 0.000000 
0.390470 0.371865 0.000000 
0.384208 0.388917 0.000000 
0.377198 0.359658 0.000000 
0.359661 0.365277 0.000000 
0.355528 0.382504 0.000000 
0.337187 0.384326 0.000000 
0.331343 0.367687 0.000000 
0.345707 0.356946 0.000000 
0.191327 0.313574 0.000000 
0.412142 0.343877 0.000000 
0.392690 0.336495 0.000000 
0.298141 0.280591 0.000000 
0.337451 0.425747 0.000000 
0.343403 0.446146 0.000000 
0.198805 0.263591 0.000000 
0.237545 0.258482 0.000000 
0.328197 0.277939 0.000000 
0.325286 0.193324 0.000000 
0.277049 0.408861 0.000000 
0.248029 0.220795 0.000000 
0.421064 0.356491 0.000000 
0.444406 0.356573 0.000000 
0.417672 0.249531 0.000000 
0.431987 0.231392 0.000000 
0.210939 0.346191 0.000000 
0.234312 0.407958 0.000000 
0.229434 0.430597 0.000000 
0.366803 0.393937 0.000000 
0.408572 0.313843 0.000000 
0.377799 0.341839 0.000000 
0.370826 0.219335 0.000000 
0.211755 0.364398 0.000000 
0.415865 0.297247 0.000000 
0.323942 0.224246 0.000000 
0.310832 0.237032 0.000000 
0.314484 0.206982 0.000000 
0.289692 0.228067 0.000000 
0.167989 0.249601 0.000000 
0.291252 0.208734 0.000000 
0.221925 0.296892 0.000000 
0.204745 0.290017 0.000000 
0.677790 0.882396 0.000000 
0.575203 0.545260 0.000000 
0.882012 0.720163 0.000000 
0.508510 0.749071 0.000000 
0.787256 0.526659 0.000000 
0.733349 0.875550 0.000000 
0.573009 0.841325 0.000000 
0.677568 0.501878 0.000000 
0.832082 0.821866 0.000000 
0.508085 0.635623 0.000000 
0.863829 0.609078 0.000000 
0.622218 0.871026 0.000000 
0.623266 0.516798 0.000000 
0.864071 0.774803 0.000000 
0.501237 0.692118 0.000000 
0.832391 0.560970 0.000000 
0.534277 0.799672 0.000000 
0.734303 0.506001 0.000000 
0.788667 0.858728 0.000000 
0.534480 0.584704 0.000000 
0.880649 0.663447 0.000000 
0.649572 0.878139 0.000000 
0.595951 0.526454 0.000000 
0.872108 0.747225 0.000000 
0.505580 0.720056 0.000000 
0.810830 0.542713 0.000000 
0.705948 0.883624 0.000000 
0.550636 0.822929 0.000000 
0.705950 0.500079 0.000000 
0.811163 0.841285 0.000000 
0.520455 0.609533 0.000000 
0.876002 0.635378 0.000000 
0.598075 0.855315 0.000000 
0.649354 0.506158 0.000000 
0.851127 0.800734 0.000000 
0.503414 0.663670 0.000000 
0.847321 0.585590 0.000000 
0.520023 0.774977 0.000000 
0.762439 0.512826 0.000000 
0.761845 0.869745 0.000000 
0.555143 0.565343 0.000000 
0.882814 0.691904 0.000000 
0.664919 0.872106 0.000000 
0.667567 0.854657 0.000000 
0.654708 0.844437 0.000000 
[...]
POINT_DATA 616 
VECTORS X_GC float 
0.293903 0.498192 0.000000 
0.188843 0.158724 0.000000 
0.497861 0.336115 0.000000 
0.124599 0.365023 0.000000 
0.403412 0.142615 0.000000 
0.349399 0.491201 0.000000 
0.189136 0.457294 0.000000 
0.293675 0.117603 0.000000 
0.444882 0.434654 0.000000 
0.123847 0.251530 0.000000 
0.479989 0.225014 0.000000 
0.238337 0.486964 0.000000 
0.239178 0.132343 0.000000 
0.479533 0.390438 0.000000 
0.117183 0.308095 0.000000 
0.448559 0.176900 0.000000 
0.150428 0.415619 0.000000 
0.350428 0.121854 0.000000 
0.404264 0.473932 0.000000 
0.148900 0.199258 0.000000 
0.496672 0.279409 0.000000 
0.265687 0.494010 0.000000 
0.211538 0.141700 0.000000 
0.487799 0.363049 0.000000 
0.121597 0.336012 0.000000 
0.426992 0.158653 0.000000 
0.322059 0.499349 0.000000 
0.166765 0.438886 0.000000 
0.322075 0.115863 0.000000 
0.424821 0.454730 0.000000 
0.135953 0.225189 0.000000 
0.492103 0.251328 0.000000 
0.214197 0.471287 0.000000 
0.265442 0.121857 0.000000 
0.465527 0.415284 0.000000 
0.119275 0.279624 0.000000 
0.463509 0.201524 0.000000 
0.136157 0.390915 0.000000 
0.378578 0.128746 0.000000 
0.377796 0.485278 0.000000 
0.167934 0.178136 0.000000 
0.498750 0.307868 0.000000 
0.280990 0.487917 0.000000 
0.283547 0.470420 0.000000 
0.270669 0.460216 0.000000 
0.298797 0.464389 0.000000 
0.256805 0.466927 0.000000 
0.254380 0.483224 0.000000 
0.242240 0.458607 0.000000 
0.230530 0.471284 0.000000 
0.272118 0.443149 0.000000 
0.302279 0.447624 0.000000 
0.310078 0.474789 0.000000 
0.325985 0.470809 0.000000 
0.307744 0.491101 0.000000 
0.333619 0.486376 0.000000 
0.258122 0.433051 0.000000 
0.288479 0.436591 0.000000 
0.316912 0.443406 0.000000 
0.150441 0.399122 0.000000 
0.165718 0.390259 0.000000 
0.165679 0.373815 0.000000 
0.179931 0.398480 0.000000 
0.151745 0.367030 0.000000 
0.137500 0.375267 0.000000 
0.148900 0.350013 0.000000 
0.131711 0.348726 0.000000 
0.179924 0.364342 0.000000 
0.195218 0.390810 0.000000 
0.178552 0.414305 0.000000 
0.190284 0.426936 0.000000 
0.164326 0.422581 0.000000 
0.182839 0.442512 0.000000 
0.179093 0.347068 0.000000 
0.195250 0.373116 0.000000 
0.207805 0.402521 0.000000 
0.207055 0.456427 0.000000 
0.214723 0.437523 0.000000 
0.429538 0.438943 0.000000 
0.418153 0.426638 0.000000 
0.402586 0.430717 0.000000 
0.423089 0.411087 0.000000 
0.399662 0.446562 0.000000 
0.410754 0.458511 0.000000 
0.385020 0.455468 0.000000 
0.387903 0.472784 0.000000 
0.390130 0.418906 0.000000 
0.412319 0.397920 0.000000 
0.439048 0.409227 0.000000 
0.449173 0.395422 0.000000 
0.449700 0.420731 0.000000 
0.466261 0.399564 0.000000 
0.373768 0.423836 0.000000 
0.395125 0.401866 0.000000 
0.421228 0.383313 0.000000 
0.128747 0.321151 0.000000 
0.159471 0.320817 0.000000 
0.184013 0.174482 0.000000 
0.196038 0.187424 0.000000 
0.212053 0.183734 0.000000 
0.191183 0.203115 0.000000 
0.215585 0.168633 0.000000 
0.204403 0.156561 0.000000 
0.231551 0.162085 0.000000 
0.229008 0.145028 0.000000 
0.224437 0.195529 0.000000 
0.202040 0.216329 0.000000 
0.175466 0.205285 0.000000 
0.165771 0.219547 0.000000 
0.164243 0.193246 0.000000 
0.148945 0.215750 0.000000 
0.241092 0.190890 0.000000 
0.219277 0.212426 0.000000 
0.196197 0.232592 0.000000 
0.410547 0.157457 0.000000 
0.400588 0.172043 0.000000 
0.407743 0.186818 0.000000 
0.384192 0.170797 0.000000 
0.423180 0.186845 0.000000 
0.432473 0.173266 0.000000 
0.432691 0.200676 0.000000 
0.448774 0.194398 0.000000 
0.398971 0.201498 0.000000 
0.373699 0.184306 0.000000 
0.378588 0.155963 0.000000 
0.362527 0.149670 0.000000 
0.387847 0.142364 0.000000 
0.362505 0.132434 0.000000 
0.407176 0.216657 0.000000 
0.381323 0.200232 0.000000 
0.356533 0.182209 0.000000 
0.489461 0.294223 0.000000 
0.471817 0.295467 0.000000 
0.464653 0.310214 0.000000 
0.462594 0.281862 0.000000 
0.474207 0.322306 0.000000 
0.490673 0.321211 0.000000 
0.469206 0.338273 0.000000 
0.484200 0.347058 0.000000 
0.447657 0.312428 0.000000 
0.445463 0.282039 0.000000 
0.470749 0.268267 0.000000 
0.465693 0.251795 0.000000 
0.487184 0.267060 0.000000 
0.479205 0.241049 0.000000 
0.440747 0.328173 0.000000 
0.437708 0.297868 0.000000 
0.439225 0.266034 0.000000 
0.463466 0.217993 0.000000 
0.448288 0.231618 0.000000 
0.255254 0.136029 0.000000 
0.263771 0.167082 0.000000 
0.334946 0.126151 0.000000 
0.327423 0.141667 0.000000 
0.126464 0.294463 0.000000 
0.142630 0.296874 0.000000 
0.151841 0.283263 0.000000 
0.144899 0.313589 0.000000 
0.145149 0.268506 0.000000 
0.128749 0.267278 0.000000 
0.150206 0.252011 0.000000 
0.136727 0.241244 0.000000 
0.168934 0.283470 0.000000 
0.180025 0.266303 0.000000 
0.174291 0.304304 0.000000 
0.280786 0.127894 0.000000 
0.283411 0.145347 0.000000 
0.298717 0.151317 0.000000 
0.267607 0.151265 0.000000 
0.310220 0.140378 0.000000 
0.307802 0.124116 0.000000 
0.333700 0.158471 0.000000 
0.300715 0.169750 0.000000 
0.318494 0.175613 0.000000 
0.281573 0.179597 0.000000 
0.474717 0.373099 0.000000 
0.454382 0.369482 0.000000 
0.360424 0.478961 0.000000 
0.357137 0.455587 0.000000 
0.242108 0.441797 0.000000 
0.371593 0.444554 0.000000 
0.425457 0.215815 0.000000 
0.162003 0.339525 0.000000 
0.244673 0.172545 0.000000 
0.452728 0.341916 0.000000 
0.320207 0.426367 0.000000 
0.410223 0.370110 0.000000 
0.346059 0.195984 0.000000 
0.223155 0.394574 0.000000 
0.207321 0.245839 0.000000 
0.421899 0.266407 0.000000 
0.259775 0.415801 0.000000 
0.361394 0.411846 0.000000 
0.398111 0.231376 0.000000 
0.193600 0.337634 0.000000 
0.253491 0.202950 0.000000 
0.423478 0.330179 0.000000 
0.329332 0.456179 0.000000 
0.442086 0.382656 0.000000 
0.350966 0.162407 0.000000 
0.204259 0.422823 0.000000 
0.175645 0.233637 0.000000 
0.451300 0.249384 0.000000 
0.308865 0.413566 0.000000 
0.224361 0.242784 0.000000 
0.402075 0.248672 0.000000 
0.387858 0.261418 0.000000 
0.387842 0.277688 0.000000 
0.373717 0.253264 0.000000 
0.406288 0.281804 0.000000 
0.373590 0.287180 0.000000 
0.358320 0.260769 0.000000 
0.379404 0.235319 0.000000 
0.374439 0.304361 0.000000 
0.358209 0.278415 0.000000 
0.343831 0.251401 0.000000 
0.390194 0.316250 0.000000 
0.359866 0.313804 0.000000 
0.328326 0.259182 0.000000 
0.341415 0.231789 0.000000 
0.291753 0.419556 0.000000 
0.313150 0.396838 0.000000 
0.230475 0.225636 0.000000 
0.344416 0.306019 0.000000 
0.298522 0.386998 0.000000 
0.330889 0.396077 0.000000 
0.343815 0.412159 0.000000 
0.329843 0.315477 0.000000 
0.343591 0.287804 0.000000 
0.279514 0.392999 0.000000 
0.330749 0.332764 0.000000 
0.314386 0.307679 0.000000 
0.346154 0.340515 0.000000 
0.316263 0.342314 0.000000 
0.299889 0.317200 0.000000 
0.313564 0.288362 0.000000 
0.360697 0.331015 0.000000 
0.317302 0.360804 0.000000 
0.300850 0.334540 0.000000 
0.286404 0.344095 0.000000 
0.284991 0.361285 0.000000 
0.300498 0.370244 0.000000 
0.264532 0.372056 0.000000 
0.270993 0.336307 0.000000 
0.252580 0.345857 0.000000 
0.270029 0.318973 0.000000 
0.247532 0.364415 0.000000 
0.227071 0.374140 0.000000 
0.231302 0.337377 0.000000 
0.254621 0.311199 0.000000 
0.284486 0.309428 0.000000 
0.234304 0.320050 0.000000 
0.253688 0.293907 0.000000 
0.283572 0.292154 0.000000 
0.236816 0.279717 0.000000 
0.268172 0.284397 0.000000 
0.267256 0.267130 0.000000 
0.253505 0.255408 0.000000 
0.257875 0.234869 0.000000 
0.281761 0.257637 0.000000 
0.276170 0.237682 0.000000 
0.297246 0.263341 0.000000 
0.312802 0.252356 0.000000 
0.352732 0.217188 0.000000 
0.248643 0.401903 0.000000 
0.261031 0.387016 0.000000 
0.274874 0.197121 0.000000 
0.390470 0.371865 0.000000 
0.384208 0.388917 0.000000 
0.377198 0.359658 0.000000 
0.359661 0.365277 0.000000 
0.355528 0.382504 0.000000 
0.337187 0.384326 0.000000 
0.331343 0.367687 0.000000 
0.345707 0.356946 0.000000 
0.191327 0.313574 0.000000 
0.412142 0.343877 0.000000 
0.392690 0.336495 0.000000 
0.298141 0.280591 0.000000 
0.337451 0.425747 0.000000 
0.343403 0.446146 0.000000 
0.198805 0.263591 0.000000 
0.237545 0.258482 0.000000 
0.328197 0.277939 0.000000 
0.325286 0.193324 0.000000 
0.277049 0.408861 0.000000 
0.248029 0.220795 0.000000 
0.421064 0.356491 0.000000 
0.444406 0.356573 0.000000 
0.417672 0.249531 0.000000 
0.431987 0.231392 0.000000 
0.210939 0.346191 0.000000 
0.234312 0.407958 0.000000 
0.229434 0.430597 0.000000 
0.366803 0.393937 0.000000 
0.408572 0.313843 0.000000 
0.377799 0.341839 0.000000 
0.370826 0.219335 0.000000 
0.211755 0.364398 0.000000 
0.415865 0.297247 0.000000 
0.323942 0.224246 0.000000 
0.310832 0.237032 0.000000 
0.314484 0.206982 0.000000 
0.289692 0.228067 0.000000 
0.167989 0.249601 0.000000 
0.291252 0.208734 0.000000 
0.221925 0.296892 0.000000 
0.204745 0.290017 0.000000 
0.677790 0.882396 0.000000 
0.575203 0.545260 0.000000 
0.882012 0.720163 0.000000 
0.508510 0.749071 0.000000 
0.787256 0.526659 0.000000 
0.733349 0.875550 0.000000 
0.573009 0.841325 0.000000 
0.677568 0.501878 0.000000 
0.832082 0.821866 0.000000 
0.508085 0.635623 0.000000 
0.863829 0.609078 0.000000 
0.622218 0.871026 0.000000 
0.623266 0.516798 0.000000 
0.864071 0.774803 0.000000 
0.501237 0.692118 0.000000 
0.832391 0.560970 0.000000 
0.534277 0.799672 0.000000 
0.734303 0.506001 0.000000 
0.788667 0.858728 0.000000 
0.534480 0.584704 0.000000 
0.880649 0.663447 0.000000 
0.649572 0.878139 0.000000 
0.595951 0.526454 0.000000 
0.872108 0.747225 0.000000 
0.505580 0.720056 0.000000 
0.810830 0.542713 0.000000 
0.705948 0.883624 0.000000 
0.550636 0.822929 0.000000 
0.705950 0.500079 0.000000 
0.811163 0.841285 0.000000 
0.520455 0.609533 0.000000 
0.876002 0.635378 0.000000 
0.598075 0.855315 0.000000 
0.649354 0.506158 0.000000 
0.851127 0.800734 0.000000 
0.503414 0.663670 0.000000 
0.847321 0.585590 0.000000 
0.520023 0.774977 0.000000 
0.762439 0.512826 0.000000 
0.761845 0.869745 0.000000 
0.555143 0.565343 0.000000 
0.882814 0.691904 0.000000 
0.664919 0.872106 0.000000 
0.667567 0.854657 0.000000 
0.654708 0.844437 0.000000 
0.682883 0.848688 0.000000 
0.640784 0.851091 0.000000 
0.638295 0.867343 0.000000 
0.626212 0.842744 0.000000 
0.614440 0.855357 0.000000 
0.656238 0.827415 0.000000 
0.686475 0.831976 0.000000 
0.694128 0.859108 0.000000 
0.710121 0.855216 0.000000 
0.691684 0.875368 0.000000 
0.717624 0.870734 0.000000 
0.642233 0.817296 0.000000 
0.672689 0.820924 0.000000 
0.701217 0.827858 0.000000 
0.534314 0.783200 0.000000 
0.549647 0.774387 0.000000 
0.549654 0.757989 0.000000 
0.563865 0.782609 0.000000 
0.535709 0.751174 0.000000 
0.521411 0.759350 0.000000 
0.532906 0.734177 0.000000 
0.515682 0.732814 0.000000 
0.563957 0.748595 0.000000 
0.579206 0.775000 0.000000 
0.562449 0.798392 0.000000 
0.574187 0.811017 0.000000 
0.548196 0.806640 0.000000 
0.566721 0.826562 0.000000 
0.563175 0.731380 0.000000 
0.579291 0.757386 0.000000 
0.591790 0.786689 0.000000 
0.590943 0.840472 0.000000 
0.598660 0.821622 0.000000 
0.815998 0.825524 0.000000 
0.803972 0.812585 0.000000 
0.787956 0.816276 0.000000 
0.808832 0.796891 0.000000 
0.784626 0.831792 0.000000 
0.795805 0.843865 0.000000 
0.769681 0.840418 0.000000 
0.772220 0.857476 0.000000 
0.775577 0.804479 0.000000 
0.797971 0.783680 0.000000 
0.824553 0.794716 0.000000 
0.834248 0.780452 0.000000 
0.835778 0.806752 0.000000 
0.851078 0.784243 0.000000 
0.758922 0.809119 0.000000 
0.780736 0.787582 0.000000 
0.806575 0.768779 0.000000 
0.512786 0.705242 0.000000 
0.543583 0.705101 0.000000 
0.570482 0.561049 0.000000 
0.581853 0.573346 0.000000 
0.597417 0.569263 0.000000 
0.576911 0.588896 0.000000 
0.600553 0.553831 0.000000 
0.589456 0.541877 0.000000 
0.616249 0.547032 0.000000 
0.613373 0.529713 0.000000 
0.609871 0.581081 0.000000 
0.587678 0.602066 0.000000 
0.560951 0.590757 0.000000 
0.550819 0.604555 0.000000 
0.550312 0.579259 0.000000 
0.533729 0.600409 0.000000 
0.626234 0.576157 0.000000 
0.604877 0.598127 0.000000 
0.581537 0.618056 0.000000 
0.794397 0.541520 0.000000 
0.784484 0.556154 0.000000 
0.791637 0.570941 0.000000 
0.768142 0.554954 0.000000 
0.807043 0.570945 0.000000 
0.816317 0.557342 0.000000 
0.816552 0.584783 0.000000 
0.832607 0.578479 0.000000 
0.782923 0.585676 0.000000 
0.757724 0.568526 0.000000 
0.762520 0.540104 0.000000 
0.746482 0.533845 0.000000 
0.771724 0.526447 0.000000 
0.746402 0.516569 0.000000 
0.791142 0.600865 0.000000 
0.765357 0.584465 0.000000 
0.740622 0.566478 0.000000 
0.873501 0.678311 0.000000 
0.855903 0.679670 0.000000 
0.848821 0.694506 0.000000 
0.846657 0.666094 0.000000 
0.858421 0.706569 0.000000 
0.874817 0.705328 0.000000 
0.853549 0.722644 0.000000 
0.868481 0.731271 0.000000 
0.831890 0.696859 0.000000 
0.829566 0.666369 0.000000 
0.854748 0.652429 0.000000 
0.849649 0.635948 0.000000 
0.871143 0.651140 0.000000 
0.863097 0.625136 0.000000 
0.825158 0.712778 0.000000 
0.821883 0.682299 0.000000 
0.823287 0.650343 0.000000 
0.847315 0.602083 0.000000 
0.832213 0.615779 0.000000 
0.639378 0.520492 0.000000 
0.648302 0.551822 0.000000 
0.718858 0.510353 0.000000 
0.711424 0.525928 0.000000 
0.510600 0.678575 0.000000 
0.526811 0.681114 0.000000 
0.536155 0.667646 0.000000 
0.528999 0.697794 0.000000 
0.529522 0.652876 0.000000 
0.512989 0.651438 0.000000 
0.534743 0.636525 0.000000 
0.521163 0.625568 0.000000 
0.553341 0.668025 0.000000 
0.564714 0.651145 0.000000 
0.558518 0.688753 0.000000 
0.664773 0.512233 0.000000 
0.667568 0.529786 0.000000 
0.682855 0.535706 0.000000 
0.651903 0.535830 0.000000 
0.694247 0.524687 0.000000 
0.691733 0.508391 0.000000 
0.717767 0.542754 0.000000 
0.684974 0.554188 0.000000 
0.702700 0.559984 0.000000 
0.666083 0.564255 0.000000 
0.859230 0.757512 0.000000 
0.839122 0.754229 0.000000 
0.744558 0.863456 0.000000 
0.741611 0.840312 0.000000 
0.626131 0.825972 0.000000 
0.756358 0.829541 0.000000 
0.809372 0.599974 0.000000 
0.546068 0.723776 0.000000 
0.629458 0.557528 0.000000 
0.837216 0.726501 0.000000 
0.704670 0.810911 0.000000 
0.795449 0.755531 0.000000 
0.730248 0.580320 0.000000 
0.607235 0.778830 0.000000 
0.592520 0.631233 0.000000 
0.806003 0.650801 0.000000 
0.643961 0.800095 0.000000 
0.746527 0.797059 0.000000 
0.782173 0.615689 0.000000 
0.577744 0.722056 0.000000 
0.638608 0.588155 0.000000 
0.808004 0.714975 0.000000 
0.713617 0.840678 0.000000 
0.827132 0.767728 0.000000 
0.735000 0.546647 0.000000 
0.588189 0.806928 0.000000 
0.560693 0.618728 0.000000 
0.835279 0.633588 0.000000 
0.693313 0.798052 0.000000 
0.609527 0.628128 0.000000 
0.786185 0.633065 0.000000 
0.772094 0.645929 0.000000 
0.772142 0.662288 0.000000 
0.757999 0.637786 0.000000 
0.790505 0.666353 0.000000 
0.758012 0.671890 0.000000 
0.742721 0.645393 0.000000 
0.763581 0.619721 0.000000 
0.758929 0.689159 0.000000 
0.742686 0.663139 0.000000 
0.728273 0.636027 0.000000 
0.774692 0.701078 0.000000 
0.744492 0.698704 0.000000 
0.712891 0.643913 0.000000 
0.725782 0.616310 0.000000 
0.676070 0.803944 0.000000 
0.697724 0.781449 0.000000 
0.615791 0.611079 0.000000 
0.729091 0.690944 0.000000 
0.683025 0.771570 0.000000 
0.715657 0.780896 0.000000 
0.728704 0.797108 0.000000 
0.714621 0.700469 0.000000 
0.728197 0.672642 0.000000 
0.663893 0.777467 0.000000 
0.715526 0.717725 0.000000 
0.699225 0.692712 0.000000 
0.730932 0.725486 0.000000 
0.701026 0.727219 0.000000 
0.684698 0.702198 0.000000 
0.698341 0.673319 0.000000 
0.745419 0.715977 0.000000 
0.702015 0.745624 0.000000 
0.685593 0.719441 0.000000 
0.671028 0.728884 0.000000 
0.669533 0.745964 0.000000 
0.685084 0.754926 0.000000 
0.648915 0.756591 0.000000 
0.655557 0.721078 0.000000 
0.636996 0.730495 0.000000 
0.654654 0.703839 0.000000 
0.631850 0.748928 0.000000 
0.611240 0.758519 0.000000 
0.615623 0.721972 0.000000 
0.639179 0.696036 0.000000 
0.669232 0.694398 0.000000 
0.618703 0.704754 0.000000 
0.638334 0.678817 0.000000 
0.668336 0.677129 0.000000 
0.621533 0.664692 0.000000 
0.652906 0.669352 0.000000 
0.652046 0.652106 0.000000 
0.638392 0.640473 0.000000 
0.642853 0.619975 0.000000 
0.666529 0.642555 0.000000 
0.660987 0.622618 0.000000 
0.681972 0.648210 0.000000 
0.697416 0.637102 0.000000 
0.736977 0.601587 0.000000 
0.632830 0.786213 0.000000 
0.645337 0.771451 0.000000 
0.659647 0.581983 0.000000 
0.775650 0.757226 0.000000 
0.769537 0.774373 0.000000 
0.762167 0.744822 0.000000 
0.744589 0.750361 0.000000 
0.740521 0.767606 0.000000 
0.722015 0.769237 0.000000 
0.716117 0.752572 0.000000 
0.730533 0.741928 0.000000 
0.575537 0.698088 0.000000 
0.796948 0.728949 0.000000 
0.777424 0.721511 0.000000 
0.682916 0.665535 0.000000 
0.722123 0.810514 0.000000 
0.727901 0.830835 0.000000 
0.583686 0.648695 0.000000 
0.622469 0.643610 0.000000 
0.712850 0.662782 0.000000 
0.709559 0.577719 0.000000 
0.661350 0.793238 0.000000 
0.633196 0.606065 0.000000 
0.806004 0.741632 0.000000 
0.829122 0.741382 0.000000 
0.801725 0.633864 0.000000 
0.815945 0.615598 0.000000 
0.595118 0.730658 0.000000 
0.618403 0.792192 0.000000 
0.613440 0.814757 0.000000 
0.751986 0.779214 0.000000 
0.792960 0.698585 0.000000 
0.762595 0.726878 0.000000 
0.754984 0.603681 0.000000 
0.595879 0.748774 0.000000 
0.800098 0.681819 0.000000 
0.708368 0.608785 0.000000 
0.695389 0.621697 0.000000 
0.698883 0.591462 0.000000 
0.674388 0.612855 0.000000 
0.552753 0.634417 0.000000 
0.675891 0.593437 0.000000 
0.606415 0.681706 0.000000 
0.589254 0.674840 0.000000 
VECTORS X_EC float 
-0.963842 0.878058 0.000000 
-0.174470 0.776868 0.000000 
0.277705 0.957222 0.000000 
-0.300466 -0.508028 0.000000 
0.147709 -0.931769 0.000000 
-0.824026 -0.012021 0.000000 
-0.145872 0.782719 0.000000 
0.647939 0.873493 0.000000 
0.306912 -0.102367 0.000000 
-0.030590 -0.523052 0.000000 
0.499716 0.599789 0.000000 
-0.739285 -0.233260 0.000000 
0.353134 -0.216448 0.000000 
-0.808769 0.590652 0.000000 
0.838095 -0.656335 0.000000 
-0.537993 -0.028827 0.000000 
0.687614 0.008556 0.000000 
0.562921 0.008562 0.000000 
-0.478630 -0.914727 0.000000 
-0.985161 -0.021995 0.000000 
-0.588174 0.933446 0.000000 
-0.880208 0.313731 0.000000 
0.166003 -0.769231 0.000000 
-0.260978 0.755970 0.000000 
0.279759 -0.568058 0.000000 
-0.173060 -0.460151 0.000000 
-0.986980 -0.558817 0.000000 
0.222277 0.335309 0.000000 
0.682738 -0.558507 0.000000 
-0.094607 -0.503584 0.000000 
0.496227 -0.280949 0.000000 
-0.026570 0.842066 0.000000 
-0.425745 -0.716053 0.000000 
0.562857 0.308831 0.000000 
0.694315 0.310545 0.000000 
-0.592485 -0.614502 0.000000 
0.969519 0.270179 0.000000 
-0.818304 -0.276857 0.000000 
0.425081 0.571564 0.000000 
-0.705551 0.555923 0.000000 
-0.562718 0.358689 0.000000 
0.842643 0.975007 0.000000 
-0.758348 0.619809 0.000000 
-0.408391 0.670938 0.000000 
-0.204314 0.413378 0.000000 
-0.287775 0.975933 0.000000 
-0.338547 0.136093 0.000000 
-0.664485 0.087607 0.000000 
-0.172139 -0.155208 0.000000 
-0.425674 -0.389399 0.000000 
0.137012 0.442368 0.000000 
0.047527 -0.954417 0.000000 
-0.495782 -0.798437 0.000000 
-0.416172 -0.480294 0.000000 
-0.822019 -0.845127 0.000000 
-0.727529 -0.327624 0.000000 
0.338979 0.162435 0.000000 
0.268178 0.769584 0.000000 
0.131885 -0.661751 0.000000 
-0.982448 0.008814 0.000000 
-0.805186 0.314355 0.000000 
-0.476309 0.313575 0.000000 
-0.969597 0.598617 0.000000 
-0.340608 0.034898 0.000000 
-0.505337 -0.249994 0.000000 
-0.000265 -0.021999 0.000000 
0.025472 -0.365785 0.000000 
-0.286848 0.598480 0.000000 
-0.816202 0.904351 0.000000 
0.713892 0.571043 0.000000 
0.461273 0.805688 0.000000 
0.548382 0.286522 0.000000 
0.149761 0.656786 0.000000 
0.058631 0.581866 0.000000 
-0.462322 0.904990 0.000000 
0.949589 -0.843908 0.000000 
-0.128539 -0.858907 0.000000 
0.249537 -0.705547 0.000000 
0.221148 -0.409250 0.000000 
0.467237 -0.636934 0.000000 
0.385653 -0.948277 0.000000 
0.778260 -0.538213 0.000000 
0.068757 0.993243 0.000000 
-0.170215 -0.784917 0.000000 
-0.109360 0.700410 0.000000 
-0.455678 0.758065 0.000000 
0.621875 0.802608 0.000000 
-0.958409 -0.753613 0.000000 
0.815463 -0.219045 0.000000 
-0.908446 -0.016540 0.000000 
0.585381 -0.006009 0.000000 
-0.991285 0.325223 0.000000 