# vtk DataFile Version 3.0 
vtk output 
ASCII 
DATASET UNSTRUCTURED_GRID 
POINTS 616 float 
0.288892 0.493318 0.000000 
0.184007 0.153797 0.000000 
0.492981 0.331336 0.000000 
0.119642 0.360051 0.000000 
0.398524 0.137808 0.000000 
0.344401 0.486394 0.000000 
0.184141 0.452328 0.000000 
0.288812 0.112736 0.000000 
0.440811 0.430685 0.000000 
0.118951 0.246583 0.000000 
0.475042 0.220241 0.000000 
0.233326 0.482048 0.000000 
0.234329 0.127444 0.000000 
0.474761 0.385750 0.000000 
0.112252 0.303139 0.000000 
0.443637 0.172123 0.000000 
0.145457 0.410633 0.000000 
0.345559 0.117014 0.000000 
0.399435 0.469311 0.000000 
0.144041 0.194324 0.000000 
0.491752 0.274621 0.000000 
0.260675 0.489116 0.000000 
0.206697 0.136784 0.000000 
0.482965 0.358311 0.000000 
0.116653 0.331049 0.000000 
0.422092 0.153865 0.000000 
0.317040 0.494499 0.000000 
0.161785 0.433903 0.000000 
0.317211 0.111009 0.000000 
0.420597 0.450650 0.000000 
0.131074 0.220250 0.000000 
0.487167 0.246549 0.000000 
0.209194 0.466348 0.000000 
0.260587 0.116973 0.000000 
0.461190 0.411030 0.000000 
0.114360 0.274671 0.000000 
0.458555 0.196749 0.000000 
0.131191 0.385936 0.000000 
0.373703 0.123921 0.000000 
0.372826 0.480521 0.000000 
0.163093 0.173206 0.000000 
0.493848 0.303075 0.000000 
0.275994 0.483039 0.000000 
0.278583 0.465552 0.000000 
0.265714 0.455340 0.000000 
0.293853 0.459542 0.000000 
0.251831 0.462034 0.000000 
0.249381 0.478323 0.000000 
0.237268 0.453699 0.000000 
0.225535 0.466362 0.000000 
0.267193 0.438283 0.000000 
0.297371 0.442795 0.000000 
0.305122 0.469955 0.000000 
0.321051 0.466007 0.000000 
0.302749 0.486247 0.000000 
0.328638 0.481560 0.000000 
0.253199 0.428169 0.000000 
0.283580 0.431749 0.000000 
0.312043 0.438622 0.000000 
0.145475 0.394144 0.000000 
0.160760 0.385291 0.000000 
0.160728 0.368858 0.000000 
0.174973 0.393511 0.000000 
0.146794 0.362070 0.000000 
0.132542 0.370296 0.000000 
0.143956 0.345061 0.000000 
0.126763 0.343764 0.000000 
0.174982 0.359398 0.000000 
0.190267 0.385852 0.000000 
0.173586 0.409332 0.000000 
0.185311 0.421969 0.000000 
0.159354 0.417600 0.000000 
0.177855 0.437541 0.000000 
0.174159 0.342136 0.000000 
0.190307 0.368172 0.000000 
0.202861 0.397565 0.000000 
0.202061 0.451478 0.000000 
0.209753 0.432582 0.000000 
0.425295 0.434818 0.000000 
0.413705 0.422295 0.000000 
0.397976 0.426229 0.000000 
0.418610 0.406688 0.000000 
0.394939 0.441998 0.000000 
0.406180 0.454104 0.000000 
0.380220 0.450832 0.000000 
0.383007 0.468088 0.000000 
0.385552 0.414424 0.000000 
0.407830 0.393497 0.000000 
0.434552 0.404811 0.000000 
0.444528 0.390853 0.000000 
0.445422 0.416542 0.000000 
0.461557 0.394936 0.000000 
0.369114 0.419277 0.000000 
0.390662 0.397468 0.000000 
0.416648 0.378817 0.000000 
0.123812 0.316199 0.000000 
0.154543 0.315888 0.000000 
0.179171 0.169556 0.000000 
0.191188 0.182503 0.000000 
0.207200 0.178824 0.000000 
0.186326 0.198195 0.000000 
0.210735 0.163723 0.000000 
0.199560 0.151642 0.000000 
0.226697 0.157186 0.000000 
0.224160 0.140124 0.000000 
0.219576 0.190630 0.000000 
0.197178 0.211419 0.000000 
0.170605 0.200360 0.000000 
0.160901 0.214621 0.000000 
0.159390 0.188317 0.000000 
0.144075 0.210817 0.000000 
0.236226 0.186002 0.000000 
0.214413 0.207529 0.000000 
0.191326 0.227683 0.000000 
0.405648 0.152660 0.000000 
0.395680 0.167245 0.000000 
0.402822 0.182029 0.000000 
0.379289 0.165989 0.000000 
0.418254 0.182060 0.000000 
0.427557 0.168483 0.000000 
0.427749 0.195895 0.000000 
0.443833 0.189621 0.000000 
0.394042 0.196709 0.000000 
0.368790 0.179498 0.000000 
0.373696 0.151147 0.000000 
0.357642 0.144844 0.000000 
0.382962 0.137548 0.000000 
0.357630 0.127602 0.000000 
0.402251 0.211886 0.000000 
0.376401 0.195433 0.000000 
0.351631 0.177392 0.000000 
0.484551 0.289439 0.000000 
0.466913 0.290701 0.000000 
0.459773 0.305468 0.000000 
0.457684 0.277102 0.000000 
0.469341 0.317561 0.000000 
0.485789 0.316437 0.000000 
0.464375 0.333556 0.000000 
0.479355 0.342317 0.000000 
0.442792 0.307708 0.000000 
0.440558 0.277294 0.000000 
0.465829 0.263498 0.000000 
0.460765 0.247028 0.000000 
0.482259 0.262281 0.000000 
0.474267 0.236276 0.000000 
0.435934 0.323496 0.000000 
0.432813 0.293137 0.000000 
0.434314 0.261286 0.000000 
0.458520 0.213221 0.000000 
0.443356 0.226852 0.000000 
0.250399 0.131141 0.000000 
0.258904 0.162207 0.000000 
0.330077 0.121305 0.000000 
0.322547 0.136823 0.000000 
0.121541 0.289514 0.000000 
0.137709 0.291939 0.000000 
0.146931 0.278335 0.000000 
0.139972 0.308653 0.000000 
0.140247 0.263573 0.000000 
0.123844 0.262333 0.000000 
0.145314 0.247080 0.000000 
0.131839 0.236305 0.000000 
0.164028 0.278556 0.000000 
0.175131 0.261394 0.000000 
0.169374 0.299397 0.000000 
0.275924 0.123021 0.000000 
0.278543 0.140481 0.000000 
0.293842 0.146462 0.000000 
0.262743 0.146389 0.000000 
0.305347 0.135525 0.000000 
0.302936 0.119258 0.000000 
0.328816 0.153635 0.000000 
0.295834 0.164901 0.000000 
0.313606 0.170774 0.000000 
0.276696 0.174737 0.000000 
0.469935 0.368409 0.000000 
0.449653 0.364849 0.000000 
0.355480 0.474200 0.000000 
0.352294 0.450884 0.000000 
0.237158 0.436892 0.000000 
0.366827 0.439921 0.000000 
0.420524 0.211043 0.000000 
0.157068 0.334586 0.000000 
0.239811 0.167657 0.000000 
0.447934 0.337241 0.000000 
0.315391 0.421616 0.000000 
0.405625 0.365612 0.000000 
0.341153 0.191165 0.000000 
0.218234 0.389649 0.000000 
0.202444 0.240945 0.000000 
0.416992 0.261670 0.000000 
0.254880 0.410928 0.000000 
0.356759 0.407278 0.000000 
0.393195 0.226616 0.000000 
0.188674 0.332717 0.000000 
0.248617 0.198075 0.000000 
0.418694 0.325538 0.000000 
0.324447 0.451409 0.000000 
0.437431 0.378087 0.000000 
0.346076 0.157580 0.000000 
0.199293 0.417865 0.000000 
0.170769 0.228718 0.000000 
0.446376 0.244623 0.000000 
0.304047 0.408789 0.000000 
0.219488 0.237906 0.000000 
0.397166 0.243931 0.000000 
0.382962 0.256682 0.000000 
0.382954 0.272968 0.000000 
0.368824 0.248513 0.000000 
0.401394 0.277091 0.000000 
0.368714 0.282462 0.000000 
0.353439 0.256017 0.000000 
0.374499 0.230553 0.000000 
0.369580 0.299663 0.000000 
0.353338 0.273681 0.000000 
0.338953 0.246633 0.000000 
0.385374 0.311595 0.000000 
0.355038 0.309113 0.000000 
0.323460 0.254413 0.000000 
0.336526 0.227000 0.000000 
0.286889 0.414729 0.000000 
0.308373 0.392089 0.000000 
0.225607 0.220756 0.000000 
0.339574 0.301305 0.000000 
0.293700 0.382200 0.000000 
0.326176 0.391401 0.000000 
0.339119 0.407521 0.000000 
0.325020 0.310757 0.000000 
0.338735 0.283072 0.000000 
0.274667 0.388166 0.000000 
0.325949 0.328054 0.000000 
0.309558 0.302944 0.000000 
0.341382 0.335840 0.000000 
0.311459 0.337580 0.000000 
0.295067 0.312449 0.000000 
0.308726 0.283616 0.000000 
0.355916 0.326353 0.000000 
0.312513 0.356072 0.000000 
0.296028 0.329778 0.000000 
0.281568 0.339306 0.000000 
0.280153 0.356482 0.000000 
0.295678 0.365460 0.000000 
0.259669 0.367214 0.000000 
0.266141 0.331500 0.000000 
0.247707 0.341015 0.000000 
0.265178 0.314177 0.000000 
0.242650 0.359552 0.000000 
0.222161 0.369237 0.000000 
0.226409 0.332510 0.000000 
0.249757 0.306386 0.000000 
0.279649 0.304659 0.000000 
0.229419 0.315201 0.000000 
0.248825 0.289095 0.000000 
0.278732 0.287383 0.000000 
0.231942 0.274873 0.000000 
0.263318 0.279598 0.000000 
0.262397 0.262316 0.000000 
0.248638 0.250569 0.000000 
0.253006 0.230020 0.000000 
0.276904 0.252832 0.000000 
0.271303 0.232854 0.000000 
0.292398 0.258559 0.000000 
0.307940 0.247573 0.000000 
0.347829 0.212390 0.000000 
0.243754 0.397015 0.000000 
0.256161 0.382158 0.000000 
0.269994 0.192260 0.000000 
0.385875 0.367367 0.000000 
0.379662 0.384443 0.000000 
0.372527 0.355089 0.000000 
0.354971 0.360670 0.000000 
0.350870 0.377910 0.000000 
0.332477 0.379668 0.000000 
0.326592 0.362998 0.000000 
0.340968 0.352288 0.000000 
0.186410 0.308675 0.000000 
0.407431 0.339297 0.000000 
0.387955 0.331902 0.000000 
0.293305 0.275828 0.000000 
0.332685 0.421057 0.000000 
0.338576 0.441432 0.000000 
0.193916 0.258693 0.000000 
0.232673 0.253627 0.000000 
0.323343 0.273189 0.000000 
0.320389 0.188493 0.000000 
0.272187 0.404017 0.000000 
0.243159 0.215927 0.000000 
0.416383 0.351924 0.000000 
0.439669 0.351945 0.000000 
0.412758 0.244784 0.000000 
0.427060 0.226629 0.000000 
0.206021 0.341286 0.000000 
0.229397 0.403046 0.000000 
0.224486 0.425676 0.000000 
0.362214 0.389405 0.000000 
0.403739 0.309182 0.000000 
0.373067 0.337231 0.000000 
0.365917 0.214549 0.000000 
0.206831 0.359479 0.000000 
0.410975 0.292538 0.000000 
0.319056 0.219440 0.000000 
0.305961 0.232233 0.000000 
0.309591 0.202154 0.000000 
0.284820 0.223244 0.000000 
0.163102 0.244681 0.000000 
0.286369 0.203894 0.000000 
0.217037 0.292037 0.000000 
0.199846 0.285135 0.000000 
0.682676 0.887254 0.000000 
0.579393 0.549336 0.000000 
0.886925 0.725139 0.000000 
0.513449 0.753867 0.000000 
0.792301 0.531615 0.000000 
0.738211 0.880420 0.000000 
0.577926 0.846145 0.000000 
0.682584 0.506734 0.000000 
0.836897 0.826780 0.000000 
0.512929 0.640398 0.000000 
0.868826 0.614085 0.000000 
0.627122 0.875871 0.000000 
0.628228 0.521586 0.000000 
0.868923 0.779751 0.000000 
0.506161 0.696920 0.000000 
0.837419 0.565964 0.000000 
0.539219 0.804470 0.000000 
0.739326 0.510899 0.000000 
0.793501 0.863618 0.000000 
0.538781 0.588961 0.000000 
0.885609 0.668441 0.000000 
0.654466 0.882990 0.000000 
0.600782 0.531114 0.000000 
0.876990 0.752186 0.000000 
0.510513 0.724854 0.000000 
0.815873 0.547692 0.000000 
0.710825 0.888487 0.000000 
0.555562 0.827737 0.000000 
0.710963 0.504950 0.000000 
0.815983 0.846186 0.000000 
0.525217 0.614250 0.000000 
0.880981 0.640380 0.000000 
0.602989 0.860148 0.000000 
0.654366 0.510998 0.000000 
0.855952 0.805667 0.000000 
0.508304 0.668465 0.000000 
0.852334 0.590593 0.000000 
0.524963 0.779771 0.000000 
0.767476 0.517754 0.000000 
0.766693 0.874625 0.000000 
0.559170 0.569298 0.000000 
0.887755 0.696887 0.000000 
0.669809 0.876957 0.000000 
0.672455 0.859500 0.000000 
0.659601 0.849275 0.000000 
[...]
POINT_DATA 616 
VECTORS X_GC float 
0.288892 0.493318 0.000000 
0.184007 0.153797 0.000000 
0.492981 0.331336 0.000000 
0.119642 0.360051 0.000000 
0.398524 0.137808 0.000000 
0.344401 0.486394 0.000000 
0.184141 0.452328 0.000000 
0.288812 0.112736 0.000000 
0.440811 0.430685 0.000000 
0.118951 0.246583 0.000000 
0.475042 0.220241 0.000000 
0.233326 0.482048 0.000000 
0.234329 0.127444 0.000000 
0.474761 0.385750 0.000000 
0.112252 0.303139 0.000000 
0.443637 0.172123 0.000000 
0.145457 0.410633 0.000000 
0.345559 0.117014 0.000000 
0.399435 0.469311 0.000000 
0.144041 0.194324 0.000000 
0.491752 0.274621 0.000000 
0.260675 0.489116 0.000000 
0.206697 0.136784 0.000000 
0.482965 0.358311 0.000000 
0.116653 0.331049 0.000000 
0.422092 0.153865 0.000000 
0.317040 0.494499 0.000000 
0.161785 0.433903 0.000000 
0.317211 0.111009 0.000000 
0.420597 0.450650 0.000000 
0.131074 0.220250 0.000000 
0.487167 0.246549 0.000000 
0.209194 0.466348 0.000000 
0.260587 0.116973 0.000000 
0.461190 0.411030 0.000000 
0.114360 0.274671 0.000000 
0.458555 0.196749 0.000000 
0.131191 0.385936 0.000000 
0.373703 0.123921 0.000000 
0.372826 0.480521 0.000000 
0.163093 0.173206 0.000000 
0.493848 0.303075 0.000000 
0.275994 0.483039 0.000000 
0.278583 0.465552 0.000000 
0.265714 0.455340 0.000000 
0.293853 0.459542 0.000000 
0.251831 0.462034 0.000000 
0.249381 0.478323 0.000000 
0.237268 0.453699 0.000000 
0.225535 0.466362 0.000000 
0.267193 0.438283 0.000000 
0.297371 0.442795 0.000000 
0.305122 0.469955 0.000000 
0.321051 0.466007 0.000000 
0.302749 0.486247 0.000000 
0.328638 0.481560 0.000000 
0.253199 0.428169 0.000000 
0.283580 0.431749 0.000000 
0.312043 0.438622 0.000000 
0.145475 0.394144 0.000000 
0.160760 0.385291 0.000000 
0.160728 0.368858 0.000000 
0.174973 0.393511 0.000000 
0.146794 0.362070 0.000000 
0.132542 0.370296 0.000000 
0.143956 0.345061 0.000000 
0.126763 0.343764 0.000000 
0.174982 0.359398 0.000000 
0.190267 0.385852 0.000000 
0.173586 0.409332 0.000000 
0.185311 0.421969 0.000000 
0.159354 0.417600 0.000000 
0.177855 0.437541 0.000000 
0.174159 0.342136 0.000000 
0.190307 0.368172 0.000000 
0.202861 0.397565 0.000000 
0.202061 0.451478 0.000000 
0.209753 0.432582 0.000000 
0.425295 0.434818 0.000000 
0.413705 0.422295 0.000000 
0.397976 0.426229 0.000000 
0.418610 0.406688 0.000000 
0.394939 0.441998 0.000000 
0.406180 0.454104 0.000000 
0.380220 0.450832 0.000000 
0.383007 0.468088 0.000000 
0.385552 0.414424 0.000000 
0.407830 0.393497 0.000000 
0.434552 0.404811 0.000000 
0.444528 0.390853 0.000000 
0.445422 0.416542 0.000000 
0.461557 0.394936 0.000000 
0.369114 0.419277 0.000000 
0.390662 0.397468 0.000000 
0.416648 0.378817 0.000000 
0.123812 0.316199 0.000000 
0.154543 0.315888 0.000000 
0.179171 0.169556 0.000000 
0.191188 0.182503 0.000000 
0.207200 0.178824 0.000000 
0.186326 0.198195 0.000000 
0.210735 0.163723 0.000000 
0.199560 0.151642 0.000000 
0.226697 0.157186 0.000000 
0.224160 0.140124 0.000000 
0.219576 0.190630 0.000000 
0.197178 0.211419 0.000000 
0.170605 0.200360 0.000000 
0.160901 0.214621 0.000000 
0.159390 0.188317 0.000000 
0.144075 0.210817 0.000000 
0.236226 0.186002 0.000000 
0.214413 0.207529 0.000000 
0.191326 0.227683 0.000000 
0.405648 0.152660 0.000000 
0.395680 0.167245 0.000000 
0.402822 0.182029 0.000000 
0.379289 0.165989 0.000000 
0.418254 0.182060 0.000000 
0.427557 0.168483 0.000000 
0.427749 0.195895 0.000000 
0.443833 0.189621 0.000000 
0.394042 0.196709 0.000000 
0.368790 0.179498 0.000000 
0.373696 0.151147 0.000000 
0.357642 0.144844 0.000000 
0.382962 0.137548 0.000000 
0.357630 0.127602 0.000000 
0.402251 0.211886 0.000000 
0.376401 0.195433 0.000000 
0.351631 0.177392 0.000000 
0.484551 0.289439 0.000000 
0.466913 0.290701 0.000000 
0.459773 0.305468 0.000000 
0.457684 0.277102 0.000000 
0.469341 0.317561 0.000000 
0.485789 0.316437 0.000000 
0.464375 0.333556 0.000000 
0.479355 0.342317 0.000000 
0.442792 0.307708 0.000000 
0.440558 0.277294 0.000000 
0.465829 0.263498 0.000000 
0.460765 0.247028 0.000000 
0.482259 0.262281 0.000000 
0.474267 0.236276 0.000000 
0.435934 0.323496 0.000000 
0.432813 0.293137 0.000000 
0.434314 0.261286 0.000000 
0.458520 0.213221 0.000000 
0.443356 0.226852 0.000000 
0.250399 0.131141 0.000000 
0.258904 0.162207 0.000000 
0.330077 0.121305 0.000000 
0.322547 0.136823 0.000000 
0.121541 0.289514 0.000000 
0.137709 0.291939 0.000000 
0.146931 0.278335 0.000000 
0.139972 0.308653 0.000000 
0.140247 0.263573 0.000000 
0.123844 0.262333 0.000000 
0.145314 0.247080 0.000000 
0.131839 0.236305 0.000000 
0.164028 0.278556 0.000000 
0.175131 0.261394 0.000000 
0.169374 0.299397 0.000000 
0.275924 0.123021 0.000000 
0.278543 0.140481 0.000000 
0.293842 0.146462 0.000000 
0.262743 0.146389 0.000000 
0.305347 0.135525 0.000000 
0.302936 0.119258 0.000000 
0.328816 0.153635 0.000000 
0.295834 0.164901 0.000000 
0.313606 0.170774 0.000000 
0.276696 0.174737 0.000000 
0.469935 0.368409 0.000000 
0.449653 0.364849 0.000000 
0.355480 0.474200 0.000000 
0.352294 0.450884 0.000000 
0.237158 0.436892 0.000000 
0.366827 0.439921 0.000000 
0.420524 0.211043 0.000000 
0.157068 0.334586 0.000000 
0.239811 0.167657 0.000000 
0.447934 0.337241 0.000000 
0.315391 0.421616 0.000000 
0.405625 0.365612 0.000000 
0.341153 0.191165 0.000000 
0.218234 0.389649 0.000000 
0.202444 0.240945 0.000000 
0.416992 0.261670 0.000000 
0.254880 0.410928 0.000000 
0.356759 0.407278 0.000000 
0.393195 0.226616 0.000000 
0.188674 0.332717 0.000000 
0.248617 0.198075 0.000000 
0.418694 0.325538 0.000000 
0.324447 0.451409 0.000000 
0.437431 0.378087 0.000000 
0.346076 0.157580 0.000000 
0.199293 0.417865 0.000000 
0.170769 0.228718 0.000000 
0.446376 0.244623 0.000000 
0.304047 0.408789 0.000000 
0.219488 0.237906 0.000000 
0.397166 0.243931 0.000000 
0.382962 0.256682 0.000000 
0.382954 0.272968 0.000000 
0.368824 0.248513 0.000000 
0.401394 0.277091 0.000000 
0.368714 0.282462 0.000000 
0.353439 0.256017 0.000000 
0.374499 0.230553 0.000000 
0.369580 0.299663 0.000000 
0.353338 0.273681 0.000000 
0.338953 0.246633 0.000000 
0.385374 0.311595 0.000000 
0.355038 0.309113 0.000000 
0.323460 0.254413 0.000000 
0.336526 0.227000 0.000000 
0.286889 0.414729 0.000000 
0.308373 0.392089 0.000000 
0.225607 0.220756 0.000000 
0.339574 0.301305 0.000000 
0.293700 0.382200 0.000000 
0.326176 0.391401 0.000000 
0.339119 0.407521 0.000000 
0.325020 0.310757 0.000000 
0.338735 0.283072 0.000000 
0.274667 0.388166 0.000000 
0.325949 0.328054 0.000000 
0.309558 0.302944 0.000000 
0.341382 0.335840 0.000000 
0.311459 0.337580 0.000000 
0.295067 0.312449 0.000000 
0.308726 0.283616 0.000000 
0.355916 0.326353 0.000000 
0.312513 0.356072 0.000000 
0.296028 0.329778 0.000000 
0.281568 0.339306 0.000000 
0.280153 0.356482 0.000000 
0.295678 0.365460 0.000000 
0.259669 0.367214 0.000000 
0.266141 0.331500 0.000000 
0.247707 0.341015 0.000000 
0.265178 0.314177 0.000000 
0.242650 0.359552 0.000000 
0.222161 0.369237 0.000000 
0.226409 0.332510 0.000000 
0.249757 0.306386 0.000000 
0.279649 0.304659 0.000000 
0.229419 0.315201 0.000000 
0.248825 0.289095 0.000000 
0.278732 0.287383 0.000000 
0.231942 0.274873 0.000000 
0.263318 0.279598 0.000000 
0.262397 0.262316 0.000000 
0.248638 0.250569 0.000000 
0.253006 0.230020 0.000000 
0.276904 0.252832 0.000000 
0.271303 0.232854 0.000000 
0.292398 0.258559 0.000000 
0.307940 0.247573 0.000000 
0.347829 0.212390 0.000000 
0.243754 0.397015 0.000000 
0.256161 0.382158 0.000000 
0.269994 0.192260 0.000000 
0.385875 0.367367 0.000000 
0.379662 0.384443 0.000000 
0.372527 0.355089 0.000000 
0.354971 0.360670 0.000000 
0.350870 0.377910 0.000000 
0.332477 0.379668 0.000000 
0.326592 0.362998 0.000000 
0.340968 0.352288 0.000000 
0.186410 0.308675 0.000000 
0.407431 0.339297 0.000000 
0.387955 0.331902 0.000000 
0.293305 0.275828 0.000000 
0.332685 0.421057 0.000000 
0.338576 0.441432 0.000000 
0.193916 0.258693 0.000000 
0.232673 0.253627 0.000000 
0.323343 0.273189 0.000000 
0.320389 0.188493 0.000000 
0.272187 0.404017 0.000000 
0.243159 0.215927 0.000000 
0.416383 0.351924 0.000000 
0.439669 0.351945 0.000000 
0.412758 0.244784 0.000000 
0.427060 0.226629 0.000000 
0.206021 0.341286 0.000000 
0.229397 0.403046 0.000000 
0.224486 0.425676 0.000000 
0.362214 0.389405 0.000000 
0.403739 0.309182 0.000000 
0.373067 0.337231 0.000000 
0.365917 0.214549 0.000000 
0.206831 0.359479 0.000000 
0.410975 0.292538 0.000000 
0.319056 0.219440 0.000000 
0.305961 0.232233 0.000000 
0.309591 0.202154 0.000000 
0.284820 0.223244 0.000000 
0.163102 0.244681 0.000000 
0.286369 0.203894 0.000000 
0.217037 0.292037 0.000000 
0.199846 0.285135 0.000000 
0.682676 0.887254 0.000000 
0.579393 0.549336 0.000000 
0.886925 0.725139 0.000000 
0.513449 0.753867 0.000000 
0.792301 0.531615 0.000000 
0.738211 0.880420 0.000000 
0.577926 0.846145 0.000000 
0.682584 0.506734 0.000000 
0.836897 0.826780 0.000000 
0.512929 0.640398 0.000000 
0.868826 0.614085 0.000000 
0.627122 0.875871 0.000000 
0.628228 0.521586 0.000000 
0.868923 0.779751 0.000000 
0.506161 0.696920 0.000000 
0.837419 0.565964 0.000000 
0.539219 0.804470 0.000000 
0.739326 0.510899 0.000000 
0.793501 0.863618 0.000000 
0.538781 0.588961 0.000000 
0.885609 0.668441 0.000000 
0.654466 0.882990 0.000000 
0.600782 0.531114 0.000000 
0.876990 0.752186 0.000000 
0.510513 0.724854 0.000000 
0.815873 0.547692 0.000000 
0.710825 0.888487 0.000000 
0.555562 0.827737 0.000000 
0.710963 0.504950 0.000000 
0.815983 0.846186 0.000000 
0.525217 0.614250 0.000000 
0.880981 0.640380 0.000000 
0.602989 0.860148 0.000000 
0.654366 0.510998 0.000000 
0.855952 0.805667 0.000000 
0.508304 0.668465 0.000000 
0.852334 0.590593 0.000000 
0.524963 0.779771 0.000000 
0.767476 0.517754 0.000000 
0.766693 0.874625 0.000000 
0.559170 0.569298 0.000000 
0.887755 0.696887 0.000000 
0.669809 0.876957 0.000000 
0.672455 0.859500 0.000000 
0.659601 0.849275 0.000000 
0.687764 0.853530 0.000000 
0.645682 0.855929 0.000000 
0.643193 0.872188 0.000000 
0.631116 0.847578 0.000000 
0.619348 0.860194 0.000000 
0.661130 0.832245 0.000000 
0.691353 0.836811 0.000000 
0.699006 0.863956 0.000000 
0.714991 0.860068 0.000000 
0.696566 0.880224 0.000000 
0.722494 0.875596 0.000000 
0.647131 0.822120 0.000000 
0.677572 0.825752 0.000000 
0.706087 0.832693 0.000000 
0.539252 0.787994 0.000000 
0.554579 0.779177 0.000000 
0.554583 0.762770 0.000000 
0.568795 0.787403 0.000000 
0.540641 0.755958 0.000000 
0.526349 0.764141 0.000000 
0.537835 0.738958 0.000000 
0.520615 0.737604 0.000000 
0.568881 0.753365 0.000000 
0.584131 0.779788 0.000000 
0.567383 0.803196 0.000000 
0.579114 0.815827 0.000000 
0.553131 0.811443 0.000000 
0.571644 0.831375 0.000000 
0.568095 0.736139 0.000000 
0.584212 0.762158 0.000000 
0.596714 0.791487 0.000000 
0.595860 0.845297 0.000000 
0.603580 0.826443 0.000000 
0.820819 0.830428 0.000000 
0.808801 0.817481 0.000000 
0.792790 0.821161 0.000000 
0.813664 0.801790 0.000000 
0.789461 0.836678 0.000000 
0.800635 0.848757 0.000000 
0.774523 0.845296 0.000000 
0.777062 0.862359 0.000000 
0.780415 0.809354 0.000000 
0.802812 0.788568 0.000000 
0.829386 0.799628 0.000000 
0.839093 0.785373 0.000000 
0.840601 0.811672 0.000000 
0.855920 0.789179 0.000000 
0.763767 0.813984 0.000000 
0.785577 0.792456 0.000000 
0.811429 0.773674 0.000000 
0.517715 0.710034 0.000000 
0.548503 0.709862 0.000000 
0.574690 0.565167 0.000000 
0.586282 0.577689 0.000000 
0.602017 0.573760 0.000000 
0.581371 0.593294 0.000000 
0.605269 0.558417 0.000000 
0.594020 0.546304 0.000000 
0.621035 0.551685 0.000000 
0.618257 0.534436 0.000000 
0.614439 0.585565 0.000000 
0.592155 0.606483 0.000000 
0.565425 0.595176 0.000000 
0.555453 0.609138 0.000000 
0.554554 0.583444 0.000000 
0.538420 0.605060 0.000000 
0.630882 0.580719 0.000000 
0.609327 0.602516 0.000000 
0.586106 0.622546 0.000000 
0.799438 0.546485 0.000000 
0.789501 0.561104 0.000000 
0.796652 0.575901 0.000000 
0.773139 0.559880 0.000000 
0.812066 0.575921 0.000000 
0.821349 0.562325 0.000000 
0.821566 0.589766 0.000000 
0.837625 0.583472 0.000000 
0.787912 0.590621 0.000000 
0.762692 0.573433 0.000000 
0.767526 0.545025 0.000000 
0.751479 0.538746 0.000000 
0.776754 0.531383 0.000000 
0.751421 0.521477 0.000000 
0.796131 0.605821 0.000000 
0.770319 0.589380 0.000000 
0.745568 0.571358 0.000000 
0.878448 0.683290 0.000000 
0.860844 0.684629 0.000000 
0.853747 0.699448 0.000000 
0.851606 0.671052 0.000000 
0.863341 0.711520 0.000000 
0.879744 0.710299 0.000000 
0.858451 0.727588 0.000000 
0.873379 0.736230 0.000000 
0.836808 0.701780 0.000000 
0.834510 0.671309 0.000000 
0.859710 0.657403 0.000000 
0.854623 0.640928 0.000000 
0.876109 0.656131 0.000000 
0.868082 0.630133 0.000000 
0.830061 0.717690 0.000000 
0.826811 0.687219 0.000000 
0.828244 0.655289 0.000000 
0.852317 0.607082 0.000000 
0.837203 0.620759 0.000000 
0.644326 0.525281 0.000000 
0.653121 0.556529 0.000000 
0.723863 0.515231 0.000000 
0.716397 0.530788 0.000000 
0.515500 0.683360 0.000000 
0.531699 0.685874 0.000000 
0.541002 0.672372 0.000000 
0.533920 0.702567 0.000000 
0.534345 0.657601 0.000000 
0.517845 0.656205 0.000000 
0.539516 0.641216 0.000000 
0.525953 0.630294 0.000000 
0.558163 0.672716 0.000000 
0.569459 0.655774 0.000000 
0.563402 0.693475 0.000000 
0.669760 0.517065 0.000000 
0.672496 0.534583 0.000000 
0.687781 0.540516 0.000000 
0.656793 0.540589 0.000000 
0.699208 0.529526 0.000000 
0.696728 0.513244 0.000000 
0.722720 0.547612 0.000000 
0.689856 0.558978 0.000000 
0.707604 0.564809 0.000000 
0.670893 0.568977 0.000000 
0.864099 0.762458 0.000000 
0.843992 0.759155 0.000000 
0.749413 0.868328 0.000000 
0.746466 0.845175 0.000000 
0.631037 0.830798 0.000000 
0.761206 0.834409 0.000000 
0.814374 0.604950 0.000000 
0.550992 0.728543 0.000000 
0.634212 0.562170 0.000000 
0.842111 0.731426 0.000000 
0.709536 0.815740 0.000000 
0.800310 0.760413 0.000000 
0.735159 0.585177 0.000000 
0.612149 0.783621 0.000000 
0.597113 0.635724 0.000000 
0.810955 0.655731 0.000000 
0.648859 0.804912 0.000000 
0.751375 0.801911 0.000000 
0.787133 0.620616 0.000000 
0.582659 0.726797 0.000000 
0.643237 0.592719 0.000000 
0.812900 0.719867 0.000000 
0.718484 0.845526 0.000000 
0.831988 0.772643 0.000000 
0.739966 0.551527 0.000000 
0.593114 0.811740 0.000000 
0.565336 0.623299 0.000000 
0.840253 0.638557 0.000000 
0.698181 0.802870 0.000000 
0.614119 0.632621 0.000000 
0.791135 0.637982 0.000000 
0.777010 0.650809 0.000000 
0.777044 0.667153 0.000000 
0.762901 0.642648 0.000000 
0.795430 0.671248 0.000000 
0.762886 0.676719 0.000000 
0.747594 0.650220 0.000000 
0.768507 0.624610 0.000000 
0.763790 0.693975 0.000000 
0.747546 0.667949 0.000000 
0.733130 0.640837 0.000000 
0.779565 0.705915 0.000000 
0.749327 0.703485 0.000000 
0.717719 0.648688 0.000000 
0.730649 0.621135 0.000000 
0.680949 0.808764 0.000000 
0.702576 0.786248 0.000000 
0.620331 0.615546 0.000000 
0.733911 0.695702 0.000000 
0.687880 0.776355 0.000000 
0.720506 0.785708 0.000000 
0.733558 0.801948 0.000000 
0.719418 0.705196 0.000000 
0.733029 0.677416 0.000000 
0.668766 0.782259 0.000000 
0.720335 0.722472 0.000000 
0.704005 0.697414 0.000000 
0.735759 0.730264 0.000000 
0.705829 0.731954 0.000000 
0.689494 0.706898 0.000000 
0.703132 0.678039 0.000000 
0.750257 0.720771 0.000000 
0.706835 0.750382 0.000000 
0.690403 0.724162 0.000000 
0.675861 0.733617 0.000000 
0.674380 0.750717 0.000000 
0.689924 0.759690 0.000000 
0.653787 0.761358 0.000000 
0.660402 0.725802 0.000000 
0.641867 0.735230 0.000000 
0.659490 0.708542 0.000000 
0.636734 0.753685 0.000000 
0.616146 0.763287 0.000000 
0.620513 0.726698 0.000000 
0.644026 0.700730 0.000000 
0.674042 0.699093 0.000000 
0.623584 0.709459 0.000000 
0.643136 0.683483 0.000000 
0.673129 0.681818 0.000000 
0.626287 0.669310 0.000000 
0.657686 0.674019 0.000000 
0.656792 0.656754 0.000000 
0.643090 0.645075 0.000000 
0.647508 0.624558 0.000000 
0.671281 0.647227 0.000000 
0.665700 0.627264 0.000000 
0.686752 0.652918 0.000000 
0.702225 0.641854 0.000000 
0.741873 0.606445 0.000000 
0.637729 0.791015 0.000000 
0.650220 0.776235 0.000000 
0.664376 0.586644 0.000000 
0.780503 0.762085 0.000000 
0.774384 0.779232 0.000000 
0.767017 0.749659 0.000000 
0.749431 0.755178 0.000000 
0.745365 0.772431 0.000000 
0.726857 0.774045 0.000000 
0.720948 0.757356 0.000000 
0.735366 0.746720 0.000000 
0.580445 0.702811 0.000000 
0.801828 0.733830 0.000000 
0.782292 0.726360 0.000000 
0.687703 0.670240 0.000000 
0.726982 0.815355 0.000000 
0.732760 0.835687 0.000000 
0.588381 0.653266 0.000000 
0.627149 0.648179 0.000000 
0.717666 0.667538 0.000000 
0.714442 0.582543 0.000000 
0.666235 0.798049 0.000000 
0.637781 0.610589 0.000000 
0.810879 0.746525 0.000000 
0.834001 0.746298 0.000000 
0.806694 0.638805 0.000000 
0.820933 0.620566 0.000000 
0.600029 0.735396 0.000000 
0.623314 0.796999 0.000000 
0.618353 0.819578 0.000000 
0.756832 0.784059 0.000000 
0.797857 0.703455 0.000000 
0.767448 0.731706 0.000000 
0.759910 0.608570 0.000000 
0.600794 0.753530 0.000000 
0.805019 0.686716 0.000000 
0.713210 0.613585 0.000000 
0.700199 0.626456 0.000000 
0.703725 0.596258 0.000000 
0.679131 0.617544 0.000000 
0.557472 0.639047 0.000000 
0.680640 0.598137 0.000000 
0.611236 0.686355 0.000000 
0.594054 0.679477 0.000000 
VECTORS X_EC float 
-0.866359 0.777830 0.000000 
-0.075942 0.680145 0.000000 
0.373281 0.859615 0.000000 
-0.201012 -0.607168 0.000000 
0.243839 0.970480 0.000000 
-0.727873 -0.111990 0.000000 
-0.046561 0.682812 0.000000 
0.745276 0.776241 0.000000 
0.386306 -0.183789 0.000000 
0.068346 -0.620988 0.000000 
0.595182 0.500841 0.000000 
-0.640962 -0.333470 0.000000 
0.451114 -0.313418 0.000000 
-0.715008 0.495221 0.000000 
0.937224 -0.754966 0.000000 
-0.442455 -0.127265 0.000000 
0.787340 -0.090859 0.000000 
0.659725 -0.088810 0.000000 
-0.386213 0.988706 0.000000 
-0.886488 -0.119184 0.000000 
-0.492416 0.835035 0.000000 
-0.782316 0.213499 0.000000 
0.264323 -0.866064 0.000000 
-0.166216 0.659298 0.000000 
0.379024 -0.666935 0.000000 
-0.077299 -0.558164 0.000000 
-0.889989 -0.659199 0.000000 
0.321930 0.235707 0.000000 
0.779828 -0.655789 0.000000 
-0.012994 -0.588060 0.000000 
0.595004 -0.378515 0.000000 
0.069019 0.743346 0.000000 
-0.326965 -0.816126 0.000000 
0.660536 0.211743 0.000000 
0.779395 0.223803 0.000000 
-0.493426 -0.712809 0.000000 
-0.934986 0.171099 0.000000 
-0.718729 -0.376181 0.000000 
0.521587 0.474064 0.000000 
-0.610429 0.456529 0.000000 
-0.464113 0.261869 0.000000 
0.938497 0.876970 0.000000 
-0.660770 0.519880 0.000000 
-0.311049 0.571651 0.000000 
-0.106793 0.314283 0.000000 
-0.190834 0.877052 0.000000 
-0.240672 0.036613 0.000000 
-0.566467 -0.012376 0.000000 
-0.073979 -0.254641 0.000000 
-0.327231 -0.489295 0.000000 
0.234349 0.343858 0.000000 
0.144092 0.947430 0.000000 
-0.399094 -0.897569 0.000000 
-0.320148 -0.578983 0.000000 
-0.724949 -0.945013 0.000000 
-0.631208 -0.427238 0.000000 
0.436614 0.063986 0.000000 
0.365016 0.671596 0.000000 
0.227551 -0.759145 0.000000 
-0.882884 -0.090510 0.000000 
-0.705825 0.215197 0.000000 
-0.377153 0.214568 0.000000 
-0.870220 0.499461 0.000000 
-0.241402 -0.064120 0.000000 
-0.405917 -0.349163 0.000000 
0.098787 -0.120872 0.000000 
0.124714 -0.464733 0.000000 
-0.187954 0.499634 0.000000 
-0.717040 0.805347 0.000000 
0.813358 0.471726 0.000000 
0.560613 0.706222 0.000000 
0.648007 0.187081 0.000000 
0.249187 0.557109 0.000000 
0.157290 0.483172 0.000000 
-0.363442 0.806145 0.000000 
-0.951310 -0.942787 0.000000 
-0.029565 -0.958784 0.000000 
0.348364 -0.804932 0.000000 
0.303650 -0.494091 0.000000 
0.554093 -0.725907 0.000000 
0.475413 0.959523 0.000000 
0.866240 -0.627808 0.000000 
0.160039 0.898787 0.000000 
-0.082082 -0.876400 0.000000 
-0.016631 0.604401 0.000000 
-0.361770 0.660144 0.000000 
0.711520 0.711044 0.000000 
-0.869934 -0.843402 0.000000 
0.903784 -0.308952 0.000000 
-0.817059 -0.109438 0.000000 
0.669156 -0.091552 0.000000 
-0.898728 0.231145 0.000000 