# vtk DataFile Version 3.0 
vtk output 
ASCII 
DATASET UNSTRUCTURED_GRID 
POINTS 616 float 
0.225743 0.430247 0.000000 
0.121050 0.090842 0.000000 
0.429931 0.268227 0.000000 
0.056575 0.296893 0.000000 
0.335390 0.074779 0.000000 
0.281239 0.423394 0.000000 
0.121050 0.389158 0.000000 
0.225743 0.049753 0.000000 
0.379852 0.369764 0.000000 
0.055966 0.183514 0.000000 
0.411887 0.157223 0.000000 
0.170217 0.418888 0.000000 
0.171321 0.064487 0.000000 
0.411887 0.322777 0.000000 
0.049219 0.240000 0.000000 
0.380489 0.109105 0.000000 
0.082370 0.347470 0.000000 
0.282453 0.054003 0.000000 
0.336487 0.406582 0.000000 
0.081094 0.131334 0.000000 
0.428650 0.211566 0.000000 
0.197547 0.425997 0.000000 
0.143717 0.073834 0.000000 
0.419973 0.295241 0.000000 
0.053605 0.267902 0.000000 
0.358950 0.090842 0.000000 
0.253875 0.431469 0.000000 
0.098699 0.370741 0.000000 
0.254118 0.048011 0.000000 
0.358950 0.389158 0.000000 
0.068113 0.157223 0.000000 
0.424034 0.183514 0.000000 
0.146096 0.403168 0.000000 
0.197547 0.054003 0.000000 
0.398906 0.348666 0.000000 
0.051350 0.211566 0.000000 
0.395400 0.133734 0.000000 
0.068113 0.322777 0.000000 
0.310581 0.060898 0.000000 
0.309700 0.417593 0.000000 
0.100148 0.110236 0.000000 
0.430781 0.240000 0.000000 
0.212877 0.419951 0.000000 
0.215510 0.402479 0.000000 
0.202660 0.392254 0.000000 
0.230803 0.396495 0.000000 
0.188756 0.398921 0.000000 
0.186276 0.415194 0.000000 
0.174198 0.390572 0.000000 
0.162444 0.403204 0.000000 
0.204178 0.375210 0.000000 
0.234376 0.379762 0.000000 
0.242045 0.406925 0.000000 
0.258019 0.403033 0.000000 
0.239618 0.423205 0.000000 
0.265528 0.418569 0.000000 
0.190189 0.365086 0.000000 
0.220601 0.368703 0.000000 
0.249098 0.375641 0.000000 
0.082398 0.330992 0.000000 
0.097699 0.322157 0.000000 
0.097682 0.305735 0.000000 
0.111913 0.330383 0.000000 
0.083744 0.298938 0.000000 
0.069476 0.307146 0.000000 
0.080919 0.281936 0.000000 
0.063714 0.280622 0.000000 
0.111954 0.296296 0.000000 
0.127223 0.322743 0.000000 
0.110512 0.346189 0.000000 
0.122235 0.358824 0.000000 
0.096271 0.354442 0.000000 
0.114771 0.374381 0.000000 
0.111147 0.279046 0.000000 
0.127281 0.305078 0.000000 
0.139812 0.334456 0.000000 
0.138972 0.388309 0.000000 
0.146681 0.369439 0.000000 
0.363780 0.373403 0.000000 
0.351762 0.360451 0.000000 
0.335756 0.364122 0.000000 
0.356619 0.344763 0.000000 
0.332435 0.379639 0.000000 
0.343611 0.391723 0.000000 
0.317509 0.388256 0.000000 
0.320056 0.405323 0.000000 
0.323377 0.352309 0.000000 
0.345764 0.331537 0.000000 
0.372341 0.342612 0.000000 
0.382050 0.328371 0.000000 
0.383556 0.354660 0.000000 
0.398878 0.332187 0.000000 
0.306739 0.356934 0.000000 
0.328529 0.335411 0.000000 
0.354382 0.316658 0.000000 
0.060780 0.253067 0.000000 
0.091539 0.252794 0.000000 
0.116220 0.106597 0.000000 
0.128238 0.119549 0.000000 
0.144244 0.115878 0.000000 
0.123381 0.135237 0.000000 
0.147769 0.100777 0.000000 
0.136593 0.088693 0.000000 
0.163716 0.094239 0.000000 
0.161169 0.077173 0.000000 
0.156623 0.127691 0.000000 
0.134236 0.148463 0.000000 
0.107659 0.137388 0.000000 
0.097950 0.151629 0.000000 
0.096444 0.125340 0.000000 
0.081122 0.147813 0.000000 
0.173261 0.123066 0.000000 
0.151471 0.144589 0.000000 
0.128380 0.164709 0.000000 
0.342515 0.089638 0.000000 
0.332562 0.104237 0.000000 
0.339702 0.119025 0.000000 
0.316187 0.102993 0.000000 
0.355123 0.119051 0.000000 
0.364417 0.105466 0.000000 
0.364616 0.132889 0.000000 
0.380687 0.126608 0.000000 
0.330940 0.133722 0.000000 
0.305707 0.116519 0.000000 
0.310590 0.088144 0.000000 
0.294547 0.081847 0.000000 
0.319841 0.074529 0.000000 
0.294522 0.064592 0.000000 
0.339152 0.148914 0.000000 
0.313320 0.132460 0.000000 
0.288566 0.114425 0.000000 
0.421474 0.226400 0.000000 
0.403855 0.227721 0.000000 
0.396745 0.242524 0.000000 
0.394618 0.214142 0.000000 
0.406340 0.254596 0.000000 
0.422756 0.253393 0.000000 
0.401439 0.270646 0.000000 
0.416370 0.279295 0.000000 
0.379791 0.244836 0.000000 
0.377509 0.214383 0.000000 
0.402738 0.200509 0.000000 
0.397658 0.184040 0.000000 
0.419150 0.199253 0.000000 
0.411133 0.173262 0.000000 
0.373034 0.260728 0.000000 
0.369792 0.230273 0.000000 
0.371250 0.198368 0.000000 
0.395372 0.150213 0.000000 
0.380239 0.163869 0.000000 
0.187380 0.068181 0.000000 
0.195905 0.099262 0.000000 
0.266984 0.058307 0.000000 
0.259475 0.073843 0.000000 
0.058526 0.226400 0.000000 
0.074705 0.228843 0.000000 
0.083942 0.215264 0.000000 
0.076960 0.245545 0.000000 
0.077262 0.200509 0.000000 
0.060850 0.199253 0.000000 
0.082342 0.184040 0.000000 
0.068867 0.173262 0.000000 
0.101051 0.215505 0.000000 
0.112169 0.198372 0.000000 
0.106393 0.236332 0.000000 
0.212877 0.060049 0.000000 
0.215510 0.077521 0.000000 
0.230803 0.083505 0.000000 
0.199728 0.083435 0.000000 
0.242288 0.072555 0.000000 
0.239861 0.056274 0.000000 
0.265753 0.090665 0.000000 
0.232813 0.101958 0.000000 
0.250576 0.107831 0.000000 
0.213696 0.111801 0.000000 
0.407072 0.305493 0.000000 
0.386959 0.302176 0.000000 
0.292427 0.411295 0.000000 
0.289466 0.388134 0.000000 
0.174113 0.373780 0.000000 
0.304192 0.377365 0.000000 
0.357407 0.148055 0.000000 
0.094049 0.271483 0.000000 
0.176829 0.104714 0.000000 
0.385087 0.274466 0.000000 
0.252534 0.358677 0.000000 
0.343261 0.303396 0.000000 
0.278111 0.128218 0.000000 
0.155216 0.326566 0.000000 
0.139501 0.177971 0.000000 
0.353947 0.198794 0.000000 
0.191906 0.347864 0.000000 
0.294345 0.344854 0.000000 
0.330132 0.163685 0.000000 
0.125682 0.269651 0.000000 
0.185655 0.135146 0.000000 
0.355862 0.262886 0.000000 
0.261499 0.388483 0.000000 
0.374946 0.315644 0.000000 
0.283001 0.094602 0.000000 
0.136224 0.354731 0.000000 
0.107816 0.165723 0.000000 
0.383279 0.181658 0.000000 
0.241174 0.345796 0.000000 
0.156553 0.174955 0.000000 
0.334125 0.181041 0.000000 
0.319967 0.193831 0.000000 
0.319988 0.210157 0.000000 
0.305839 0.185650 0.000000 
0.338397 0.214283 0.000000 
0.305796 0.219679 0.000000 
0.290497 0.193180 0.000000 
0.311470 0.167644 0.000000 
0.306693 0.236919 0.000000 
0.290433 0.210882 0.000000 
0.276015 0.183783 0.000000 
0.322496 0.248894 0.000000 
0.292211 0.246394 0.000000 
0.260568 0.191587 0.000000 
0.273545 0.164110 0.000000 
0.223964 0.351700 0.000000 
0.245547 0.329160 0.000000 
0.162668 0.157818 0.000000 
0.276762 0.238570 0.000000 
0.230842 0.319250 0.000000 
0.263472 0.328629 0.000000 
0.276536 0.344885 0.000000 
0.262257 0.248036 0.000000 
0.275882 0.220299 0.000000 
0.211764 0.325172 0.000000 
0.263203 0.265330 0.000000 
0.246807 0.240208 0.000000 
0.278654 0.273158 0.000000 
0.248699 0.274797 0.000000 
0.232302 0.249674 0.000000 
0.245928 0.220844 0.000000 
0.293157 0.263687 0.000000 
0.249740 0.293251 0.000000 
0.233248 0.266969 0.000000 
0.218744 0.276435 0.000000 
0.217302 0.293569 0.000000 
0.232847 0.302557 0.000000 
0.196761 0.304237 0.000000 
0.203293 0.268607 0.000000 
0.184807 0.278058 0.000000 
0.202347 0.251313 0.000000 
0.179717 0.296553 0.000000 
0.159174 0.306184 0.000000 
0.163473 0.269510 0.000000 
0.186896 0.243485 0.000000 
0.216852 0.241846 0.000000 
0.166508 0.252232 0.000000 
0.185950 0.226190 0.000000 
0.215906 0.224551 0.000000 
0.169030 0.211929 0.000000 
0.200455 0.216723 0.000000 
0.199509 0.199429 0.000000 
0.185725 0.187655 0.000000 
0.190073 0.167105 0.000000 
0.214013 0.189962 0.000000 
0.208376 0.169959 0.000000 
0.229531 0.195721 0.000000 
0.245051 0.184736 0.000000 
0.284803 0.149462 0.000000 
0.180778 0.333959 0.000000 
0.193228 0.319146 0.000000 
0.207015 0.129334 0.000000 
0.323447 0.305045 0.000000 
0.317332 0.322182 0.000000 
0.309952 0.292606 0.000000 
0.292362 0.298104 0.000000 
0.288311 0.315360 0.000000 
0.269805 0.316960 0.000000 
0.263871 0.300250 0.000000 
0.278281 0.289624 0.000000 
0.123440 0.245626 0.000000 
0.344782 0.276830 0.000000 
0.325231 0.269337 0.000000 
0.230477 0.213016 0.000000 
0.269971 0.358296 0.000000 
0.275761 0.378640 0.000000 
0.130965 0.195695 0.000000 
0.169751 0.190688 0.000000 
0.260498 0.210401 0.000000 
0.257369 0.125561 0.000000 
0.209258 0.340986 0.000000 
0.180214 0.153002 0.000000 
0.353836 0.289525 0.000000 
0.376969 0.289320 0.000000 
0.349696 0.181878 0.000000 
0.363958 0.163664 0.000000 
0.143036 0.278232 0.000000 
0.166386 0.339961 0.000000 
0.161439 0.362560 0.000000 
0.299786 0.326998 0.000000 
0.340809 0.246469 0.000000 
0.310374 0.274655 0.000000 
0.302870 0.151610 0.000000 
0.143828 0.296410 0.000000 
0.347983 0.229748 0.000000 
0.256082 0.156546 0.000000 
0.243035 0.169368 0.000000 
0.246597 0.139242 0.000000 
0.221878 0.160350 0.000000 
0.100140 0.181662 0.000000 
0.223393 0.140981 0.000000 
0.154108 0.229050 0.000000 
0.136894 0.222121 0.000000 
0.745743 0.950247 0.000000 
0.641050 0.610842 0.000000 
0.949931 0.788227 0.000000 
0.576575 0.816893 0.000000 
0.855390 0.594779 0.000000 
0.801239 0.943394 0.000000 
0.641050 0.909158 0.000000 
0.745743 0.569753 0.000000 
0.899852 0.889764 0.000000 
0.575966 0.703514 0.000000 
0.931887 0.677223 0.000000 
0.690217 0.938888 0.000000 
0.691321 0.584487 0.000000 
0.931887 0.842777 0.000000 
0.569219 0.760000 0.000000 
0.900489 0.629105 0.000000 
0.602370 0.867470 0.000000 
0.802453 0.574003 0.000000 
0.856487 0.926582 0.000000 
0.601094 0.651334 0.000000 
0.948650 0.731566 0.000000 
0.717547 0.945997 0.000000 
0.663717 0.593834 0.000000 
0.939973 0.815241 0.000000 
0.573605 0.787902 0.000000 
0.878950 0.610842 0.000000 
0.773875 0.951469 0.000000 
0.618699 0.890741 0.000000 
0.774118 0.568011 0.000000 
0.878950 0.909158 0.000000 
0.588113 0.677223 0.000000 
0.944034 0.703514 0.000000 
0.666096 0.923168 0.000000 
0.717547 0.574003 0.000000 
0.918906 0.868666 0.000000 
0.571350 0.731566 0.000000 
0.915400 0.653734 0.000000 
0.588113 0.842777 0.000000 
0.830581 0.580898 0.000000 
0.829700 0.937593 0.000000 
0.620148 0.630236 0.000000 
0.950781 0.760000 0.000000 
0.732877 0.939951 0.000000 
0.735510 0.922479 0.000000 
0.722660 0.912254 0.000000 
[...]
POINT_DATA 616 
VECTORS X_GC float 
0.225743 0.430247 0.000000 
0.121050 0.090842 0.000000 
0.429931 0.268227 0.000000 
0.056575 0.296893 0.000000 
0.335390 0.074779 0.000000 
0.281239 0.423394 0.000000 
0.121050 0.389158 0.000000 
0.225743 0.049753 0.000000 
0.379852 0.369764 0.000000 
0.055966 0.183514 0.000000 
0.411887 0.157223 0.000000 
0.170217 0.418888 0.000000 
0.171321 0.064487 0.000000 
0.411887 0.322777 0.000000 
0.049219 0.240000 0.000000 
0.380489 0.109105 0.000000 
0.082370 0.347470 0.000000 
0.282453 0.054003 0.000000 
0.336487 0.406582 0.000000 
0.081094 0.131334 0.000000 
0.428650 0.211566 0.000000 
0.197547 0.425997 0.000000 
0.143717 0.073834 0.000000 
0.419973 0.295241 0.000000 
0.053605 0.267902 0.000000 
0.358950 0.090842 0.000000 
0.253875 0.431469 0.000000 
0.098699 0.370741 0.000000 
0.254118 0.048011 0.000000 
0.358950 0.389158 0.000000 
0.068113 0.157223 0.000000 
0.424034 0.183514 0.000000 
0.146096 0.403168 0.000000 
0.197547 0.054003 0.000000 
0.398906 0.348666 0.000000 
0.051350 0.211566 0.000000 
0.395400 0.133734 0.000000 
0.068113 0.322777 0.000000 
0.310581 0.060898 0.000000 
0.309700 0.417593 0.000000 
0.100148 0.110236 0.000000 
0.430781 0.240000 0.000000 
0.212877 0.419951 0.000000 
0.215510 0.402479 0.000000 
0.202660 0.392254 0.000000 
0.230803 0.396495 0.000000 
0.188756 0.398921 0.000000 
0.186276 0.415194 0.000000 
0.174198 0.390572 0.000000 
0.162444 0.403204 0.000000 
0.204178 0.375210 0.000000 
0.234376 0.379762 0.000000 
0.242045 0.406925 0.000000 
0.258019 0.403033 0.000000 
0.239618 0.423205 0.000000 
0.265528 0.418569 0.000000 
0.190189 0.365086 0.000000 
0.220601 0.368703 0.000000 
0.249098 0.375641 0.000000 
0.082398 0.330992 0.000000 
0.097699 0.322157 0.000000 
0.097682 0.305735 0.000000 
0.111913 0.330383 0.000000 
0.083744 0.298938 0.000000 
0.069476 0.307146 0.000000 
0.080919 0.281936 0.000000 
0.063714 0.280622 0.000000 
0.111954 0.296296 0.000000 
0.127223 0.322743 0.000000 
0.110512 0.346189 0.000000 
0.122235 0.358824 0.000000 
0.096271 0.354442 0.000000 
0.114771 0.374381 0.000000 
0.111147 0.279046 0.000000 
0.127281 0.305078 0.000000 
0.139812 0.334456 0.000000 
0.138972 0.388309 0.000000 
0.146681 0.369439 0.000000 
0.363780 0.373403 0.000000 
0.351762 0.360451 0.000000 
0.335756 0.364122 0.000000 
0.356619 0.344763 0.000000 
0.332435 0.379639 0.000000 
0.343611 0.391723 0.000000 
0.317509 0.388256 0.000000 
0.320056 0.405323 0.000000 
0.323377 0.352309 0.000000 
0.345764 0.331537 0.000000 
0.372341 0.342612 0.000000 
0.382050 0.328371 0.000000 
0.383556 0.354660 0.000000 
0.398878 0.332187 0.000000 
0.306739 0.356934 0.000000 
0.328529 0.335411 0.000000 
0.354382 0.316658 0.000000 
0.060780 0.253067 0.000000 
0.091539 0.252794 0.000000 
0.116220 0.106597 0.000000 
0.128238 0.119549 0.000000 
0.144244 0.115878 0.000000 
0.123381 0.135237 0.000000 
0.147769 0.100777 0.000000 
0.136593 0.088693 0.000000 
0.163716 0.094239 0.000000 
0.161169 0.077173 0.000000 
0.156623 0.127691 0.000000 
0.134236 0.148463 0.000000 
0.107659 0.137388 0.000000 
0.097950 0.151629 0.000000 
0.096444 0.125340 0.000000 
0.081122 0.147813 0.000000 
0.173261 0.123066 0.000000 
0.151471 0.144589 0.000000 
0.128380 0.164709 0.000000 
0.342515 0.089638 0.000000 
0.332562 0.104237 0.000000 
0.339702 0.119025 0.000000 
0.316187 0.102993 0.000000 
0.355123 0.119051 0.000000 
0.364417 0.105466 0.000000 
0.364616 0.132889 0.000000 
0.380687 0.126608 0.000000 
0.330940 0.133722 0.000000 
0.305707 0.116519 0.000000 
0.310590 0.088144 0.000000 
0.294547 0.081847 0.000000 
0.319841 0.074529 0.000000 
0.294522 0.064592 0.000000 
0.339152 0.148914 0.000000 
0.313320 0.132460 0.000000 
0.288566 0.114425 0.000000 
0.421474 0.226400 0.000000 
0.403855 0.227721 0.000000 
0.396745 0.242524 0.000000 
0.394618 0.214142 0.000000 
0.406340 0.254596 0.000000 
0.422756 0.253393 0.000000 
0.401439 0.270646 0.000000 
0.416370 0.279295 0.000000 
0.379791 0.244836 0.000000 
0.377509 0.214383 0.000000 
0.402738 0.200509 0.000000 
0.397658 0.184040 0.000000 
0.419150 0.199253 0.000000 
0.411133 0.173262 0.000000 
0.373034 0.260728 0.000000 
0.369792 0.230273 0.000000 
0.371250 0.198368 0.000000 
0.395372 0.150213 0.000000 
0.380239 0.163869 0.000000 
0.187380 0.068181 0.000000 
0.195905 0.099262 0.000000 
0.266984 0.058307 0.000000 
0.259475 0.073843 0.000000 
0.058526 0.226400 0.000000 
0.074705 0.228843 0.000000 
0.083942 0.215264 0.000000 
0.076960 0.245545 0.000000 
0.077262 0.200509 0.000000 
0.060850 0.199253 0.000000 
0.082342 0.184040 0.000000 
0.068867 0.173262 0.000000 
0.101051 0.215505 0.000000 
0.112169 0.198372 0.000000 
0.106393 0.236332 0.000000 
0.212877 0.060049 0.000000 
0.215510 0.077521 0.000000 
0.230803 0.083505 0.000000 
0.199728 0.083435 0.000000 
0.242288 0.072555 0.000000 
0.239861 0.056274 0.000000 
0.265753 0.090665 0.000000 
0.232813 0.101958 0.000000 
0.250576 0.107831 0.000000 
0.213696 0.111801 0.000000 
0.407072 0.305493 0.000000 
0.386959 0.302176 0.000000 
0.292427 0.411295 0.000000 
0.289466 0.388134 0.000000 
0.174113 0.373780 0.000000 
0.304192 0.377365 0.000000 
0.357407 0.148055 0.000000 
0.094049 0.271483 0.000000 
0.176829 0.104714 0.000000 
0.385087 0.274466 0.000000 
0.252534 0.358677 0.000000 
0.343261 0.303396 0.000000 
0.278111 0.128218 0.000000 
0.155216 0.326566 0.000000 
0.139501 0.177971 0.000000 
0.353947 0.198794 0.000000 
0.191906 0.347864 0.000000 
0.294345 0.344854 0.000000 
0.330132 0.163685 0.000000 
0.125682 0.269651 0.000000 
0.185655 0.135146 0.000000 
0.355862 0.262886 0.000000 
0.261499 0.388483 0.000000 
0.374946 0.315644 0.000000 
0.283001 0.094602 0.000000 
0.136224 0.354731 0.000000 
0.107816 0.165723 0.000000 
0.383279 0.181658 0.000000 
0.241174 0.345796 0.000000 
0.156553 0.174955 0.000000 
0.334125 0.181041 0.000000 
0.319967 0.193831 0.000000 
0.319988 0.210157 0.000000 
0.305839 0.185650 0.000000 
0.338397 0.214283 0.000000 
0.305796 0.219679 0.000000 
0.290497 0.193180 0.000000 
0.311470 0.167644 0.000000 
0.306693 0.236919 0.000000 
0.290433 0.210882 0.000000 
0.276015 0.183783 0.000000 
0.322496 0.248894 0.000000 
0.292211 0.246394 0.000000 
0.260568 0.191587 0.000000 
0.273545 0.164110 0.000000 
0.223964 0.351700 0.000000 
0.245547 0.329160 0.000000 
0.162668 0.157818 0.000000 
0.276762 0.238570 0.000000 
0.230842 0.319250 0.000000 
0.263472 0.328629 0.000000 
0.276536 0.344885 0.000000 
0.262257 0.248036 0.000000 
0.275882 0.220299 0.000000 
0.211764 0.325172 0.000000 
0.263203 0.265330 0.000000 
0.246807 0.240208 0.000000 
0.278654 0.273158 0.000000 
0.248699 0.274797 0.000000 
0.232302 0.249674 0.000000 
0.245928 0.220844 0.000000 
0.293157 0.263687 0.000000 
0.249740 0.293251 0.000000 
0.233248 0.266969 0.000000 
0.218744 0.276435 0.000000 
0.217302 0.293569 0.000000 
0.232847 0.302557 0.000000 
0.196761 0.304237 0.000000 
0.203293 0.268607 0.000000 
0.184807 0.278058 0.000000 
0.202347 0.251313 0.000000 
0.179717 0.296553 0.000000 
0.159174 0.306184 0.000000 
0.163473 0.269510 0.000000 
0.186896 0.243485 0.000000 
0.216852 0.241846 0.000000 
0.166508 0.252232 0.000000 
0.185950 0.226190 0.000000 
0.215906 0.224551 0.000000 
0.169030 0.211929 0.000000 
0.200455 0.216723 0.000000 
0.199509 0.199429 0.000000 
0.185725 0.187655 0.000000 
0.190073 0.167105 0.000000 
0.214013 0.189962 0.000000 
0.208376 0.169959 0.000000 
0.229531 0.195721 0.000000 
0.245051 0.184736 0.000000 
0.284803 0.149462 0.000000 
0.180778 0.333959 0.000000 
0.193228 0.319146 0.000000 
0.207015 0.129334 0.000000 
0.323447 0.305045 0.000000 
0.317332 0.322182 0.000000 
0.309952 0.292606 0.000000 
0.292362 0.298104 0.000000 
0.288311 0.315360 0.000000 
0.269805 0.316960 0.000000 
0.263871 0.300250 0.000000 
0.278281 0.289624 0.000000 
0.123440 0.245626 0.000000 
0.344782 0.276830 0.000000 
0.325231 0.269337 0.000000 
0.230477 0.213016 0.000000 
0.269971 0.358296 0.000000 
0.275761 0.378640 0.000000 
0.130965 0.195695 0.000000 
0.169751 0.190688 0.000000 
0.260498 0.210401 0.000000 
0.257369 0.125561 0.000000 
0.209258 0.340986 0.000000 
0.180214 0.153002 0.000000 
0.353836 0.289525 0.000000 
0.376969 0.289320 0.000000 
0.349696 0.181878 0.000000 
0.363958 0.163664 0.000000 
0.143036 0.278232 0.000000 
0.166386 0.339961 0.000000 
0.161439 0.362560 0.000000 
0.299786 0.326998 0.000000 
0.340809 0.246469 0.000000 
0.310374 0.274655 0.000000 
0.302870 0.151610 0.000000 
0.143828 0.296410 0.000000 
0.347983 0.229748 0.000000 
0.256082 0.156546 0.000000 
0.243035 0.169368 0.000000 
0.246597 0.139242 0.000000 
0.221878 0.160350 0.000000 
0.100140 0.181662 0.000000 
0.223393 0.140981 0.000000 
0.154108 0.229050 0.000000 
0.136894 0.222121 0.000000 
0.745743 0.950247 0.000000 
0.641050 0.610842 0.000000 
0.949931 0.788227 0.000000 
0.576575 0.816893 0.000000 
0.855390 0.594779 0.000000 
0.801239 0.943394 0.000000 
0.641050 0.909158 0.000000 
0.745743 0.569753 0.000000 
0.899852 0.889764 0.000000 
0.575966 0.703514 0.000000 
0.931887 0.677223 0.000000 
0.690217 0.938888 0.000000 
0.691321 0.584487 0.000000 
0.931887 0.842777 0.000000 
0.569219 0.760000 0.000000 
0.900489 0.629105 0.000000 
0.602370 0.867470 0.000000 
0.802453 0.574003 0.000000 
0.856487 0.926582 0.000000 
0.601094 0.651334 0.000000 
0.948650 0.731566 0.000000 
0.717547 0.945997 0.000000 
0.663717 0.593834 0.000000 
0.939973 0.815241 0.000000 
0.573605 0.787902 0.000000 
0.878950 0.610842 0.000000 
0.773875 0.951469 0.000000 
0.618699 0.890741 0.000000 
0.774118 0.568011 0.000000 
0.878950 0.909158 0.000000 
0.588113 0.677223 0.000000 
0.944034 0.703514 0.000000 
0.666096 0.923168 0.000000 
0.717547 0.574003 0.000000 
0.918906 0.868666 0.000000 
0.571350 0.731566 0.000000 
0.915400 0.653734 0.000000 
0.588113 0.842777 0.000000 
0.830581 0.580898 0.000000 
0.829700 0.937593 0.000000 
0.620148 0.630236 0.000000 
0.950781 0.760000 0.000000 
0.732877 0.939951 0.000000 
0.735510 0.922479 0.000000 
0.722660 0.912254 0.000000 
0.750803 0.916495 0.000000 
0.708756 0.918921 0.000000 
0.706276 0.935194 0.000000 
0.694198 0.910572 0.000000 
0.682444 0.923204 0.000000 
0.724178 0.895210 0.000000 
0.754376 0.899762 0.000000 
0.762045 0.926925 0.000000 
0.778019 0.923033 0.000000 
0.759618 0.943205 0.000000 
0.785528 0.938569 0.000000 
0.710189 0.885086 0.000000 
0.740601 0.888703 0.000000 
0.769098 0.895641 0.000000 
0.602398 0.850992 0.000000 
0.617699 0.842157 0.000000 
0.617682 0.825735 0.000000 
0.631913 0.850383 0.000000 
0.603744 0.818938 0.000000 
0.589476 0.827146 0.000000 
0.600919 0.801936 0.000000 
0.583714 0.800622 0.000000 
0.631954 0.816296 0.000000 
0.647223 0.842743 0.000000 
0.630512 0.866189 0.000000 
0.642235 0.878824 0.000000 
0.616271 0.874442 0.000000 
0.634771 0.894381 0.000000 
0.631147 0.799046 0.000000 
0.647281 0.825078 0.000000 
0.659812 0.854456 0.000000 
0.658972 0.908309 0.000000 
0.666681 0.889439 0.000000 
0.883780 0.893403 0.000000 
0.871762 0.880451 0.000000 
0.855756 0.884122 0.000000 
0.876619 0.864763 0.000000 
0.852435 0.899639 0.000000 
0.863611 0.911723 0.000000 
0.837509 0.908256 0.000000 
0.840056 0.925323 0.000000 
0.843377 0.872309 0.000000 
0.865764 0.851537 0.000000 
0.892341 0.862612 0.000000 
0.902050 0.848371 0.000000 
0.903556 0.874660 0.000000 
0.918878 0.852187 0.000000 
0.826739 0.876934 0.000000 
0.848529 0.855411 0.000000 
0.874382 0.836658 0.000000 
0.580780 0.773067 0.000000 
0.611539 0.772794 0.000000 
0.636220 0.626597 0.000000 
0.648238 0.639549 0.000000 
0.664244 0.635878 0.000000 
0.643381 0.655237 0.000000 
0.667769 0.620777 0.000000 
0.656593 0.608693 0.000000 
0.683716 0.614239 0.000000 
0.681169 0.597173 0.000000 
0.676623 0.647691 0.000000 
0.654236 0.668463 0.000000 
0.627659 0.657388 0.000000 
0.617950 0.671629 0.000000 
0.616444 0.645340 0.000000 
0.601122 0.667813 0.000000 
0.693261 0.643066 0.000000 
0.671471 0.664589 0.000000 
0.648380 0.684709 0.000000 
0.862515 0.609638 0.000000 
0.852562 0.624237 0.000000 
0.859702 0.639025 0.000000 
0.836187 0.622993 0.000000 
0.875123 0.639051 0.000000 
0.884417 0.625466 0.000000 
0.884616 0.652889 0.000000 
0.900687 0.646608 0.000000 
0.850940 0.653722 0.000000 
0.825707 0.636519 0.000000 
0.830590 0.608144 0.000000 
0.814547 0.601847 0.000000 
0.839841 0.594529 0.000000 
0.814522 0.584592 0.000000 
0.859152 0.668914 0.000000 
0.833320 0.652460 0.000000 
0.808566 0.634425 0.000000 
0.941474 0.746400 0.000000 
0.923855 0.747721 0.000000 
0.916745 0.762524 0.000000 
0.914618 0.734142 0.000000 
0.926340 0.774596 0.000000 
0.942756 0.773393 0.000000 
0.921439 0.790646 0.000000 
0.936370 0.799295 0.000000 
0.899791 0.764836 0.000000 
0.897509 0.734383 0.000000 
0.922738 0.720509 0.000000 
0.917658 0.704040 0.000000 
0.939150 0.719253 0.000000 
0.931133 0.693262 0.000000 
0.893034 0.780728 0.000000 
0.889792 0.750273 0.000000 
0.891250 0.718368 0.000000 
0.915372 0.670213 0.000000 
0.900239 0.683869 0.000000 
0.707380 0.588181 0.000000 
0.715905 0.619262 0.000000 
0.786984 0.578307 0.000000 
0.779475 0.593843 0.000000 
0.578526 0.746400 0.000000 
0.594705 0.748843 0.000000 
0.603942 0.735264 0.000000 
0.596960 0.765545 0.000000 
0.597262 0.720509 0.000000 
0.580850 0.719253 0.000000 
0.602342 0.704040 0.000000 
0.588867 0.693262 0.000000 
0.621051 0.735505 0.000000 
0.632169 0.718372 0.000000 
0.626393 0.756332 0.000000 
0.732877 0.580049 0.000000 
0.735510 0.597521 0.000000 
0.750803 0.603505 0.000000 
0.719728 0.603435 0.000000 
0.762288 0.592555 0.000000 
0.759861 0.576274 0.000000 
0.785753 0.610665 0.000000 
0.752813 0.621958 0.000000 
0.770576 0.627831 0.000000 
0.733696 0.631801 0.000000 
0.927072 0.825493 0.000000 
0.906959 0.822176 0.000000 
0.812427 0.931295 0.000000 
0.809466 0.908134 0.000000 
0.694113 0.893780 0.000000 
0.824192 0.897365 0.000000 
0.877407 0.668055 0.000000 
0.614049 0.791483 0.000000 
0.696829 0.624714 0.000000 
0.905087 0.794466 0.000000 
0.772534 0.878677 0.000000 
0.863261 0.823396 0.000000 
0.798111 0.648218 0.000000 
0.675216 0.846566 0.000000 
0.659501 0.697971 0.000000 
0.873947 0.718794 0.000000 
0.711906 0.867864 0.000000 
0.814345 0.864854 0.000000 
0.850132 0.683685 0.000000 
0.645682 0.789651 0.000000 
0.705655 0.655146 0.000000 
0.875862 0.782886 0.000000 
0.781499 0.908483 0.000000 
0.894946 0.835644 0.000000 
0.803001 0.614602 0.000000 
0.656224 0.874731 0.000000 
0.627816 0.685723 0.000000 
0.903279 0.701658 0.000000 
0.761174 0.865796 0.000000 
0.676553 0.694955 0.000000 
0.854125 0.701041 0.000000 
0.839967 0.713831 0.000000 
0.839988 0.730157 0.000000 
0.825839 0.705650 0.000000 
0.858397 0.734283 0.000000 
0.825796 0.739679 0.000000 
0.810497 0.713180 0.000000 
0.831470 0.687644 0.000000 
0.826693 0.756919 0.000000 
0.810433 0.730882 0.000000 
0.796015 0.703783 0.000000 
0.842496 0.768894 0.000000 
0.812211 0.766394 0.000000 
0.780568 0.711587 0.000000 
0.793545 0.684110 0.000000 
0.743964 0.871700 0.000000 
0.765547 0.849160 0.000000 
0.682668 0.677818 0.000000 
0.796762 0.758570 0.000000 
0.750842 0.839250 0.000000 
0.783472 0.848629 0.000000 
0.796536 0.864885 0.000000 
0.782257 0.768036 0.000000 
0.795882 0.740299 0.000000 
0.731764 0.845172 0.000000 
0.783203 0.785330 0.000000 
0.766807 0.760208 0.000000 
0.798654 0.793158 0.000000 
0.768699 0.794797 0.000000 
0.752302 0.769674 0.000000 
0.765928 0.740844 0.000000 
0.813157 0.783687 0.000000 
0.769740 0.813251 0.000000 
0.753248 0.786969 0.000000 
0.738744 0.796435 0.000000 
0.737302 0.813569 0.000000 
0.752847 0.822557 0.000000 
0.716761 0.824237 0.000000 
0.723293 0.788607 0.000000 
0.704807 0.798058 0.000000 
0.722347 0.771313 0.000000 
0.699717 0.816553 0.000000 
0.679174 0.826184 0.000000 
0.683473 0.789510 0.000000 
0.706896 0.763485 0.000000 
0.736852 0.761846 0.000000 
0.686508 0.772232 0.000000 
0.705950 0.746190 0.000000 
0.735906 0.744551 0.000000 
0.689030 0.731929 0.000000 
0.720455 0.736723 0.000000 
0.719509 0.719429 0.000000 
0.705725 0.707655 0.000000 
0.710073 0.687105 0.000000 
0.734013 0.709962 0.000000 
0.728376 0.689959 0.000000 
0.749531 0.715721 0.000000 
0.765051 0.704736 0.000000 
0.804803 0.669462 0.000000 
0.700778 0.853959 0.000000 
0.713228 0.839146 0.000000 
0.727015 0.649334 0.000000 
0.843447 0.825045 0.000000 
0.837332 0.842182 0.000000 
0.829952 0.812606 0.000000 
0.812362 0.818104 0.000000 
0.808311 0.835360 0.000000 
0.789805 0.836960 0.000000 
0.783871 0.820250 0.000000 
0.798281 0.809624 0.000000 
0.643440 0.765626 0.000000 
0.864782 0.796830 0.000000 
0.845231 0.789337 0.000000 
0.750477 0.733016 0.000000 
0.789971 0.878296 0.000000 
0.795761 0.898640 0.000000 
0.650965 0.715695 0.000000 
0.689751 0.710688 0.000000 
0.780498 0.730401 0.000000 
0.777369 0.645561 0.000000 
0.729258 0.860986 0.000000 
0.700214 0.673002 0.000000 
0.873836 0.809525 0.000000 
0.896969 0.809320 0.000000 
0.869696 0.701878 0.000000 
0.883958 0.683664 0.000000 
0.663036 0.798232 0.000000 
0.686386 0.859961 0.000000 
0.681439 0.882560 0.000000 
0.819786 0.846998 0.000000 
0.860809 0.766469 0.000000 
0.830374 0.794655 0.000000 
0.822870 0.671610 0.000000 
0.663828 0.816410 0.000000 
0.867983 0.749748 0.000000 
0.776082 0.676546 0.000000 
0.763035 0.689368 0.000000 
0.766597 0.659242 0.000000 
0.741878 0.680350 0.000000 
0.620140 0.701662 0.000000 
0.743393 0.660981 0.000000 
0.674108 0.749050 0.000000 
0.656894 0.742121 0.000000 
VECTORS X_EC float 
0.395059 -0.485141 0.000000 
-0.816836 -0.578994 0.000000 
-0.364545 -0.401376 0.000000 
-0.937864 0.131502 0.000000 
-0.495585 -0.292195 0.000000 
0.532125 0.624779 0.000000 
-0.783164 -0.578994 0.000000 
0.004941 -0.485141 0.000000 
-0.395274 0.597040 0.000000 
-0.670289 0.119313 0.000000 
-0.144469 -0.762254 0.000000 
0.622238 0.404336 0.000000 
-0.289736 0.426417 0.000000 
0.544469 -0.762254 0.000000 
0.200000 -0.015610 0.000000 
0.817896 0.609782 0.000000 
0.050590 0.647395 0.000000 
-0.080055 0.649053 0.000000 
0.868360 -0.270264 0.000000 
0.373314 0.621885 0.000000 
0.768687 -0.427007 0.000000 
0.480055 0.950947 0.000000 
-0.476677 -0.125653 0.000000 
-0.904818 -0.600545 0.000000 
-0.358037 0.072095 0.000000 
-0.816836 0.178994 0.000000 
0.370625 0.077502 0.000000 
-0.414825 0.973979 0.000000 
0.039789 0.082357 0.000000 
-0.783164 0.178994 0.000000 
-0.144469 0.362254 0.000000 
-0.670289 -0.519313 0.000000 
0.936636 -0.078072 0.000000 
-0.080055 0.950947 0.000000 
0.026686 0.978115 0.000000 
0.768687 0.027007 0.000000 
0.325324 0.908005 0.000000 
0.544469 0.362254 0.000000 
-0.217959 -0.788373 0.000000 
0.648149 -0.806001 0.000000 
0.795274 -0.997040 0.000000 
0.200000 -0.384390 0.000000 
0.600986 -0.742464 0.000000 
0.950411 -0.689797 0.000000 
-0.845071 -0.946798 0.000000 
-0.929909 -0.383931 0.000000 
-0.978428 0.775113 0.000000 
0.696124 0.725524 0.000000 
-0.811441 0.483969 0.000000 
0.935915 0.248876 0.000000 
-0.504206 -0.916431 0.000000 
-0.595238 -0.312477 0.000000 
0.861506 -0.159096 0.000000 
0.939335 0.160371 0.000000 
0.535899 -0.207638 0.000000 
0.628621 0.310552 0.000000 
-0.301726 0.803770 0.000000 
-0.374053 -0.587976 0.000000 
-0.512814 -0.018034 0.000000 
0.380167 0.647957 0.000000 
0.556853 0.953986 0.000000 
0.885299 0.953647 0.000000 
0.392336 -0.761741 0.000000 
-0.978768 0.674889 0.000000 
0.857088 0.389525 0.000000 
-0.638727 0.618373 0.000000 
-0.612444 0.274271 0.000000 
-0.925917 -0.760921 0.000000 
0.545136 -0.455533 0.000000 
0.076214 -0.789752 0.000000 
-0.176472 -0.555293 0.000000 
-0.088846 0.925413 0.000000 
-0.487615 -0.704583 0.000000 
-0.580917 -0.777068 0.000000 
0.898436 -0.454375 0.000000 
0.310875 -0.203768 0.000000 
-0.766182 -0.220564 0.000000 
-0.388772 -0.066377 0.000000 
-0.468064 0.275602 0.000000 
-0.209024 0.035248 0.000000 
-0.282440 -0.284888 0.000000 
0.104730 0.132383 0.000000 
-0.592775 -0.351301 0.000000 
-0.834458 -0.127772 0.000000 
-0.765127 -0.649824 0.000000 
0.893549 -0.598877 0.000000 
-0.046173 -0.532454 0.000000 
0.369260 -0.084723 0.000000 
0.147766 0.446812 0.000000 
0.432574 0.640991 0.000000 
-0.093199 0.671116 0.000000 
0.356263 0.977553 0.000000 