# vtk DataFile Version 3.0 
vtk output 
ASCII 
DATASET UNSTRUCTURED_GRID 
POINTS 616 float 
0.260746 0.465249 0.000000 
0.156050 0.125842 0.000000 
0.464933 0.303229 0.000000 
0.091575 0.331894 0.000000 
0.370390 0.109779 0.000000 
0.316245 0.458401 0.000000 
0.156051 0.424159 0.000000 
0.260743 0.084753 0.000000 
0.414830 0.404740 0.000000 
0.090966 0.218515 0.000000 
0.446888 0.192223 0.000000 
0.205218 0.453888 0.000000 
0.206321 0.099487 0.000000 
0.446889 0.357779 0.000000 
0.084220 0.275000 0.000000 
0.415490 0.144105 0.000000 
0.117370 0.382471 0.000000 
0.317453 0.089003 0.000000 
0.371492 0.441593 0.000000 
0.116094 0.166334 0.000000 
0.463650 0.246566 0.000000 
0.232549 0.460998 0.000000 
0.178717 0.108834 0.000000 
0.454975 0.330244 0.000000 
0.088605 0.302902 0.000000 
0.393950 0.125842 0.000000 
0.288879 0.466472 0.000000 
0.133700 0.405742 0.000000 
0.289118 0.083010 0.000000 
0.393948 0.424159 0.000000 
0.103113 0.192223 0.000000 
0.459035 0.218514 0.000000 
0.181097 0.438169 0.000000 
0.232547 0.089002 0.000000 
0.433904 0.383664 0.000000 
0.086350 0.246566 0.000000 
0.430401 0.168733 0.000000 
0.103113 0.357777 0.000000 
0.345581 0.095898 0.000000 
0.344707 0.452604 0.000000 
0.135148 0.145236 0.000000 
0.465782 0.275001 0.000000 
0.247879 0.454952 0.000000 
0.250512 0.437481 0.000000 
0.237662 0.427255 0.000000 
0.265805 0.431497 0.000000 
0.223757 0.433922 0.000000 
0.221278 0.450195 0.000000 
0.209200 0.425573 0.000000 
0.197445 0.438205 0.000000 
0.239180 0.410212 0.000000 
0.269377 0.414763 0.000000 
0.277048 0.441927 0.000000 
0.293021 0.438036 0.000000 
0.274621 0.458208 0.000000 
0.300531 0.453572 0.000000 
0.225190 0.400088 0.000000 
0.255602 0.403704 0.000000 
0.284099 0.410642 0.000000 
0.117398 0.365992 0.000000 
0.132700 0.357158 0.000000 
0.132683 0.340736 0.000000 
0.146914 0.365384 0.000000 
0.118745 0.333939 0.000000 
0.104477 0.342146 0.000000 
0.115919 0.316937 0.000000 
0.098714 0.315623 0.000000 
0.146954 0.331296 0.000000 
0.162224 0.357744 0.000000 
0.145513 0.381190 0.000000 
0.157236 0.393825 0.000000 
0.131272 0.389443 0.000000 
0.149772 0.409382 0.000000 
0.146147 0.314046 0.000000 
0.162282 0.340079 0.000000 
0.174813 0.369457 0.000000 
0.173973 0.423310 0.000000 
0.181683 0.404440 0.000000 
0.398770 0.408392 0.000000 
0.386751 0.395437 0.000000 
0.370746 0.399111 0.000000 
0.391609 0.379751 0.000000 
0.367431 0.414635 0.000000 
0.378611 0.426725 0.000000 
0.352508 0.423257 0.000000 
0.355061 0.440331 0.000000 
0.358370 0.387300 0.000000 
0.380756 0.366527 0.000000 
0.407331 0.377600 0.000000 
0.417044 0.363364 0.000000 
0.418549 0.389651 0.000000 
0.433876 0.367185 0.000000 
0.341734 0.391928 0.000000 
0.363522 0.370403 0.000000 
0.389375 0.351649 0.000000 
0.095780 0.288067 0.000000 
0.126539 0.287795 0.000000 
0.151220 0.141597 0.000000 
0.163237 0.154549 0.000000 
0.179244 0.150878 0.000000 
0.158381 0.170236 0.000000 
0.182769 0.135777 0.000000 
0.171592 0.123693 0.000000 
0.198716 0.129239 0.000000 
0.196169 0.112172 0.000000 
0.191622 0.162691 0.000000 
0.169236 0.183463 0.000000 
0.142659 0.172388 0.000000 
0.132950 0.186629 0.000000 
0.131444 0.160340 0.000000 
0.116122 0.182813 0.000000 
0.208260 0.158065 0.000000 
0.186471 0.179588 0.000000 
0.163380 0.199708 0.000000 
0.377515 0.124638 0.000000 
0.367562 0.139237 0.000000 
0.374703 0.154025 0.000000 
0.351187 0.137992 0.000000 
0.390123 0.154051 0.000000 
0.399418 0.140466 0.000000 
0.399617 0.167889 0.000000 
0.415688 0.161608 0.000000 
0.365940 0.168722 0.000000 
0.340707 0.151519 0.000000 
0.345591 0.123144 0.000000 
0.329547 0.116847 0.000000 
0.354841 0.109529 0.000000 
0.329522 0.099592 0.000000 
0.374152 0.183913 0.000000 
0.348320 0.167459 0.000000 
0.323566 0.149424 0.000000 
0.456475 0.261401 0.000000 
0.438856 0.262720 0.000000 
0.431745 0.277523 0.000000 
0.429618 0.249142 0.000000 
0.441340 0.289596 0.000000 
0.457757 0.288393 0.000000 
0.436439 0.305646 0.000000 
0.451371 0.314297 0.000000 
0.414791 0.279834 0.000000 
0.412509 0.249382 0.000000 
0.437738 0.235509 0.000000 
0.432658 0.219039 0.000000 
0.454151 0.234253 0.000000 
0.446134 0.208261 0.000000 
0.408033 0.295726 0.000000 
0.404792 0.265271 0.000000 
0.406250 0.233367 0.000000 
0.430373 0.185212 0.000000 
0.415239 0.198869 0.000000 
0.222380 0.103181 0.000000 
0.230904 0.134261 0.000000 
0.301984 0.093307 0.000000 
0.294475 0.108842 0.000000 
0.093526 0.261401 0.000000 
0.109705 0.263843 0.000000 
0.118942 0.250264 0.000000 
0.111960 0.280546 0.000000 
0.112262 0.235509 0.000000 
0.095850 0.234253 0.000000 
0.117342 0.219040 0.000000 
0.103867 0.208262 0.000000 
0.136051 0.250505 0.000000 
0.147169 0.233372 0.000000 
0.141393 0.271332 0.000000 
0.247877 0.095049 0.000000 
0.250510 0.112520 0.000000 
0.265803 0.118504 0.000000 
0.234728 0.118435 0.000000 
0.277288 0.107554 0.000000 
0.274861 0.091274 0.000000 
0.300753 0.125665 0.000000 
0.267813 0.136958 0.000000 
0.285576 0.142831 0.000000 
0.248696 0.146801 0.000000 
0.442072 0.340494 0.000000 
0.421956 0.337172 0.000000 
0.327431 0.446302 0.000000 
0.324466 0.423135 0.000000 
0.209114 0.408782 0.000000 
0.339189 0.412363 0.000000 
0.392408 0.183055 0.000000 
0.129049 0.306483 0.000000 
0.211829 0.139714 0.000000 
0.420086 0.309464 0.000000 
0.287534 0.393678 0.000000 
0.378257 0.338389 0.000000 
0.313111 0.163217 0.000000 
0.190217 0.361567 0.000000 
0.174500 0.212971 0.000000 
0.388947 0.233792 0.000000 
0.226907 0.382865 0.000000 
0.329342 0.379850 0.000000 
0.365132 0.198685 0.000000 
0.160682 0.304651 0.000000 
0.220654 0.170146 0.000000 
0.390860 0.297883 0.000000 
0.296501 0.423485 0.000000 
0.409940 0.350636 0.000000 
0.318001 0.129601 0.000000 
0.171225 0.389732 0.000000 
0.142816 0.200722 0.000000 
0.418279 0.216657 0.000000 
0.276174 0.380796 0.000000 
0.191553 0.209955 0.000000 
0.369125 0.216040 0.000000 
0.354967 0.228830 0.000000 
0.354987 0.245156 0.000000 
0.340838 0.220649 0.000000 
0.373397 0.249281 0.000000 
0.340795 0.254677 0.000000 
0.325496 0.228179 0.000000 
0.346470 0.202644 0.000000 
0.341692 0.271917 0.000000 
0.325433 0.245881 0.000000 
0.311014 0.218782 0.000000 
0.357494 0.283892 0.000000 
0.327209 0.281392 0.000000 
0.295567 0.226586 0.000000 
0.308545 0.199109 0.000000 
0.258964 0.386701 0.000000 
0.280547 0.364160 0.000000 
0.197667 0.192818 0.000000 
0.311760 0.273569 0.000000 
0.265842 0.354250 0.000000 
0.298471 0.363629 0.000000 
0.311535 0.379883 0.000000 
0.297256 0.283034 0.000000 
0.310880 0.255298 0.000000 
0.246764 0.360172 0.000000 
0.298202 0.300328 0.000000 
0.281806 0.275206 0.000000 
0.313652 0.308156 0.000000 
0.283698 0.309796 0.000000 
0.267301 0.284673 0.000000 
0.280927 0.255843 0.000000 
0.328155 0.298685 0.000000 
0.284739 0.328250 0.000000 
0.268247 0.301968 0.000000 
0.253743 0.311435 0.000000 
0.252302 0.328569 0.000000 
0.267847 0.337556 0.000000 
0.231761 0.339237 0.000000 
0.238292 0.303607 0.000000 
0.219807 0.313058 0.000000 
0.237346 0.286312 0.000000 
0.214717 0.331554 0.000000 
0.194175 0.341185 0.000000 
0.198473 0.304511 0.000000 
0.221896 0.278484 0.000000 
0.251851 0.276845 0.000000 
0.201508 0.287232 0.000000 
0.220950 0.261190 0.000000 
0.250905 0.259551 0.000000 
0.204030 0.246928 0.000000 
0.235454 0.251723 0.000000 
0.234508 0.234428 0.000000 
0.220725 0.222654 0.000000 
0.225073 0.202105 0.000000 
0.249013 0.224961 0.000000 
0.243376 0.204958 0.000000 
0.264530 0.230721 0.000000 
0.280051 0.219735 0.000000 
0.319802 0.184462 0.000000 
0.215779 0.368960 0.000000 
0.228228 0.354147 0.000000 
0.242015 0.164334 0.000000 
0.358443 0.340040 0.000000 
0.352328 0.357176 0.000000 
0.344949 0.327602 0.000000 
0.327359 0.333101 0.000000 
0.323309 0.350357 0.000000 
0.304804 0.351959 0.000000 
0.298870 0.335249 0.000000 
0.313279 0.324622 0.000000 
0.158439 0.280626 0.000000 
0.379779 0.311825 0.000000 
0.360229 0.304334 0.000000 
0.265476 0.248015 0.000000 
0.304971 0.393296 0.000000 
0.310761 0.413641 0.000000 
0.165965 0.230695 0.000000 
0.204751 0.225688 0.000000 
0.295497 0.245400 0.000000 
0.292368 0.160560 0.000000 
0.244259 0.375986 0.000000 
0.215213 0.188001 0.000000 
0.388832 0.324519 0.000000 
0.411966 0.324315 0.000000 
0.384696 0.216877 0.000000 
0.398959 0.198664 0.000000 
0.178036 0.313232 0.000000 
0.201387 0.374962 0.000000 
0.196440 0.397561 0.000000 
0.334783 0.361994 0.000000 
0.375808 0.281466 0.000000 
0.345372 0.309652 0.000000 
0.337870 0.186610 0.000000 
0.178828 0.331410 0.000000 
0.382982 0.264746 0.000000 
0.291082 0.191546 0.000000 
0.278035 0.204367 0.000000 
0.281597 0.174241 0.000000 
0.256877 0.195350 0.000000 
0.135140 0.216662 0.000000 
0.258393 0.175980 0.000000 
0.189108 0.264050 0.000000 
0.171894 0.257121 0.000000 
0.710743 0.915247 0.000000 
0.606053 0.575842 0.000000 
0.914931 0.753227 0.000000 
0.541575 0.781894 0.000000 
0.820389 0.559779 0.000000 
0.766239 0.908394 0.000000 
0.606050 0.874158 0.000000 
0.710739 0.534749 0.000000 
0.864852 0.854764 0.000000 
0.540963 0.668511 0.000000 
0.896887 0.642223 0.000000 
0.655217 0.903888 0.000000 
0.656314 0.549476 0.000000 
0.896887 0.807777 0.000000 
0.534218 0.724999 0.000000 
0.865488 0.594104 0.000000 
0.567369 0.832471 0.000000 
0.767451 0.539002 0.000000 
0.821487 0.891582 0.000000 
0.566096 0.616337 0.000000 
0.913649 0.696565 0.000000 
0.682547 0.910997 0.000000 
0.628712 0.558824 0.000000 
0.904973 0.780241 0.000000 
0.538604 0.752902 0.000000 
0.843949 0.575841 0.000000 
0.738875 0.916469 0.000000 
0.583698 0.855742 0.000000 
0.739115 0.533008 0.000000 
0.843950 0.874158 0.000000 
0.553111 0.642221 0.000000 
0.909034 0.668514 0.000000 
0.631096 0.888168 0.000000 
0.682541 0.538995 0.000000 
0.883906 0.833666 0.000000 
0.536349 0.696564 0.000000 
0.880400 0.618733 0.000000 
0.553112 0.807777 0.000000 
0.795580 0.545898 0.000000 
0.794700 0.902593 0.000000 
0.585171 0.595260 0.000000 
0.915780 0.725000 0.000000 
0.697877 0.904951 0.000000 
0.700510 0.887480 0.000000 
0.687660 0.877254 0.000000 
[...]
POINT_DATA 616 
VECTORS X_GC float 
0.260746 0.465249 0.000000 
0.156050 0.125842 0.000000 
0.464933 0.303229 0.000000 
0.091575 0.331894 0.000000 
0.370390 0.109779 0.000000 
0.316245 0.458401 0.000000 
0.156051 0.424159 0.000000 
0.260743 0.084753 0.000000 
0.414830 0.404740 0.000000 
0.090966 0.218515 0.000000 
0.446888 0.192223 0.000000 
0.205218 0.453888 0.000000 
0.206321 0.099487 0.000000 
0.446889 0.357779 0.000000 
0.084220 0.275000 0.000000 
0.415490 0.144105 0.000000 
0.117370 0.382471 0.000000 
0.317453 0.089003 0.000000 
0.371492 0.441593 0.000000 
0.116094 0.166334 0.000000 
0.463650 0.246566 0.000000 
0.232549 0.460998 0.000000 
0.178717 0.108834 0.000000 
0.454975 0.330244 0.000000 
0.088605 0.302902 0.000000 
0.393950 0.125842 0.000000 
0.288879 0.466472 0.000000 
0.133700 0.405742 0.000000 
0.289118 0.083010 0.000000 
0.393948 0.424159 0.000000 
0.103113 0.192223 0.000000 
0.459035 0.218514 0.000000 
0.181097 0.438169 0.000000 
0.232547 0.089002 0.000000 
0.433904 0.383664 0.000000 
0.086350 0.246566 0.000000 
0.430401 0.168733 0.000000 
0.103113 0.357777 0.000000 
0.345581 0.095898 0.000000 
0.344707 0.452604 0.000000 
0.135148 0.145236 0.000000 
0.465782 0.275001 0.000000 
0.247879 0.454952 0.000000 
0.250512 0.437481 0.000000 
0.237662 0.427255 0.000000 
0.265805 0.431497 0.000000 
0.223757 0.433922 0.000000 
0.221278 0.450195 0.000000 
0.209200 0.425573 0.000000 
0.197445 0.438205 0.000000 
0.239180 0.410212 0.000000 
0.269377 0.414763 0.000000 
0.277048 0.441927 0.000000 
0.293021 0.438036 0.000000 
0.274621 0.458208 0.000000 
0.300531 0.453572 0.000000 
0.225190 0.400088 0.000000 
0.255602 0.403704 0.000000 
0.284099 0.410642 0.000000 
0.117398 0.365992 0.000000 
0.132700 0.357158 0.000000 
0.132683 0.340736 0.000000 
0.146914 0.365384 0.000000 
0.118745 0.333939 0.000000 
0.104477 0.342146 0.000000 
0.115919 0.316937 0.000000 
0.098714 0.315623 0.000000 
0.146954 0.331296 0.000000 
0.162224 0.357744 0.000000 
0.145513 0.381190 0.000000 
0.157236 0.393825 0.000000 
0.131272 0.389443 0.000000 
0.149772 0.409382 0.000000 
0.146147 0.314046 0.000000 
0.162282 0.340079 0.000000 
0.174813 0.369457 0.000000 
0.173973 0.423310 0.000000 
0.181683 0.404440 0.000000 
0.398770 0.408392 0.000000 
0.386751 0.395437 0.000000 
0.370746 0.399111 0.000000 
0.391609 0.379751 0.000000 
0.367431 0.414635 0.000000 
0.378611 0.426725 0.000000 
0.352508 0.423257 0.000000 
0.355061 0.440331 0.000000 
0.358370 0.387300 0.000000 
0.380756 0.366527 0.000000 
0.407331 0.377600 0.000000 
0.417044 0.363364 0.000000 
0.418549 0.389651 0.000000 
0.433876 0.367185 0.000000 
0.341734 0.391928 0.000000 
0.363522 0.370403 0.000000 
0.389375 0.351649 0.000000 
0.095780 0.288067 0.000000 
0.126539 0.287795 0.000000 
0.151220 0.141597 0.000000 
0.163237 0.154549 0.000000 
0.179244 0.150878 0.000000 
0.158381 0.170236 0.000000 
0.182769 0.135777 0.000000 
0.171592 0.123693 0.000000 
0.198716 0.129239 0.000000 
0.196169 0.112172 0.000000 
0.191622 0.162691 0.000000 
0.169236 0.183463 0.000000 
0.142659 0.172388 0.000000 
0.132950 0.186629 0.000000 
0.131444 0.160340 0.000000 
0.116122 0.182813 0.000000 
0.208260 0.158065 0.000000 
0.186471 0.179588 0.000000 
0.163380 0.199708 0.000000 
0.377515 0.124638 0.000000 
0.367562 0.139237 0.000000 
0.374703 0.154025 0.000000 
0.351187 0.137992 0.000000 
0.390123 0.154051 0.000000 
0.399418 0.140466 0.000000 
0.399617 0.167889 0.000000 
0.415688 0.161608 0.000000 
0.365940 0.168722 0.000000 
0.340707 0.151519 0.000000 
0.345591 0.123144 0.000000 
0.329547 0.116847 0.000000 
0.354841 0.109529 0.000000 
0.329522 0.099592 0.000000 
0.374152 0.183913 0.000000 
0.348320 0.167459 0.000000 
0.323566 0.149424 0.000000 
0.456475 0.261401 0.000000 
0.438856 0.262720 0.000000 
0.431745 0.277523 0.000000 
0.429618 0.249142 0.000000 
0.441340 0.289596 0.000000 
0.457757 0.288393 0.000000 
0.436439 0.305646 0.000000 
0.451371 0.314297 0.000000 
0.414791 0.279834 0.000000 
0.412509 0.249382 0.000000 
0.437738 0.235509 0.000000 
0.432658 0.219039 0.000000 
0.454151 0.234253 0.000000 
0.446134 0.208261 0.000000 
0.408033 0.295726 0.000000 
0.404792 0.265271 0.000000 
0.406250 0.233367 0.000000 
0.430373 0.185212 0.000000 
0.415239 0.198869 0.000000 
0.222380 0.103181 0.000000 
0.230904 0.134261 0.000000 
0.301984 0.093307 0.000000 
0.294475 0.108842 0.000000 
0.093526 0.261401 0.000000 
0.109705 0.263843 0.000000 
0.118942 0.250264 0.000000 
0.111960 0.280546 0.000000 
0.112262 0.235509 0.000000 
0.095850 0.234253 0.000000 
0.117342 0.219040 0.000000 
0.103867 0.208262 0.000000 
0.136051 0.250505 0.000000 
0.147169 0.233372 0.000000 
0.141393 0.271332 0.000000 
0.247877 0.095049 0.000000 
0.250510 0.112520 0.000000 
0.265803 0.118504 0.000000 
0.234728 0.118435 0.000000 
0.277288 0.107554 0.000000 
0.274861 0.091274 0.000000 
0.300753 0.125665 0.000000 
0.267813 0.136958 0.000000 
0.285576 0.142831 0.000000 
0.248696 0.146801 0.000000 
0.442072 0.340494 0.000000 
0.421956 0.337172 0.000000 
0.327431 0.446302 0.000000 
0.324466 0.423135 0.000000 
0.209114 0.408782 0.000000 
0.339189 0.412363 0.000000 
0.392408 0.183055 0.000000 
0.129049 0.306483 0.000000 
0.211829 0.139714 0.000000 
0.420086 0.309464 0.000000 
0.287534 0.393678 0.000000 
0.378257 0.338389 0.000000 
0.313111 0.163217 0.000000 
0.190217 0.361567 0.000000 
0.174500 0.212971 0.000000 
0.388947 0.233792 0.000000 
0.226907 0.382865 0.000000 
0.329342 0.379850 0.000000 
0.365132 0.198685 0.000000 
0.160682 0.304651 0.000000 
0.220654 0.170146 0.000000 
0.390860 0.297883 0.000000 
0.296501 0.423485 0.000000 
0.409940 0.350636 0.000000 
0.318001 0.129601 0.000000 
0.171225 0.389732 0.000000 
0.142816 0.200722 0.000000 
0.418279 0.216657 0.000000 
0.276174 0.380796 0.000000 
0.191553 0.209955 0.000000 
0.369125 0.216040 0.000000 
0.354967 0.228830 0.000000 
0.354987 0.245156 0.000000 
0.340838 0.220649 0.000000 
0.373397 0.249281 0.000000 
0.340795 0.254677 0.000000 
0.325496 0.228179 0.000000 
0.346470 0.202644 0.000000 
0.341692 0.271917 0.000000 
0.325433 0.245881 0.000000 
0.311014 0.218782 0.000000 
0.357494 0.283892 0.000000 
0.327209 0.281392 0.000000 
0.295567 0.226586 0.000000 
0.308545 0.199109 0.000000 
0.258964 0.386701 0.000000 
0.280547 0.364160 0.000000 
0.197667 0.192818 0.000000 
0.311760 0.273569 0.000000 
0.265842 0.354250 0.000000 
0.298471 0.363629 0.000000 
0.311535 0.379883 0.000000 
0.297256 0.283034 0.000000 
0.310880 0.255298 0.000000 
0.246764 0.360172 0.000000 
0.298202 0.300328 0.000000 
0.281806 0.275206 0.000000 
0.313652 0.308156 0.000000 
0.283698 0.309796 0.000000 
0.267301 0.284673 0.000000 
0.280927 0.255843 0.000000 
0.328155 0.298685 0.000000 
0.284739 0.328250 0.000000 
0.268247 0.301968 0.000000 
0.253743 0.311435 0.000000 
0.252302 0.328569 0.000000 
0.267847 0.337556 0.000000 
0.231761 0.339237 0.000000 
0.238292 0.303607 0.000000 
0.219807 0.313058 0.000000 
0.237346 0.286312 0.000000 
0.214717 0.331554 0.000000 
0.194175 0.341185 0.000000 
0.198473 0.304511 0.000000 
0.221896 0.278484 0.000000 
0.251851 0.276845 0.000000 
0.201508 0.287232 0.000000 
0.220950 0.261190 0.000000 
0.250905 0.259551 0.000000 
0.204030 0.246928 0.000000 
0.235454 0.251723 0.000000 
0.234508 0.234428 0.000000 
0.220725 0.222654 0.000000 
0.225073 0.202105 0.000000 
0.249013 0.224961 0.000000 
0.243376 0.204958 0.000000 
0.264530 0.230721 0.000000 
0.280051 0.219735 0.000000 
0.319802 0.184462 0.000000 
0.215779 0.368960 0.000000 
0.228228 0.354147 0.000000 
0.242015 0.164334 0.000000 
0.358443 0.340040 0.000000 
0.352328 0.357176 0.000000 
0.344949 0.327602 0.000000 
0.327359 0.333101 0.000000 
0.323309 0.350357 0.000000 
0.304804 0.351959 0.000000 
0.298870 0.335249 0.000000 
0.313279 0.324622 0.000000 
0.158439 0.280626 0.000000 
0.379779 0.311825 0.000000 
0.360229 0.304334 0.000000 
0.265476 0.248015 0.000000 
0.304971 0.393296 0.000000 
0.310761 0.413641 0.000000 
0.165965 0.230695 0.000000 
0.204751 0.225688 0.000000 
0.295497 0.245400 0.000000 
0.292368 0.160560 0.000000 
0.244259 0.375986 0.000000 
0.215213 0.188001 0.000000 
0.388832 0.324519 0.000000 
0.411966 0.324315 0.000000 
0.384696 0.216877 0.000000 
0.398959 0.198664 0.000000 
0.178036 0.313232 0.000000 
0.201387 0.374962 0.000000 
0.196440 0.397561 0.000000 
0.334783 0.361994 0.000000 
0.375808 0.281466 0.000000 
0.345372 0.309652 0.000000 
0.337870 0.186610 0.000000 
0.178828 0.331410 0.000000 
0.382982 0.264746 0.000000 
0.291082 0.191546 0.000000 
0.278035 0.204367 0.000000 
0.281597 0.174241 0.000000 
0.256877 0.195350 0.000000 
0.135140 0.216662 0.000000 
0.258393 0.175980 0.000000 
0.189108 0.264050 0.000000 
0.171894 0.257121 0.000000 
0.710743 0.915247 0.000000 
0.606053 0.575842 0.000000 
0.914931 0.753227 0.000000 
0.541575 0.781894 0.000000 
0.820389 0.559779 0.000000 
0.766239 0.908394 0.000000 
0.606050 0.874158 0.000000 
0.710739 0.534749 0.000000 
0.864852 0.854764 0.000000 
0.540963 0.668511 0.000000 
0.896887 0.642223 0.000000 
0.655217 0.903888 0.000000 
0.656314 0.549476 0.000000 
0.896887 0.807777 0.000000 
0.534218 0.724999 0.000000 
0.865488 0.594104 0.000000 
0.567369 0.832471 0.000000 
0.767451 0.539002 0.000000 
0.821487 0.891582 0.000000 
0.566096 0.616337 0.000000 
0.913649 0.696565 0.000000 
0.682547 0.910997 0.000000 
0.628712 0.558824 0.000000 
0.904973 0.780241 0.000000 
0.538604 0.752902 0.000000 
0.843949 0.575841 0.000000 
0.738875 0.916469 0.000000 
0.583698 0.855742 0.000000 
0.739115 0.533008 0.000000 
0.843950 0.874158 0.000000 
0.553111 0.642221 0.000000 
0.909034 0.668514 0.000000 
0.631096 0.888168 0.000000 
0.682541 0.538995 0.000000 
0.883906 0.833666 0.000000 
0.536349 0.696564 0.000000 
0.880400 0.618733 0.000000 
0.553112 0.807777 0.000000 
0.795580 0.545898 0.000000 
0.794700 0.902593 0.000000 
0.585171 0.595260 0.000000 
0.915780 0.725000 0.000000 
0.697877 0.904951 0.000000 
0.700510 0.887480 0.000000 
0.687660 0.877254 0.000000 
0.715804 0.881496 0.000000 
0.673756 0.883922 0.000000 
0.671276 0.900194 0.000000 
0.659198 0.875572 0.000000 
0.647444 0.888205 0.000000 
0.689179 0.860211 0.000000 
0.719376 0.864762 0.000000 
0.727045 0.891925 0.000000 
0.743019 0.888034 0.000000 
0.724618 0.908205 0.000000 
0.750528 0.903569 0.000000 
0.675189 0.850087 0.000000 
0.705601 0.853703 0.000000 
0.734099 0.860641 0.000000 
0.567397 0.815992 0.000000 
0.582699 0.807158 0.000000 
0.582682 0.790735 0.000000 
0.596912 0.815383 0.000000 
0.568744 0.783939 0.000000 
0.554476 0.792146 0.000000 
0.565918 0.766937 0.000000 
0.548713 0.765622 0.000000 
0.596953 0.781297 0.000000 
0.612223 0.807743 0.000000 
0.595512 0.831190 0.000000 
0.607235 0.843824 0.000000 
0.581270 0.839443 0.000000 
0.599770 0.859381 0.000000 
0.596147 0.764047 0.000000 
0.612281 0.790079 0.000000 
0.624811 0.819457 0.000000 
0.623972 0.873309 0.000000 
0.631681 0.854439 0.000000 
0.848780 0.858403 0.000000 
0.836763 0.845451 0.000000 
0.820756 0.849122 0.000000 
0.841619 0.829764 0.000000 
0.817435 0.864639 0.000000 
0.828612 0.876723 0.000000 
0.802509 0.873257 0.000000 
0.805056 0.890323 0.000000 
0.808378 0.837309 0.000000 
0.830764 0.816537 0.000000 
0.857341 0.827612 0.000000 
0.867050 0.813371 0.000000 
0.868556 0.839660 0.000000 
0.883878 0.817187 0.000000 
0.791740 0.841935 0.000000 
0.813529 0.820412 0.000000 
0.839382 0.801658 0.000000 
0.545779 0.738067 0.000000 
0.576539 0.737795 0.000000 
0.601230 0.591609 0.000000 
0.613249 0.604563 0.000000 
0.629254 0.600890 0.000000 
0.608391 0.620250 0.000000 
0.632774 0.585782 0.000000 
0.621594 0.573691 0.000000 
0.648718 0.579239 0.000000 
0.646165 0.562166 0.000000 
0.641630 0.612700 0.000000 
0.619244 0.633473 0.000000 
0.592669 0.622400 0.000000 
0.582956 0.636636 0.000000 
0.581451 0.610349 0.000000 
0.566124 0.632815 0.000000 
0.658266 0.608072 0.000000 
0.636478 0.629597 0.000000 
0.613387 0.649718 0.000000 
0.827514 0.574637 0.000000 
0.817560 0.589236 0.000000 
0.824701 0.604024 0.000000 
0.801185 0.587991 0.000000 
0.840122 0.604050 0.000000 
0.849416 0.590465 0.000000 
0.849615 0.617888 0.000000 
0.865687 0.611608 0.000000 
0.815938 0.618721 0.000000 
0.790706 0.601517 0.000000 
0.795589 0.573143 0.000000 
0.779545 0.566846 0.000000 
0.804840 0.559529 0.000000 
0.779521 0.549592 0.000000 
0.824151 0.633913 0.000000 
0.798318 0.617458 0.000000 
0.773565 0.599423 0.000000 
0.906474 0.711400 0.000000 
0.888855 0.712720 0.000000 
0.881745 0.727524 0.000000 
0.879618 0.699142 0.000000 
0.891340 0.739596 0.000000 
0.907756 0.738392 0.000000 
0.886439 0.755646 0.000000 
0.901370 0.764295 0.000000 
0.864791 0.729836 0.000000 
0.862509 0.699383 0.000000 
0.887738 0.685509 0.000000 
0.882658 0.669039 0.000000 
0.904150 0.684252 0.000000 
0.896133 0.658262 0.000000 
0.858034 0.745728 0.000000 
0.854792 0.715273 0.000000 
0.856249 0.683368 0.000000 
0.880372 0.635212 0.000000 
0.865238 0.648869 0.000000 
0.672376 0.553174 0.000000 
0.680905 0.584262 0.000000 
0.751982 0.543305 0.000000 
0.744473 0.558841 0.000000 
0.543525 0.711399 0.000000 
0.559705 0.713843 0.000000 
0.568942 0.700265 0.000000 
0.561959 0.730546 0.000000 
0.562262 0.685510 0.000000 
0.545848 0.684251 0.000000 
0.567343 0.669041 0.000000 
0.553866 0.658261 0.000000 
0.586052 0.700507 0.000000 
0.597172 0.683377 0.000000 
0.591394 0.721334 0.000000 
0.697873 0.545046 0.000000 
0.700508 0.562518 0.000000 
0.715801 0.568502 0.000000 
0.684726 0.568432 0.000000 
0.727286 0.557552 0.000000 
0.724858 0.541272 0.000000 
0.750752 0.575664 0.000000 
0.717812 0.586957 0.000000 
0.735575 0.592830 0.000000 
0.698696 0.596800 0.000000 
0.892072 0.790493 0.000000 
0.871959 0.787176 0.000000 
0.777427 0.896295 0.000000 
0.774466 0.873134 0.000000 
0.659113 0.858781 0.000000 
0.789192 0.862366 0.000000 
0.842406 0.633055 0.000000 
0.579049 0.756484 0.000000 
0.661832 0.589717 0.000000 
0.870087 0.759466 0.000000 
0.737534 0.843678 0.000000 
0.828262 0.788396 0.000000 
0.763110 0.613217 0.000000 
0.640216 0.811566 0.000000 
0.624506 0.662977 0.000000 
0.838947 0.683793 0.000000 
0.676906 0.832865 0.000000 
0.779346 0.829854 0.000000 
0.815131 0.648684 0.000000 
0.610682 0.754652 0.000000 
0.670658 0.620150 0.000000 
0.840862 0.747886 0.000000 
0.746499 0.873483 0.000000 
0.859947 0.800644 0.000000 
0.768000 0.579601 0.000000 
0.621224 0.839731 0.000000 
0.592822 0.650731 0.000000 
0.868278 0.666657 0.000000 
0.726174 0.830797 0.000000 
0.641558 0.659960 0.000000 
0.819124 0.666041 0.000000 
0.804967 0.678830 0.000000 
0.804988 0.695157 0.000000 
0.790838 0.670650 0.000000 
0.823397 0.699283 0.000000 
0.790796 0.704679 0.000000 
0.775497 0.678180 0.000000 
0.796470 0.652643 0.000000 
0.791693 0.721919 0.000000 
0.775434 0.695882 0.000000 
0.761015 0.668783 0.000000 
0.807496 0.733894 0.000000 
0.777211 0.731395 0.000000 
0.745568 0.676587 0.000000 
0.758545 0.649109 0.000000 
0.708964 0.836701 0.000000 
0.730547 0.814160 0.000000 
0.647673 0.642824 0.000000 
0.761763 0.723571 0.000000 
0.715843 0.804251 0.000000 
0.748472 0.813630 0.000000 
0.761536 0.829885 0.000000 
0.747258 0.733036 0.000000 
0.760882 0.705300 0.000000 
0.696764 0.810173 0.000000 
0.748204 0.750331 0.000000 
0.731808 0.725209 0.000000 
0.763655 0.758159 0.000000 
0.733700 0.759798 0.000000 
0.717303 0.734675 0.000000 
0.730929 0.705846 0.000000 
0.778157 0.748688 0.000000 
0.734740 0.778252 0.000000 
0.718249 0.751970 0.000000 
0.703745 0.761437 0.000000 
0.702303 0.778570 0.000000 
0.717848 0.787558 0.000000 
0.681762 0.789238 0.000000 
0.688294 0.753609 0.000000 
0.669808 0.763059 0.000000 
0.687348 0.736314 0.000000 
0.664717 0.781554 0.000000 
0.644174 0.791185 0.000000 
0.648473 0.754512 0.000000 
0.671897 0.728486 0.000000 
0.701853 0.726847 0.000000 
0.651509 0.737234 0.000000 
0.670952 0.711192 0.000000 
0.700907 0.709553 0.000000 
0.654032 0.696931 0.000000 
0.685456 0.701725 0.000000 
0.684511 0.684431 0.000000 
0.670727 0.672658 0.000000 
0.675075 0.652108 0.000000 
0.699015 0.674963 0.000000 
0.693377 0.654960 0.000000 
0.714532 0.680722 0.000000 
0.730052 0.669736 0.000000 
0.769802 0.634462 0.000000 
0.665778 0.818960 0.000000 
0.678228 0.804147 0.000000 
0.692016 0.614335 0.000000 
0.808447 0.790045 0.000000 
0.802333 0.807182 0.000000 
0.794952 0.777606 0.000000 
0.777362 0.783104 0.000000 
0.773311 0.800360 0.000000 
0.754806 0.801960 0.000000 
0.748872 0.785251 0.000000 
0.763282 0.774624 0.000000 
0.608440 0.730628 0.000000 
0.829782 0.761830 0.000000 
0.810231 0.754337 0.000000 
0.715479 0.698018 0.000000 
0.754971 0.843297 0.000000 
0.760761 0.863641 0.000000 
0.615969 0.680700 0.000000 
0.654754 0.675692 0.000000 
0.745499 0.695402 0.000000 
0.742368 0.610560 0.000000 
0.694259 0.825986 0.000000 
0.665217 0.638006 0.000000 
0.838836 0.774525 0.000000 
0.861969 0.774320 0.000000 
0.834695 0.666877 0.000000 
0.848958 0.648663 0.000000 
0.628036 0.763233 0.000000 
0.651386 0.824962 0.000000 
0.646438 0.847560 0.000000 
0.784787 0.811999 0.000000 
0.825809 0.731469 0.000000 
0.795374 0.759655 0.000000 
0.787869 0.636609 0.000000 
0.628828 0.781410 0.000000 
0.832983 0.714748 0.000000 
0.741082 0.641546 0.000000 
0.728036 0.654368 0.000000 
0.731597 0.624241 0.000000 
0.706878 0.645351 0.000000 
0.585144 0.666667 0.000000 
0.708394 0.625981 0.000000 
0.639109 0.714053 0.000000 
0.621895 0.707124 0.000000 
VECTORS X_EC float 
-0.304985 0.214916 0.000000 
0.483169 0.121001 0.000000 
0.935415 0.298656 0.000000 
0.362127 0.831509 0.000000 
0.804420 0.407807 0.000000 
-0.168017 -0.675110 0.000000 
0.516817 0.121027 0.000000 
-0.695054 0.214857 0.000000 
0.905201 -0.703410 0.000000 
0.629709 0.819312 0.000000 
-0.844457 -0.062248 0.000000 
-0.077763 -0.895644 0.000000 
-0.989730 -0.873587 0.000000 
-0.155571 -0.062220 0.000000 
-0.500006 0.684393 0.000000 
0.117901 -0.690209 0.000000 
-0.649424 -0.652591 0.000000 
-0.780051 -0.650947 0.000000 
0.168148 0.429846 0.000000 
-0.326684 -0.678119 0.000000 
0.068680 0.273007 0.000000 
-0.219964 -0.349017 0.000000 
0.823328 0.574342 0.000000 
0.395128 0.099500 0.000000 
0.941955 0.772100 0.000000 
0.483168 0.879000 0.000000 
-0.329446 0.777581 0.000000 
0.885155 -0.326002 0.000000 
-0.660206 0.782356 0.000000 
0.516824 0.878955 0.000000 
-0.844469 -0.937749 0.000000 
0.629719 0.180694 0.000000 
0.236624 0.621949 0.000000 
-0.780050 -0.349056 0.000000 
-0.673270 -0.321921 0.000000 
0.068683 0.727009 0.000000 
-0.374668 -0.391987 0.000000 
-0.155542 -0.937736 0.000000 
-0.917955 -0.088372 0.000000 
-0.052084 -0.105855 0.000000 
0.095278 -0.297045 0.000000 
-0.500023 0.315632 0.000000 
-0.099045 -0.042421 0.000000 
0.250381 0.010240 0.000000 
0.454905 -0.246768 0.000000 
0.370058 0.316106 0.000000 
0.321553 -0.524859 0.000000 
-0.003890 -0.574447 0.000000 
0.488540 -0.816004 0.000000 
0.235905 0.948898 0.000000 
0.795769 -0.216406 0.000000 
0.704737 0.387548 0.000000 
0.161462 0.540952 0.000000 
0.239287 0.860420 0.000000 
-0.164153 0.492422 0.000000 
-0.071447 -0.989378 0.000000 
0.998246 -0.496204 0.000000 
0.925925 0.112043 0.000000 
0.787163 0.681986 0.000000 
-0.319846 -0.652032 0.000000 
-0.143161 -0.346003 0.000000 
0.185288 -0.346344 0.000000 
-0.307680 -0.061726 0.000000 
0.321222 -0.625103 0.000000 
0.157078 -0.910466 0.000000 
0.661265 -0.681621 0.000000 
0.687547 0.974277 0.000000 
0.374073 -0.060914 0.000000 
-0.154881 0.244481 0.000000 
-0.623805 -0.089734 0.000000 
-0.876496 0.144730 0.000000 
-0.788864 -0.374570 0.000000 
0.812363 -0.004561 0.000000 
0.719075 -0.077064 0.000000 
0.198423 0.245635 0.000000 
-0.389146 0.496250 0.000000 
0.533799 0.479460 0.000000 
0.911201 0.633651 0.000000 
0.832163 0.975401 0.000000 
-0.908749 0.735023 0.000000 
-0.982212 0.414924 0.000000 
-0.595016 0.832180 0.000000 
0.707307 0.348612 0.000000 
0.465495 0.572222 0.000000 
0.534858 0.050164 0.000000 
0.193385 0.101213 0.000000 
-0.746004 0.167407 0.000000 
-0.330544 0.615123 0.000000 
-0.552002 -0.853373 0.000000 
-0.267286 -0.659117 0.000000 
-0.793029 -0.629022 0.000000 
-0.343699 -0.322475 0.000000 
-0.838562 -0.165313 0.000000 