# vtk DataFile Version 3.0 
vtk output 
ASCII 
DATASET UNSTRUCTURED_GRID 
POINTS 616 float 
0.280433 0.484930 0.000000 
0.175691 0.145479 0.000000 
0.484626 0.322953 0.000000 
0.111258 0.351601 0.000000 
0.390097 0.129450 0.000000 
0.335979 0.478078 0.000000 
0.175736 0.443874 0.000000 
0.280425 0.104409 0.000000 
0.433569 0.423473 0.000000 
0.110612 0.238195 0.000000 
0.466598 0.211885 0.000000 
0.224899 0.473603 0.000000 
0.225981 0.119128 0.000000 
0.466571 0.377502 0.000000 
0.103889 0.294700 0.000000 
0.435192 0.163771 0.000000 
0.137062 0.402184 0.000000 
0.337150 0.108669 0.000000 
0.391179 0.461182 0.000000 
0.135727 0.185988 0.000000 
0.483338 0.266243 0.000000 
0.252233 0.480697 0.000000 
0.198366 0.128469 0.000000 
0.474684 0.349986 0.000000 
0.108281 0.322606 0.000000 
0.413655 0.145512 0.000000 
0.308575 0.486139 0.000000 
0.153387 0.425455 0.000000 
0.308809 0.102672 0.000000 
0.413123 0.443262 0.000000 
0.122748 0.211890 0.000000 
0.478736 0.238182 0.000000 
0.200781 0.457888 0.000000 
0.252219 0.108651 0.000000 
0.453441 0.403244 0.000000 
0.106008 0.266257 0.000000 
0.450106 0.188396 0.000000 
0.122800 0.377487 0.000000 
0.365285 0.115567 0.000000 
0.364460 0.472271 0.000000 
0.154784 0.164880 0.000000 
0.485454 0.294687 0.000000 
0.267559 0.474641 0.000000 
0.270180 0.457167 0.000000 
0.257327 0.446947 0.000000 
0.285466 0.451176 0.000000 
0.243430 0.453622 0.000000 
0.240957 0.469899 0.000000 
0.228874 0.445278 0.000000 
0.217124 0.457919 0.000000 
0.258835 0.429901 0.000000 
0.289022 0.434441 0.000000 
0.296715 0.461599 0.000000 
0.312680 0.457695 0.000000 
0.294303 0.477880 0.000000 
0.320224 0.473235 0.000000 
0.244848 0.419781 0.000000 
0.275245 0.423387 0.000000 
0.303733 0.430313 0.000000 
0.137084 0.385701 0.000000 
0.152380 0.376861 0.000000 
0.152357 0.360433 0.000000 
0.166594 0.385087 0.000000 
0.138420 0.353639 0.000000 
0.124159 0.361852 0.000000 
0.135590 0.336633 0.000000 
0.118390 0.335325 0.000000 
0.166621 0.350987 0.000000 
0.181898 0.377440 0.000000 
0.165200 0.400899 0.000000 
0.176922 0.413534 0.000000 
0.150961 0.409156 0.000000 
0.169458 0.429094 0.000000 
0.165807 0.333731 0.000000 
0.181948 0.359768 0.000000 
0.194489 0.389156 0.000000 
0.193656 0.443025 0.000000 
0.201365 0.424150 0.000000 
0.417805 0.427394 0.000000 
0.405934 0.414607 0.000000 
0.390038 0.418392 0.000000 
0.410804 0.398944 0.000000 
0.386875 0.434039 0.000000 
0.398150 0.446189 0.000000 
0.372053 0.442760 0.000000 
0.374733 0.459927 0.000000 
0.377645 0.406591 0.000000 
0.400013 0.385769 0.000000 
0.426667 0.396945 0.000000 
0.436506 0.382837 0.000000 
0.437831 0.408957 0.000000 
0.453459 0.386800 0.000000 
0.361103 0.411320 0.000000 
0.382825 0.389706 0.000000 
0.408711 0.370957 0.000000 
0.115450 0.307765 0.000000 
0.146197 0.307478 0.000000 
0.170857 0.161236 0.000000 
0.182873 0.174186 0.000000 
0.198881 0.170510 0.000000 
0.178012 0.189875 0.000000 
0.202410 0.155410 0.000000 
0.191236 0.143328 0.000000 
0.218364 0.148874 0.000000 
0.215821 0.131810 0.000000 
0.211258 0.182321 0.000000 
0.188864 0.203098 0.000000 
0.162291 0.192033 0.000000 
0.152582 0.206280 0.000000 
0.151078 0.179987 0.000000 
0.135754 0.202471 0.000000 
0.227902 0.177697 0.000000 
0.206100 0.199217 0.000000 
0.183010 0.219349 0.000000 
0.397220 0.144308 0.000000 
0.387261 0.158902 0.000000 
0.394400 0.173690 0.000000 
0.370881 0.157654 0.000000 
0.409824 0.173717 0.000000 
0.419120 0.160133 0.000000 
0.419316 0.187554 0.000000 
0.435390 0.181273 0.000000 
0.385631 0.188381 0.000000 
0.360395 0.171174 0.000000 
0.365287 0.142807 0.000000 
0.349240 0.136508 0.000000 
0.374543 0.129197 0.000000 
0.349220 0.119258 0.000000 
0.393842 0.203572 0.000000 
0.368005 0.187114 0.000000 
0.343248 0.169076 0.000000 
0.476155 0.281075 0.000000 
0.458536 0.282378 0.000000 
0.451421 0.297173 0.000000 
0.449305 0.268793 0.000000 
0.461009 0.309256 0.000000 
0.477426 0.308077 0.000000 
0.456095 0.325295 0.000000 
0.471055 0.333999 0.000000 
0.434469 0.299464 0.000000 
0.432195 0.269020 0.000000 
0.457430 0.255167 0.000000 
0.452355 0.238697 0.000000 
0.473844 0.253921 0.000000 
0.465837 0.227924 0.000000 
0.427683 0.315323 0.000000 
0.424475 0.284897 0.000000 
0.425939 0.253008 0.000000 
0.450080 0.204874 0.000000 
0.434938 0.218527 0.000000 
0.242044 0.122825 0.000000 
0.250561 0.153900 0.000000 
0.321676 0.112969 0.000000 
0.314160 0.128499 0.000000 
0.113187 0.281092 0.000000 
0.129363 0.283528 0.000000 
0.138593 0.269941 0.000000 
0.131621 0.300234 0.000000 
0.131910 0.255185 0.000000 
0.115501 0.253936 0.000000 
0.136984 0.238708 0.000000 
0.123508 0.227933 0.000000 
0.155697 0.270173 0.000000 
0.166808 0.253030 0.000000 
0.161042 0.291004 0.000000 
0.267551 0.114700 0.000000 
0.270180 0.132167 0.000000 
0.285476 0.138152 0.000000 
0.254391 0.138078 0.000000 
0.296968 0.127208 0.000000 
0.294545 0.110932 0.000000 
0.320436 0.145317 0.000000 
0.287481 0.156601 0.000000 
0.305248 0.162474 0.000000 
0.268355 0.166439 0.000000 
0.461726 0.360172 0.000000 
0.441516 0.356729 0.000000 
0.347129 0.465946 0.000000 
0.344055 0.442710 0.000000 
0.228784 0.428482 0.000000 
0.358688 0.431852 0.000000 
0.412104 0.202718 0.000000 
0.148713 0.326172 0.000000 
0.231478 0.159349 0.000000 
0.439708 0.329059 0.000000 
0.307143 0.413342 0.000000 
0.397665 0.357760 0.000000 
0.332786 0.182862 0.000000 
0.209884 0.381256 0.000000 
0.194131 0.232610 0.000000 
0.408634 0.253422 0.000000 
0.246556 0.402551 0.000000 
0.348758 0.399297 0.000000 
0.384814 0.218330 0.000000 
0.180334 0.324326 0.000000 
0.240296 0.189776 0.000000 
0.410488 0.317438 0.000000 
0.316133 0.443132 0.000000 
0.429396 0.370083 0.000000 
0.337688 0.149257 0.000000 
0.190909 0.409439 0.000000 
0.162449 0.220373 0.000000 
0.437974 0.236310 0.000000 
0.295785 0.400462 0.000000 
0.211181 0.229586 0.000000 
0.388803 0.235674 0.000000 
0.374629 0.248448 0.000000 
0.374641 0.264760 0.000000 
0.360495 0.240268 0.000000 
0.393067 0.268891 0.000000 
0.360429 0.274267 0.000000 
0.345136 0.247784 0.000000 
0.366141 0.222279 0.000000 
0.361316 0.291493 0.000000 
0.345057 0.265471 0.000000 
0.330651 0.238390 0.000000 
0.377132 0.303466 0.000000 
0.346808 0.300952 0.000000 
0.315185 0.246181 0.000000 
0.328200 0.218734 0.000000 
0.278591 0.406378 0.000000 
0.300143 0.383801 0.000000 
0.217296 0.212445 0.000000 
0.331346 0.293127 0.000000 
0.285444 0.373888 0.000000 
0.318025 0.383222 0.000000 
0.331030 0.399422 0.000000 
0.316812 0.302576 0.000000 
0.330482 0.274872 0.000000 
0.266385 0.379828 0.000000 
0.317753 0.319874 0.000000 
0.301363 0.294756 0.000000 
0.333206 0.327697 0.000000 
0.303254 0.329362 0.000000 
0.286862 0.304233 0.000000 
0.300506 0.275411 0.000000 
0.347729 0.318227 0.000000 
0.304307 0.347840 0.000000 
0.287813 0.321541 0.000000 
0.273328 0.331034 0.000000 
0.271899 0.348188 0.000000 
0.287436 0.357173 0.000000 
0.251382 0.358883 0.000000 
0.257887 0.323215 0.000000 
0.239424 0.332693 0.000000 
0.256934 0.305908 0.000000 
0.234348 0.351208 0.000000 
0.213829 0.360861 0.000000 
0.218105 0.324163 0.000000 
0.241500 0.298098 0.000000 
0.271430 0.296426 0.000000 
0.221130 0.306871 0.000000 
0.240560 0.280807 0.000000 
0.270498 0.279142 0.000000 
0.223653 0.266560 0.000000 
0.255061 0.271330 0.000000 
0.254125 0.254041 0.000000 
0.240349 0.242277 0.000000 
0.244704 0.221729 0.000000 
0.268632 0.244571 0.000000 
0.263008 0.224578 0.000000 
0.284142 0.250319 0.000000 
0.299671 0.239335 0.000000 
0.339473 0.204102 0.000000 
0.235429 0.388641 0.000000 
0.247861 0.373808 0.000000 
0.261666 0.183967 0.000000 
0.377881 0.359456 0.000000 
0.371719 0.376564 0.000000 
0.364450 0.347081 0.000000 
0.346870 0.352607 0.000000 
0.342798 0.369858 0.000000 
0.324341 0.371522 0.000000 
0.318422 0.354820 0.000000 
0.332818 0.344160 0.000000 
0.178084 0.300292 0.000000 
0.399323 0.331307 0.000000 
0.379804 0.323856 0.000000 
0.285072 0.267601 0.000000 
0.324511 0.412883 0.000000 
0.330341 0.433234 0.000000 
0.185599 0.250343 0.000000 
0.224377 0.245317 0.000000 
0.315094 0.264976 0.000000 
0.312037 0.180200 0.000000 
0.263891 0.395659 0.000000 
0.234848 0.207628 0.000000 
0.408313 0.343949 0.000000 
0.431522 0.343846 0.000000 
0.404383 0.236517 0.000000 
0.418654 0.218319 0.000000 
0.197686 0.332904 0.000000 
0.221052 0.394654 0.000000 
0.216115 0.417263 0.000000 
0.354216 0.381440 0.000000 
0.395472 0.301053 0.000000 
0.364926 0.329169 0.000000 
0.357546 0.206255 0.000000 
0.198486 0.351090 0.000000 
0.402659 0.284349 0.000000 
0.310737 0.211172 0.000000 
0.297672 0.223981 0.000000 
0.301258 0.193874 0.000000 
0.276519 0.214973 0.000000 
0.154778 0.236321 0.000000 
0.278046 0.195611 0.000000 
0.208738 0.283696 0.000000 
0.191530 0.276774 0.000000 
0.691054 0.895587 0.000000 
0.586881 0.556755 0.000000 
0.895269 0.733536 0.000000 
0.521871 0.762216 0.000000 
0.800708 0.540059 0.000000 
0.746566 0.888745 0.000000 
0.586342 0.854484 0.000000 
0.691031 0.515079 0.000000 
0.845211 0.835119 0.000000 
0.521229 0.648737 0.000000 
0.877201 0.622513 0.000000 
0.635513 0.884219 0.000000 
0.636574 0.529830 0.000000 
0.877244 0.788106 0.000000 
0.514542 0.705307 0.000000 
0.845803 0.574391 0.000000 
0.547662 0.812799 0.000000 
0.747761 0.519300 0.000000 
0.801833 0.871942 0.000000 
0.546554 0.596755 0.000000 
0.893973 0.676863 0.000000 
0.662851 0.891332 0.000000 
0.609030 0.539256 0.000000 
0.885321 0.760560 0.000000 
0.518914 0.733218 0.000000 
0.824267 0.556127 0.000000 
0.719194 0.896814 0.000000 
0.563994 0.836069 0.000000 
0.719415 0.513322 0.000000 
0.824304 0.854519 0.000000 
0.533423 0.622493 0.000000 
0.889352 0.648807 0.000000 
0.611389 0.868496 0.000000 
0.662786 0.519314 0.000000 
0.864266 0.814010 0.000000 
0.516651 0.676838 0.000000 
0.860711 0.599020 0.000000 
0.533401 0.788104 0.000000 
0.775897 0.526182 0.000000 
0.775036 0.882949 0.000000 
0.566433 0.576536 0.000000 
0.896110 0.705302 0.000000 
0.678187 0.885290 0.000000 
0.680827 0.867825 0.000000 
0.667975 0.857599 0.000000 
[...]
POINT_DATA 616 
VECTORS X_GC float 
0.280433 0.484930 0.000000 
0.175691 0.145479 0.000000 
0.484626 0.322953 0.000000 
0.111258 0.351601 0.000000 
0.390097 0.129450 0.000000 
0.335979 0.478078 0.000000 
0.175736 0.443874 0.000000 
0.280425 0.104409 0.000000 
0.433569 0.423473 0.000000 
0.110612 0.238195 0.000000 
0.466598 0.211885 0.000000 
0.224899 0.473603 0.000000 
0.225981 0.119128 0.000000 
0.466571 0.377502 0.000000 
0.103889 0.294700 0.000000 
0.435192 0.163771 0.000000 
0.137062 0.402184 0.000000 
0.337150 0.108669 0.000000 
0.391179 0.461182 0.000000 
0.135727 0.185988 0.000000 
0.483338 0.266243 0.000000 
0.252233 0.480697 0.000000 
0.198366 0.128469 0.000000 
0.474684 0.349986 0.000000 
0.108281 0.322606 0.000000 
0.413655 0.145512 0.000000 
0.308575 0.486139 0.000000 
0.153387 0.425455 0.000000 
0.308809 0.102672 0.000000 
0.413123 0.443262 0.000000 
0.122748 0.211890 0.000000 
0.478736 0.238182 0.000000 
0.200781 0.457888 0.000000 
0.252219 0.108651 0.000000 
0.453441 0.403244 0.000000 
0.106008 0.266257 0.000000 
0.450106 0.188396 0.000000 
0.122800 0.377487 0.000000 
0.365285 0.115567 0.000000 
0.364460 0.472271 0.000000 
0.154784 0.164880 0.000000 
0.485454 0.294687 0.000000 
0.267559 0.474641 0.000000 
0.270180 0.457167 0.000000 
0.257327 0.446947 0.000000 
0.285466 0.451176 0.000000 
0.243430 0.453622 0.000000 
0.240957 0.469899 0.000000 
0.228874 0.445278 0.000000 
0.217124 0.457919 0.000000 
0.258835 0.429901 0.000000 
0.289022 0.434441 0.000000 
0.296715 0.461599 0.000000 
0.312680 0.457695 0.000000 
0.294303 0.477880 0.000000 
0.320224 0.473235 0.000000 
0.244848 0.419781 0.000000 
0.275245 0.423387 0.000000 
0.303733 0.430313 0.000000 
0.137084 0.385701 0.000000 
0.152380 0.376861 0.000000 
0.152357 0.360433 0.000000 
0.166594 0.385087 0.000000 
0.138420 0.353639 0.000000 
0.124159 0.361852 0.000000 
0.135590 0.336633 0.000000 
0.118390 0.335325 0.000000 
0.166621 0.350987 0.000000 
0.181898 0.377440 0.000000 
0.165200 0.400899 0.000000 
0.176922 0.413534 0.000000 
0.150961 0.409156 0.000000 
0.169458 0.429094 0.000000 
0.165807 0.333731 0.000000 
0.181948 0.359768 0.000000 
0.194489 0.389156 0.000000 
0.193656 0.443025 0.000000 
0.201365 0.424150 0.000000 
0.417805 0.427394 0.000000 
0.405934 0.414607 0.000000 
0.390038 0.418392 0.000000 
0.410804 0.398944 0.000000 
0.386875 0.434039 0.000000 
0.398150 0.446189 0.000000 
0.372053 0.442760 0.000000 
0.374733 0.459927 0.000000 
0.377645 0.406591 0.000000 
0.400013 0.385769 0.000000 
0.426667 0.396945 0.000000 
0.436506 0.382837 0.000000 
0.437831 0.408957 0.000000 
0.453459 0.386800 0.000000 
0.361103 0.411320 0.000000 
0.382825 0.389706 0.000000 
0.408711 0.370957 0.000000 
0.115450 0.307765 0.000000 
0.146197 0.307478 0.000000 
0.170857 0.161236 0.000000 
0.182873 0.174186 0.000000 
0.198881 0.170510 0.000000 
0.178012 0.189875 0.000000 
0.202410 0.155410 0.000000 
0.191236 0.143328 0.000000 
0.218364 0.148874 0.000000 
0.215821 0.131810 0.000000 
0.211258 0.182321 0.000000 
0.188864 0.203098 0.000000 
0.162291 0.192033 0.000000 
0.152582 0.206280 0.000000 
0.151078 0.179987 0.000000 
0.135754 0.202471 0.000000 
0.227902 0.177697 0.000000 
0.206100 0.199217 0.000000 
0.183010 0.219349 0.000000 
0.397220 0.144308 0.000000 
0.387261 0.158902 0.000000 
0.394400 0.173690 0.000000 
0.370881 0.157654 0.000000 
0.409824 0.173717 0.000000 
0.419120 0.160133 0.000000 
0.419316 0.187554 0.000000 
0.435390 0.181273 0.000000 
0.385631 0.188381 0.000000 
0.360395 0.171174 0.000000 
0.365287 0.142807 0.000000 
0.349240 0.136508 0.000000 
0.374543 0.129197 0.000000 
0.349220 0.119258 0.000000 
0.393842 0.203572 0.000000 
0.368005 0.187114 0.000000 
0.343248 0.169076 0.000000 
0.476155 0.281075 0.000000 
0.458536 0.282378 0.000000 
0.451421 0.297173 0.000000 
0.449305 0.268793 0.000000 
0.461009 0.309256 0.000000 
0.477426 0.308077 0.000000 
0.456095 0.325295 0.000000 
0.471055 0.333999 0.000000 
0.434469 0.299464 0.000000 
0.432195 0.269020 0.000000 
0.457430 0.255167 0.000000 
0.452355 0.238697 0.000000 
0.473844 0.253921 0.000000 
0.465837 0.227924 0.000000 
0.427683 0.315323 0.000000 
0.424475 0.284897 0.000000 
0.425939 0.253008 0.000000 
0.450080 0.204874 0.000000 
0.434938 0.218527 0.000000 
0.242044 0.122825 0.000000 
0.250561 0.153900 0.000000 
0.321676 0.112969 0.000000 
0.314160 0.128499 0.000000 
0.113187 0.281092 0.000000 
0.129363 0.283528 0.000000 
0.138593 0.269941 0.000000 
0.131621 0.300234 0.000000 
0.131910 0.255185 0.000000 
0.115501 0.253936 0.000000 
0.136984 0.238708 0.000000 
0.123508 0.227933 0.000000 
0.155697 0.270173 0.000000 
0.166808 0.253030 0.000000 
0.161042 0.291004 0.000000 
0.267551 0.114700 0.000000 
0.270180 0.132167 0.000000 
0.285476 0.138152 0.000000 
0.254391 0.138078 0.000000 
0.296968 0.127208 0.000000 
0.294545 0.110932 0.000000 
0.320436 0.145317 0.000000 
0.287481 0.156601 0.000000 
0.305248 0.162474 0.000000 
0.268355 0.166439 0.000000 
0.461726 0.360172 0.000000 
0.441516 0.356729 0.000000 
0.347129 0.465946 0.000000 
0.344055 0.442710 0.000000 
0.228784 0.428482 0.000000 
0.358688 0.431852 0.000000 
0.412104 0.202718 0.000000 
0.148713 0.326172 0.000000 
0.231478 0.159349 0.000000 
0.439708 0.329059 0.000000 
0.307143 0.413342 0.000000 
0.397665 0.357760 0.000000 
0.332786 0.182862 0.000000 
0.209884 0.381256 0.000000 
0.194131 0.232610 0.000000 
0.408634 0.253422 0.000000 
0.246556 0.402551 0.000000 
0.348758 0.399297 0.000000 
0.384814 0.218330 0.000000 
0.180334 0.324326 0.000000 
0.240296 0.189776 0.000000 
0.410488 0.317438 0.000000 
0.316133 0.443132 0.000000 
0.429396 0.370083 0.000000 
0.337688 0.149257 0.000000 
0.190909 0.409439 0.000000 
0.162449 0.220373 0.000000 
0.437974 0.236310 0.000000 
0.295785 0.400462 0.000000 
0.211181 0.229586 0.000000 
0.388803 0.235674 0.000000 
0.374629 0.248448 0.000000 
0.374641 0.264760 0.000000 
0.360495 0.240268 0.000000 
0.393067 0.268891 0.000000 
0.360429 0.274267 0.000000 
0.345136 0.247784 0.000000 
0.366141 0.222279 0.000000 
0.361316 0.291493 0.000000 
0.345057 0.265471 0.000000 
0.330651 0.238390 0.000000 
0.377132 0.303466 0.000000 
0.346808 0.300952 0.000000 
0.315185 0.246181 0.000000 
0.328200 0.218734 0.000000 
0.278591 0.406378 0.000000 
0.300143 0.383801 0.000000 
0.217296 0.212445 0.000000 
0.331346 0.293127 0.000000 
0.285444 0.373888 0.000000 
0.318025 0.383222 0.000000 
0.331030 0.399422 0.000000 
0.316812 0.302576 0.000000 
0.330482 0.274872 0.000000 
0.266385 0.379828 0.000000 
0.317753 0.319874 0.000000 
0.301363 0.294756 0.000000 
0.333206 0.327697 0.000000 
0.303254 0.329362 0.000000 
0.286862 0.304233 0.000000 
0.300506 0.275411 0.000000 
0.347729 0.318227 0.000000 
0.304307 0.347840 0.000000 
0.287813 0.321541 0.000000 
0.273328 0.331034 0.000000 
0.271899 0.348188 0.000000 
0.287436 0.357173 0.000000 
0.251382 0.358883 0.000000 
0.257887 0.323215 0.000000 
0.239424 0.332693 0.000000 
0.256934 0.305908 0.000000 
0.234348 0.351208 0.000000 
0.213829 0.360861 0.000000 
0.218105 0.324163 0.000000 
0.241500 0.298098 0.000000 
0.271430 0.296426 0.000000 
0.221130 0.306871 0.000000 
0.240560 0.280807 0.000000 
0.270498 0.279142 0.000000 
0.223653 0.266560 0.000000 
0.255061 0.271330 0.000000 
0.254125 0.254041 0.000000 
0.240349 0.242277 0.000000 
0.244704 0.221729 0.000000 
0.268632 0.244571 0.000000 
0.263008 0.224578 0.000000 
0.284142 0.250319 0.000000 
0.299671 0.239335 0.000000 
0.339473 0.204102 0.000000 
0.235429 0.388641 0.000000 
0.247861 0.373808 0.000000 
0.261666 0.183967 0.000000 
0.377881 0.359456 0.000000 
0.371719 0.376564 0.000000 
0.364450 0.347081 0.000000 
0.346870 0.352607 0.000000 
0.342798 0.369858 0.000000 
0.324341 0.371522 0.000000 
0.318422 0.354820 0.000000 
0.332818 0.344160 0.000000 
0.178084 0.300292 0.000000 
0.399323 0.331307 0.000000 
0.379804 0.323856 0.000000 
0.285072 0.267601 0.000000 
0.324511 0.412883 0.000000 
0.330341 0.433234 0.000000 
0.185599 0.250343 0.000000 
0.224377 0.245317 0.000000 
0.315094 0.264976 0.000000 
0.312037 0.180200 0.000000 
0.263891 0.395659 0.000000 
0.234848 0.207628 0.000000 
0.408313 0.343949 0.000000 
0.431522 0.343846 0.000000 
0.404383 0.236517 0.000000 
0.418654 0.218319 0.000000 
0.197686 0.332904 0.000000 
0.221052 0.394654 0.000000 
0.216115 0.417263 0.000000 
0.354216 0.381440 0.000000 
0.395472 0.301053 0.000000 
0.364926 0.329169 0.000000 
0.357546 0.206255 0.000000 
0.198486 0.351090 0.000000 
0.402659 0.284349 0.000000 
0.310737 0.211172 0.000000 
0.297672 0.223981 0.000000 
0.301258 0.193874 0.000000 
0.276519 0.214973 0.000000 
0.154778 0.236321 0.000000 
0.278046 0.195611 0.000000 
0.208738 0.283696 0.000000 
0.191530 0.276774 0.000000 
0.691054 0.895587 0.000000 
0.586881 0.556755 0.000000 
0.895269 0.733536 0.000000 
0.521871 0.762216 0.000000 
0.800708 0.540059 0.000000 
0.746566 0.888745 0.000000 
0.586342 0.854484 0.000000 
0.691031 0.515079 0.000000 
0.845211 0.835119 0.000000 
0.521229 0.648737 0.000000 
0.877201 0.622513 0.000000 
0.635513 0.884219 0.000000 
0.636574 0.529830 0.000000 
0.877244 0.788106 0.000000 
0.514542 0.705307 0.000000 
0.845803 0.574391 0.000000 
0.547662 0.812799 0.000000 
0.747761 0.519300 0.000000 
0.801833 0.871942 0.000000 
0.546554 0.596755 0.000000 
0.893973 0.676863 0.000000 
0.662851 0.891332 0.000000 
0.609030 0.539256 0.000000 
0.885321 0.760560 0.000000 
0.518914 0.733218 0.000000 
0.824267 0.556127 0.000000 
0.719194 0.896814 0.000000 
0.563994 0.836069 0.000000 
0.719415 0.513322 0.000000 
0.824304 0.854519 0.000000 
0.533423 0.622493 0.000000 
0.889352 0.648807 0.000000 
0.611389 0.868496 0.000000 
0.662786 0.519314 0.000000 
0.864266 0.814010 0.000000 
0.516651 0.676838 0.000000 
0.860711 0.599020 0.000000 
0.533401 0.788104 0.000000 
0.775897 0.526182 0.000000 
0.775036 0.882949 0.000000 
0.566433 0.576536 0.000000 
0.896110 0.705302 0.000000 
0.678187 0.885290 0.000000 
0.680827 0.867825 0.000000 
0.667975 0.857599 0.000000 
0.696128 0.861847 0.000000 
0.654064 0.864261 0.000000 
0.651579 0.880529 0.000000 
0.639504 0.855910 0.000000 
0.627742 0.868536 0.000000 
0.669499 0.840561 0.000000 
0.699707 0.845120 0.000000 
0.707369 0.872275 0.000000 
0.723348 0.868386 0.000000 
0.704936 0.888550 0.000000 
0.730853 0.883919 0.000000 
0.655507 0.830435 0.000000 
0.685930 0.834060 0.000000 
0.714434 0.841001 0.000000 
0.547689 0.796321 0.000000 
0.562997 0.787491 0.000000 
0.562985 0.771074 0.000000 
0.577213 0.795716 0.000000 
0.549046 0.764274 0.000000 
0.534771 0.772474 0.000000 
0.546225 0.747273 0.000000 
0.529018 0.745948 0.000000 
0.577262 0.761645 0.000000 
0.592530 0.788084 0.000000 
0.575810 0.811520 0.000000 
0.587533 0.824154 0.000000 
0.561565 0.819771 0.000000 
0.580066 0.839709 0.000000 
0.576458 0.744404 0.000000 
0.592592 0.770431 0.000000 
0.605119 0.799795 0.000000 
0.604265 0.853638 0.000000 
0.611982 0.834773 0.000000 
0.829138 0.838762 0.000000 
0.817122 0.825811 0.000000 
0.801114 0.829486 0.000000 
0.821983 0.810121 0.000000 
0.797789 0.845002 0.000000 
0.808963 0.857084 0.000000 
0.782857 0.853618 0.000000 
0.785398 0.870682 0.000000 
0.788739 0.817676 0.000000 
0.811132 0.796899 0.000000 
0.837703 0.807963 0.000000 
0.847412 0.793716 0.000000 
0.848916 0.820010 0.000000 
0.864238 0.797525 0.000000 
0.772096 0.822301 0.000000 
0.793897 0.800780 0.000000 
0.819748 0.782013 0.000000 
0.526096 0.718388 0.000000 
0.556855 0.718146 0.000000 
0.582198 0.572621 0.000000 
0.594072 0.585409 0.000000 
0.609968 0.581626 0.000000 
0.589201 0.601069 0.000000 
0.613337 0.566396 0.000000 
0.602061 0.554250 0.000000 
0.629191 0.559760 0.000000 
0.626512 0.542596 0.000000 
0.622361 0.593424 0.000000 
0.599993 0.614246 0.000000 
0.573335 0.603063 0.000000 
0.563493 0.617167 0.000000 
0.562168 0.591049 0.000000 
0.546537 0.613199 0.000000 
0.638904 0.588693 0.000000 
0.617182 0.610308 0.000000 
0.594053 0.630418 0.000000 
0.807833 0.554922 0.000000 
0.797882 0.569524 0.000000 
0.805023 0.584316 0.000000 
0.781513 0.568285 0.000000 
0.820441 0.584340 0.000000 
0.829734 0.570752 0.000000 
0.829933 0.598180 0.000000 
0.846001 0.591895 0.000000 
0.796264 0.599017 0.000000 
0.771044 0.581819 0.000000 
0.775915 0.553435 0.000000 
0.759872 0.547144 0.000000 
0.785160 0.539812 0.000000 
0.759838 0.529885 0.000000 
0.804480 0.614214 0.000000 
0.778657 0.597763 0.000000 
0.753912 0.579731 0.000000 
0.886804 0.691703 0.000000 
0.869190 0.693030 0.000000 
0.862086 0.707840 0.000000 
0.859953 0.679452 0.000000 
0.871681 0.719911 0.000000 
0.888092 0.718701 0.000000 
0.866785 0.735968 0.000000 
0.881715 0.744612 0.000000 
0.845138 0.710160 0.000000 
0.842849 0.679698 0.000000 
0.868066 0.665812 0.000000 
0.862983 0.649340 0.000000 
0.884473 0.664550 0.000000 
0.876451 0.638556 0.000000 
0.838386 0.726059 0.000000 
0.835140 0.695597 0.000000 
0.836587 0.663680 0.000000 
0.860688 0.615504 0.000000 
0.845562 0.629168 0.000000 
0.652672 0.533535 0.000000 
0.661341 0.564699 0.000000 
0.732293 0.523613 0.000000 
0.724799 0.539154 0.000000 
0.523852 0.691714 0.000000 
0.540032 0.694179 0.000000 
0.549284 0.680623 0.000000 
0.542279 0.710883 0.000000 
0.542607 0.665853 0.000000 
0.526151 0.664530 0.000000 
0.547721 0.649414 0.000000 
0.534185 0.638551 0.000000 
0.566409 0.680903 0.000000 
0.577614 0.663861 0.000000 
0.571714 0.701705 0.000000 
0.678166 0.525381 0.000000 
0.680846 0.542869 0.000000 
0.696143 0.548832 0.000000 
0.665091 0.548820 0.000000 
0.707612 0.537874 0.000000 
0.705164 0.521594 0.000000 
0.731092 0.555976 0.000000 
0.698177 0.567285 0.000000 
0.715938 0.573150 0.000000 
0.679122 0.577189 0.000000 
0.872425 0.770821 0.000000 
0.852315 0.767512 0.000000 
0.757761 0.876650 0.000000 
0.754807 0.853493 0.000000 
0.639423 0.839122 0.000000 
0.769540 0.842728 0.000000 
0.822731 0.613352 0.000000 
0.559361 0.736831 0.000000 
0.642347 0.570244 0.000000 
0.850439 0.739796 0.000000 
0.717876 0.824043 0.000000 
0.808627 0.768752 0.000000 
0.743475 0.593533 0.000000 
0.620533 0.791914 0.000000 
0.605090 0.643602 0.000000 
0.819290 0.664111 0.000000 
0.657231 0.813218 0.000000 
0.759703 0.810222 0.000000 
0.795469 0.628995 0.000000 
0.590999 0.735025 0.000000 
0.651251 0.600714 0.000000 
0.821219 0.728225 0.000000 
0.726834 0.853840 0.000000 
0.840308 0.780989 0.000000 
0.748338 0.559906 0.000000 
0.601525 0.820064 0.000000 
0.573379 0.631303 0.000000 
0.848607 0.646961 0.000000 
0.706518 0.811165 0.000000 
0.622125 0.640552 0.000000 
0.799467 0.646357 0.000000 
0.785324 0.659163 0.000000 
0.785351 0.675498 0.000000 
0.771205 0.650991 0.000000 
0.803750 0.679612 0.000000 
0.771177 0.685042 0.000000 
0.755881 0.658541 0.000000 
0.776824 0.632969 0.000000 
0.772075 0.702288 0.000000 
0.755826 0.676258 0.000000 
0.741408 0.649150 0.000000 
0.787864 0.714247 0.000000 
0.757602 0.711779 0.000000 
0.725980 0.656978 0.000000 
0.738932 0.629460 0.000000 
0.689300 0.817064 0.000000 
0.710899 0.794534 0.000000 
0.628288 0.623447 0.000000 
0.742169 0.703975 0.000000 
0.696198 0.784632 0.000000 
0.728828 0.794003 0.000000 
0.741889 0.810253 0.000000 
0.727671 0.713453 0.000000 
0.741293 0.685701 0.000000 
0.677105 0.790542 0.000000 
0.728603 0.730737 0.000000 
0.712239 0.705647 0.000000 
0.744042 0.738549 0.000000 
0.714098 0.740209 0.000000 
0.697736 0.715122 0.000000 
0.711370 0.686286 0.000000 
0.758542 0.729069 0.000000 
0.715122 0.758650 0.000000 
0.698662 0.732399 0.000000 
0.684141 0.741856 0.000000 
0.682680 0.758972 0.000000 
0.698222 0.767954 0.000000 
0.662114 0.769620 0.000000 
0.668684 0.734028 0.000000 
0.650173 0.743460 0.000000 
0.667754 0.716750 0.000000 
0.645065 0.761937 0.000000 
0.624503 0.771550 0.000000 
0.628825 0.734909 0.000000 
0.652292 0.708920 0.000000 
0.682286 0.707301 0.000000 
0.631873 0.717647 0.000000 
0.651361 0.691641 0.000000 
0.681355 0.690018 0.000000 
0.634461 0.677402 0.000000 
0.665895 0.682186 0.000000 
0.664969 0.664898 0.000000 
0.651214 0.653155 0.000000 
0.655593 0.632617 0.000000 
0.679470 0.655409 0.000000 
0.673850 0.635411 0.000000 
0.694975 0.661151 0.000000 
0.710475 0.650134 0.000000 
0.750172 0.614792 0.000000 
0.646102 0.799313 0.000000 
0.658566 0.784514 0.000000 
0.672514 0.594782 0.000000 
0.788817 0.770411 0.000000 
0.782702 0.787552 0.000000 
0.775324 0.757975 0.000000 
0.757735 0.763481 0.000000 
0.753678 0.780735 0.000000 
0.735169 0.782338 0.000000 
0.729246 0.765638 0.000000 
0.743660 0.755009 0.000000 
0.588759 0.711013 0.000000 
0.810144 0.742177 0.000000 
0.790598 0.734692 0.000000 
0.695930 0.678468 0.000000 
0.735318 0.823662 0.000000 
0.741103 0.844001 0.000000 
0.596467 0.661256 0.000000 
0.635248 0.656212 0.000000 
0.725920 0.675813 0.000000 
0.722746 0.590882 0.000000 
0.674592 0.806348 0.000000 
0.645792 0.618569 0.000000 
0.819197 0.754872 0.000000 
0.842325 0.754657 0.000000 
0.815033 0.647190 0.000000 
0.829286 0.628965 0.000000 
0.608365 0.743613 0.000000 
0.631703 0.805308 0.000000 
0.626747 0.827900 0.000000 
0.765152 0.792370 0.000000 
0.806169 0.711809 0.000000 
0.775748 0.740023 0.000000 
0.768225 0.616931 0.000000 
0.609151 0.761777 0.000000 
0.813338 0.695080 0.000000 
0.721481 0.621901 0.000000 
0.708452 0.634748 0.000000 
0.711995 0.604581 0.000000 
0.687319 0.625752 0.000000 
0.565604 0.647144 0.000000 
0.688825 0.606356 0.000000 
0.619473 0.694479 0.000000 
0.602260 0.687561 0.000000 
VECTORS X_EC float 
-0.698604 0.608667 0.000000 
0.090415 0.513828 0.000000 
0.540939 0.692527 0.000000 
-0.032029 -0.774845 0.000000 
0.410998 0.801940 0.000000 
-0.561556 -0.280419 0.000000 
0.122526 0.514722 0.000000 
0.911822 0.608496 0.000000 
0.530533 -0.328628 0.000000 
0.236101 -0.787754 0.000000 
0.762299 0.331960 0.000000 
-0.472058 -0.502022 0.000000 
0.617444 -0.480389 0.000000 
-0.550041 0.331426 0.000000 
-0.893994 -0.922225 0.000000 
-0.275414 -0.296168 0.000000 
0.956312 -0.258767 0.000000 
0.826627 -0.256998 0.000000 
-0.223632 0.823584 0.000000 
-0.719758 -0.285456 0.000000 
-0.324855 0.666754 0.000000 
-0.613947 0.044651 0.000000 
0.430613 0.967310 0.000000 
0.000275 0.493682 0.000000 
0.547880 -0.834382 0.000000 
0.089764 -0.726902 0.000000 
-0.722775 -0.828496 0.000000 
0.490899 0.067749 0.000000 
0.946557 -0.823825 0.000000 
0.134760 -0.737547 0.000000 
0.762195 -0.545033 0.000000 
0.236362 0.574718 0.000000 
-0.157768 -0.984388 0.000000 
0.826970 0.044381 0.000000 
0.935110 0.068817 0.000000 
-0.325136 -0.879834 0.000000 
-0.767928 0.002119 0.000000 
-0.549740 -0.544005 0.000000 
0.688660 0.305694 0.000000 
-0.445422 0.289198 0.000000 
-0.297595 0.095679 0.000000 
-0.893749 0.709077 0.000000 
-0.492823 0.351180 0.000000 
-0.143347 0.403606 0.000000 
0.061065 0.146544 0.000000 
-0.023515 0.709310 0.000000 
-0.072443 -0.131408 0.000000 
-0.397975 -0.180865 0.000000 
0.094440 -0.422524 0.000000 
-0.158384 -0.657512 0.000000 
0.401979 0.176708 0.000000 
0.311184 0.780447 0.000000 
-0.231981 0.934291 0.000000 
-0.153896 -0.746392 0.000000 
-0.557598 0.886066 0.000000 
-0.464700 -0.595524 0.000000 
0.604384 -0.103036 0.000000 
0.532264 0.504905 0.000000 
0.393742 -0.925344 0.000000 
-0.714023 -0.258310 0.000000 
-0.537220 0.047597 0.000000 
-0.208668 0.047140 0.000000 
-0.701734 0.331875 0.000000 
-0.072777 -0.231591 0.000000 
-0.237045 -0.516830 0.000000 
0.267337 -0.288199 0.000000 
0.293499 -0.632201 0.000000 
-0.019734 0.332424 0.000000 
-0.548810 0.637958 0.000000 
0.982022 0.303994 0.000000 
0.729313 0.538435 0.000000 
0.816880 0.019213 0.000000 
0.418115 0.389155 0.000000 
0.325388 0.316146 0.000000 
-0.195359 0.638962 0.000000 
-0.783124 0.889779 0.000000 
0.139498 0.873129 0.000000 
0.517006 -0.972696 0.000000 
0.452123 -0.643892 0.000000 
0.707852 -0.881326 0.000000 
0.632170 0.800760 0.000000 
-0.978883 -0.783922 0.000000 
0.319214 0.737492 0.000000 
0.076223 0.962994 0.000000 
0.144794 0.441059 0.000000 
-0.198541 0.494661 0.000000 
0.868183 0.552909 0.000000 
-0.715371 -0.999744 0.000000 
-0.938907 -0.466668 0.000000 
-0.656731 -0.269875 0.000000 
0.820855 -0.243383 0.000000 
-0.735997 0.069176 0.000000 
0.773609 0.222068 0.000000 