# vtk DataFile Version 3.0 
vtk output 
ASCII 
DATASET UNSTRUCTURED_GRID 
POINTS 616 float 
0.205743 0.410247 0.000000 
0.101050 0.070842 0.000000 
0.409931 0.248227 0.000000 
0.036575 0.276893 0.000000 
0.315390 0.054779 0.000000 
0.261239 0.403394 0.000000 
0.101050 0.369158 0.000000 
0.205743 0.029753 0.000000 
0.359852 0.349764 0.000000 
0.035966 0.163514 0.000000 
0.391887 0.137223 0.000000 
0.150217 0.398888 0.000000 
0.151321 0.044487 0.000000 
0.391887 0.302777 0.000000 
0.029219 0.220000 0.000000 
0.360489 0.089105 0.000000 
0.062370 0.327470 0.000000 
0.262453 0.034003 0.000000 
0.316487 0.386582 0.000000 
0.061094 0.111334 0.000000 
0.408650 0.191566 0.000000 
0.177547 0.405997 0.000000 
0.123717 0.053834 0.000000 
0.399973 0.275241 0.000000 
0.033605 0.247902 0.000000 
0.338950 0.070842 0.000000 
0.233875 0.411469 0.000000 
0.078699 0.350741 0.000000 
0.234118 0.028011 0.000000 
0.338950 0.369158 0.000000 
0.048113 0.137223 0.000000 
0.404034 0.163514 0.000000 
0.126096 0.383168 0.000000 
0.177547 0.034003 0.000000 
0.378906 0.328666 0.000000 
0.031350 0.191566 0.000000 
0.375400 0.113734 0.000000 
0.048113 0.302777 0.000000 
0.290581 0.040898 0.000000 
0.289700 0.397593 0.000000 
0.080148 0.090236 0.000000 
0.410781 0.220000 0.000000 
0.192877 0.399951 0.000000 
0.195510 0.382479 0.000000 
0.182660 0.372254 0.000000 
0.210803 0.376495 0.000000 
0.168756 0.378921 0.000000 
0.166276 0.395194 0.000000 
0.154198 0.370572 0.000000 
0.142444 0.383204 0.000000 
0.184178 0.355210 0.000000 
0.214376 0.359762 0.000000 
0.222045 0.386925 0.000000 
0.238019 0.383033 0.000000 
0.219618 0.403205 0.000000 
0.245528 0.398569 0.000000 
0.170189 0.345086 0.000000 
0.200601 0.348703 0.000000 
0.229098 0.355641 0.000000 
0.062398 0.310992 0.000000 
0.077699 0.302157 0.000000 
0.077682 0.285735 0.000000 
0.091913 0.310383 0.000000 
0.063744 0.278938 0.000000 
0.049476 0.287146 0.000000 
0.060919 0.261936 0.000000 
0.043714 0.260622 0.000000 
0.091954 0.276296 0.000000 
0.107223 0.302743 0.000000 
0.090512 0.326189 0.000000 
0.102235 0.338824 0.000000 
0.076271 0.334442 0.000000 
0.094771 0.354381 0.000000 
0.091147 0.259046 0.000000 
0.107281 0.285078 0.000000 
0.119812 0.314456 0.000000 
0.118972 0.368309 0.000000 
0.126681 0.349439 0.000000 
0.343780 0.353403 0.000000 
0.331762 0.340451 0.000000 
0.315756 0.344122 0.000000 
0.336619 0.324763 0.000000 
0.312435 0.359639 0.000000 
0.323611 0.371723 0.000000 
0.297509 0.368256 0.000000 
0.300056 0.385323 0.000000 
0.303377 0.332309 0.000000 
0.325764 0.311537 0.000000 
0.352341 0.322612 0.000000 
0.362050 0.308371 0.000000 
0.363556 0.334660 0.000000 
0.378878 0.312187 0.000000 
0.286739 0.336934 0.000000 
0.308529 0.315411 0.000000 
0.334382 0.296658 0.000000 
0.040780 0.233067 0.000000 
0.071539 0.232794 0.000000 
0.096220 0.086597 0.000000 
0.108238 0.099549 0.000000 
0.124244 0.095878 0.000000 
0.103381 0.115237 0.000000 
0.127769 0.080777 0.000000 
0.116593 0.068693 0.000000 
0.143716 0.074239 0.000000 
0.141169 0.057173 0.000000 
0.136623 0.107691 0.000000 
0.114236 0.128463 0.000000 
0.087659 0.117388 0.000000 
0.077950 0.131629 0.000000 
0.076444 0.105340 0.000000 
0.061122 0.127813 0.000000 
0.153261 0.103066 0.000000 
0.131471 0.124589 0.000000 
0.108380 0.144709 0.000000 
0.322515 0.069638 0.000000 
0.312562 0.084237 0.000000 
0.319702 0.099025 0.000000 
0.296187 0.082993 0.000000 
0.335123 0.099051 0.000000 
0.344417 0.085466 0.000000 
0.344616 0.112889 0.000000 
0.360687 0.106608 0.000000 
0.310940 0.113722 0.000000 
0.285707 0.096519 0.000000 
0.290590 0.068144 0.000000 
0.274547 0.061847 0.000000 
0.299841 0.054529 0.000000 
0.274522 0.044592 0.000000 
0.319152 0.128914 0.000000 
0.293320 0.112460 0.000000 
0.268566 0.094425 0.000000 
0.401474 0.206400 0.000000 
0.383855 0.207721 0.000000 
0.376745 0.222524 0.000000 
0.374618 0.194142 0.000000 
0.386340 0.234596 0.000000 
0.402756 0.233393 0.000000 
0.381439 0.250646 0.000000 
0.396370 0.259295 0.000000 
0.359791 0.224836 0.000000 
0.357509 0.194383 0.000000 
0.382738 0.180509 0.000000 
0.377658 0.164040 0.000000 
0.399150 0.179253 0.000000 
0.391133 0.153262 0.000000 
0.353034 0.240728 0.000000 
0.349792 0.210273 0.000000 
0.351250 0.178368 0.000000 
0.375372 0.130213 0.000000 
0.360239 0.143869 0.000000 
0.167380 0.048181 0.000000 
0.175905 0.079262 0.000000 
0.246984 0.038307 0.000000 
0.239475 0.053843 0.000000 
0.038526 0.206400 0.000000 
0.054705 0.208843 0.000000 
0.063942 0.195264 0.000000 
0.056960 0.225545 0.000000 
0.057262 0.180509 0.000000 
0.040850 0.179253 0.000000 
0.062342 0.164040 0.000000 
0.048867 0.153262 0.000000 
0.081051 0.195505 0.000000 
0.092169 0.178372 0.000000 
0.086393 0.216332 0.000000 
0.192877 0.040049 0.000000 
0.195510 0.057521 0.000000 
0.210803 0.063505 0.000000 
0.179728 0.063435 0.000000 
0.222288 0.052555 0.000000 
0.219861 0.036274 0.000000 
0.245753 0.070665 0.000000 
0.212813 0.081958 0.000000 
0.230576 0.087831 0.000000 
0.193696 0.091801 0.000000 
0.387072 0.285493 0.000000 
0.366959 0.282176 0.000000 
0.272427 0.391295 0.000000 
0.269466 0.368134 0.000000 
0.154113 0.353780 0.000000 
0.284192 0.357365 0.000000 
0.337407 0.128055 0.000000 
0.074049 0.251483 0.000000 
0.156829 0.084714 0.000000 
0.365087 0.254466 0.000000 
0.232534 0.338677 0.000000 
0.323261 0.283396 0.000000 
0.258111 0.108218 0.000000 
0.135216 0.306566 0.000000 
0.119501 0.157971 0.000000 
0.333947 0.178794 0.000000 
0.171906 0.327864 0.000000 
0.274345 0.324854 0.000000 
0.310132 0.143685 0.000000 
0.105682 0.249651 0.000000 
0.165655 0.115146 0.000000 
0.335862 0.242886 0.000000 
0.241499 0.368483 0.000000 
0.354946 0.295644 0.000000 
0.263001 0.074602 0.000000 
0.116224 0.334731 0.000000 
0.087816 0.145723 0.000000 
0.363279 0.161658 0.000000 
0.221174 0.325796 0.000000 
0.136553 0.154955 0.000000 
0.314125 0.161041 0.000000 
0.299967 0.173831 0.000000 
0.299988 0.190157 0.000000 
0.285839 0.165650 0.000000 
0.318397 0.194283 0.000000 
0.285796 0.199679 0.000000 
0.270497 0.173180 0.000000 
0.291470 0.147644 0.000000 
0.286693 0.216919 0.000000 
0.270433 0.190882 0.000000 
0.256015 0.163783 0.000000 
0.302496 0.228894 0.000000 
0.272211 0.226394 0.000000 
0.240568 0.171587 0.000000 
0.253545 0.144110 0.000000 
0.203964 0.331700 0.000000 
0.225547 0.309160 0.000000 
0.142668 0.137818 0.000000 
0.256762 0.218570 0.000000 
0.210842 0.299250 0.000000 
0.243472 0.308629 0.000000 
0.256536 0.324885 0.000000 
0.242257 0.228036 0.000000 
0.255882 0.200299 0.000000 
0.191764 0.305172 0.000000 
0.243203 0.245330 0.000000 
0.226807 0.220208 0.000000 
0.258654 0.253158 0.000000 
0.228699 0.254797 0.000000 
0.212302 0.229674 0.000000 
0.225928 0.200844 0.000000 
0.273157 0.243687 0.000000 
0.229740 0.273251 0.000000 
0.213248 0.246969 0.000000 
0.198744 0.256435 0.000000 
0.197302 0.273569 0.000000 
0.212847 0.282557 0.000000 
0.176761 0.284237 0.000000 
0.183293 0.248607 0.000000 
0.164807 0.258058 0.000000 
0.182347 0.231313 0.000000 
0.159717 0.276553 0.000000 
0.139174 0.286184 0.000000 
0.143473 0.249510 0.000000 
0.166896 0.223485 0.000000 
0.196852 0.221846 0.000000 
0.146508 0.232232 0.000000 
0.165950 0.206190 0.000000 
0.195906 0.204551 0.000000 
0.149030 0.191929 0.000000 
0.180455 0.196723 0.000000 
0.179509 0.179429 0.000000 
0.165725 0.167655 0.000000 
0.170073 0.147105 0.000000 
0.194013 0.169962 0.000000 
0.188376 0.149959 0.000000 
0.209531 0.175721 0.000000 
0.225051 0.164736 0.000000 
0.264803 0.129462 0.000000 
0.160778 0.313959 0.000000 
0.173228 0.299146 0.000000 
0.187015 0.109334 0.000000 
0.303447 0.285045 0.000000 
0.297332 0.302182 0.000000 
0.289952 0.272606 0.000000 
0.272362 0.278104 0.000000 
0.268311 0.295360 0.000000 
0.249805 0.296960 0.000000 
0.243871 0.280250 0.000000 
0.258281 0.269624 0.000000 
0.103440 0.225626 0.000000 
0.324782 0.256830 0.000000 
0.305231 0.249337 0.000000 
0.210477 0.193016 0.000000 
0.249971 0.338296 0.000000 
0.255761 0.358640 0.000000 
0.110965 0.175695 0.000000 
0.149751 0.170688 0.000000 
0.240498 0.190401 0.000000 
0.237369 0.105561 0.000000 
0.189258 0.320986 0.000000 
0.160214 0.133002 0.000000 
0.333836 0.269525 0.000000 
0.356969 0.269320 0.000000 
0.329696 0.161878 0.000000 
0.343958 0.143664 0.000000 
0.123036 0.258232 0.000000 
0.146386 0.319961 0.000000 
0.141439 0.342560 0.000000 
0.279786 0.306998 0.000000 
0.320809 0.226469 0.000000 
0.290374 0.254655 0.000000 
0.282870 0.131610 0.000000 
0.123828 0.276410 0.000000 
0.327983 0.209748 0.000000 
0.236082 0.136546 0.000000 
0.223035 0.149368 0.000000 
0.226597 0.119242 0.000000 
0.201878 0.140350 0.000000 
0.080140 0.161662 0.000000 
0.203393 0.120981 0.000000 
0.134108 0.209050 0.000000 
0.116894 0.202121 0.000000 
0.765743 0.970247 0.000000 
0.661050 0.630842 0.000000 
0.969931 0.808227 0.000000 
0.596575 0.836893 0.000000 
0.875390 0.614779 0.000000 
0.821239 0.963394 0.000000 
0.661050 0.929158 0.000000 
0.765743 0.589753 0.000000 
0.919852 0.909764 0.000000 
0.595966 0.723514 0.000000 
0.951887 0.697223 0.000000 
0.710217 0.958888 0.000000 
0.711321 0.604487 0.000000 
0.951887 0.862777 0.000000 
0.589219 0.780000 0.000000 
0.920489 0.649105 0.000000 
0.622370 0.887470 0.000000 
0.822453 0.594003 0.000000 
0.876487 0.946582 0.000000 
0.621094 0.671334 0.000000 
0.968650 0.751566 0.000000 
0.737547 0.965997 0.000000 
0.683717 0.613834 0.000000 
0.959973 0.835241 0.000000 
0.593605 0.807902 0.000000 
0.898950 0.630842 0.000000 
0.793875 0.971469 0.000000 
0.638699 0.910741 0.000000 
0.794118 0.588011 0.000000 
0.898950 0.929158 0.000000 
0.608113 0.697223 0.000000 
0.964034 0.723514 0.000000 
0.686096 0.943168 0.000000 
0.737547 0.594003 0.000000 
0.938906 0.888666 0.000000 
0.591350 0.751566 0.000000 
0.935400 0.673734 0.000000 
0.608113 0.862777 0.000000 
0.850581 0.600898 0.000000 
0.849700 0.957593 0.000000 
0.640148 0.650236 0.000000 
0.970781 0.780000 0.000000 
0.752877 0.959951 0.000000 
0.755510 0.942479 0.000000 
0.742660 0.932254 0.000000 
[...]
POINT_DATA 616 
VECTORS X_GC float 
0.205743 0.410247 0.000000 
0.101050 0.070842 0.000000 
0.409931 0.248227 0.000000 
0.036575 0.276893 0.000000 
0.315390 0.054779 0.000000 
0.261239 0.403394 0.000000 
0.101050 0.369158 0.000000 
0.205743 0.029753 0.000000 
0.359852 0.349764 0.000000 
0.035966 0.163514 0.000000 
0.391887 0.137223 0.000000 
0.150217 0.398888 0.000000 
0.151321 0.044487 0.000000 
0.391887 0.302777 0.000000 
0.029219 0.220000 0.000000 
0.360489 0.089105 0.000000 
0.062370 0.327470 0.000000 
0.262453 0.034003 0.000000 
0.316487 0.386582 0.000000 
0.061094 0.111334 0.000000 
0.408650 0.191566 0.000000 
0.177547 0.405997 0.000000 
0.123717 0.053834 0.000000 
0.399973 0.275241 0.000000 
0.033605 0.247902 0.000000 
0.338950 0.070842 0.000000 
0.233875 0.411469 0.000000 
0.078699 0.350741 0.000000 
0.234118 0.028011 0.000000 
0.338950 0.369158 0.000000 
0.048113 0.137223 0.000000 
0.404034 0.163514 0.000000 
0.126096 0.383168 0.000000 
0.177547 0.034003 0.000000 
0.378906 0.328666 0.000000 
0.031350 0.191566 0.000000 
0.375400 0.113734 0.000000 
0.048113 0.302777 0.000000 
0.290581 0.040898 0.000000 
0.289700 0.397593 0.000000 
0.080148 0.090236 0.000000 
0.410781 0.220000 0.000000 
0.192877 0.399951 0.000000 
0.195510 0.382479 0.000000 
0.182660 0.372254 0.000000 
0.210803 0.376495 0.000000 
0.168756 0.378921 0.000000 
0.166276 0.395194 0.000000 
0.154198 0.370572 0.000000 
0.142444 0.383204 0.000000 
0.184178 0.355210 0.000000 
0.214376 0.359762 0.000000 
0.222045 0.386925 0.000000 
0.238019 0.383033 0.000000 
0.219618 0.403205 0.000000 
0.245528 0.398569 0.000000 
0.170189 0.345086 0.000000 
0.200601 0.348703 0.000000 
0.229098 0.355641 0.000000 
0.062398 0.310992 0.000000 
0.077699 0.302157 0.000000 
0.077682 0.285735 0.000000 
0.091913 0.310383 0.000000 
0.063744 0.278938 0.000000 
0.049476 0.287146 0.000000 
0.060919 0.261936 0.000000 
0.043714 0.260622 0.000000 
0.091954 0.276296 0.000000 
0.107223 0.302743 0.000000 
0.090512 0.326189 0.000000 
0.102235 0.338824 0.000000 
0.076271 0.334442 0.000000 
0.094771 0.354381 0.000000 
0.091147 0.259046 0.000000 
0.107281 0.285078 0.000000 
0.119812 0.314456 0.000000 
0.118972 0.368309 0.000000 
0.126681 0.349439 0.000000 
0.343780 0.353403 0.000000 
0.331762 0.340451 0.000000 
0.315756 0.344122 0.000000 
0.336619 0.324763 0.000000 
0.312435 0.359639 0.000000 
0.323611 0.371723 0.000000 
0.297509 0.368256 0.000000 
0.300056 0.385323 0.000000 
0.303377 0.332309 0.000000 
0.325764 0.311537 0.000000 
0.352341 0.322612 0.000000 
0.362050 0.308371 0.000000 
0.363556 0.334660 0.000000 
0.378878 0.312187 0.000000 
0.286739 0.336934 0.000000 
0.308529 0.315411 0.000000 
0.334382 0.296658 0.000000 
0.040780 0.233067 0.000000 
0.071539 0.232794 0.000000 
0.096220 0.086597 0.000000 
0.108238 0.099549 0.000000 
0.124244 0.095878 0.000000 
0.103381 0.115237 0.000000 
0.127769 0.080777 0.000000 
0.116593 0.068693 0.000000 
0.143716 0.074239 0.000000 
0.141169 0.057173 0.000000 
0.136623 0.107691 0.000000 
0.114236 0.128463 0.000000 
0.087659 0.117388 0.000000 
0.077950 0.131629 0.000000 
0.076444 0.105340 0.000000 
0.061122 0.127813 0.000000 
0.153261 0.103066 0.000000 
0.131471 0.124589 0.000000 
0.108380 0.144709 0.000000 
0.322515 0.069638 0.000000 
0.312562 0.084237 0.000000 
0.319702 0.099025 0.000000 
0.296187 0.082993 0.000000 
0.335123 0.099051 0.000000 
0.344417 0.085466 0.000000 
0.344616 0.112889 0.000000 
0.360687 0.106608 0.000000 
0.310940 0.113722 0.000000 
0.285707 0.096519 0.000000 
0.290590 0.068144 0.000000 
0.274547 0.061847 0.000000 
0.299841 0.054529 0.000000 
0.274522 0.044592 0.000000 
0.319152 0.128914 0.000000 
0.293320 0.112460 0.000000 
0.268566 0.094425 0.000000 
0.401474 0.206400 0.000000 
0.383855 0.207721 0.000000 
0.376745 0.222524 0.000000 
0.374618 0.194142 0.000000 
0.386340 0.234596 0.000000 
0.402756 0.233393 0.000000 
0.381439 0.250646 0.000000 
0.396370 0.259295 0.000000 
0.359791 0.224836 0.000000 
0.357509 0.194383 0.000000 
0.382738 0.180509 0.000000 
0.377658 0.164040 0.000000 
0.399150 0.179253 0.000000 
0.391133 0.153262 0.000000 
0.353034 0.240728 0.000000 
0.349792 0.210273 0.000000 
0.351250 0.178368 0.000000 
0.375372 0.130213 0.000000 
0.360239 0.143869 0.000000 
0.167380 0.048181 0.000000 
0.175905 0.079262 0.000000 
0.246984 0.038307 0.000000 
0.239475 0.053843 0.000000 
0.038526 0.206400 0.000000 
0.054705 0.208843 0.000000 
0.063942 0.195264 0.000000 
0.056960 0.225545 0.000000 
0.057262 0.180509 0.000000 
0.040850 0.179253 0.000000 
0.062342 0.164040 0.000000 
0.048867 0.153262 0.000000 
0.081051 0.195505 0.000000 
0.092169 0.178372 0.000000 
0.086393 0.216332 0.000000 
0.192877 0.040049 0.000000 
0.195510 0.057521 0.000000 
0.210803 0.063505 0.000000 
0.179728 0.063435 0.000000 
0.222288 0.052555 0.000000 
0.219861 0.036274 0.000000 
0.245753 0.070665 0.000000 
0.212813 0.081958 0.000000 
0.230576 0.087831 0.000000 
0.193696 0.091801 0.000000 
0.387072 0.285493 0.000000 
0.366959 0.282176 0.000000 
0.272427 0.391295 0.000000 
0.269466 0.368134 0.000000 
0.154113 0.353780 0.000000 
0.284192 0.357365 0.000000 
0.337407 0.128055 0.000000 
0.074049 0.251483 0.000000 
0.156829 0.084714 0.000000 
0.365087 0.254466 0.000000 
0.232534 0.338677 0.000000 
0.323261 0.283396 0.000000 
0.258111 0.108218 0.000000 
0.135216 0.306566 0.000000 
0.119501 0.157971 0.000000 
0.333947 0.178794 0.000000 
0.171906 0.327864 0.000000 
0.274345 0.324854 0.000000 
0.310132 0.143685 0.000000 
0.105682 0.249651 0.000000 
0.165655 0.115146 0.000000 
0.335862 0.242886 0.000000 
0.241499 0.368483 0.000000 
0.354946 0.295644 0.000000 
0.263001 0.074602 0.000000 
0.116224 0.334731 0.000000 
0.087816 0.145723 0.000000 
0.363279 0.161658 0.000000 
0.221174 0.325796 0.000000 
0.136553 0.154955 0.000000 
0.314125 0.161041 0.000000 
0.299967 0.173831 0.000000 
0.299988 0.190157 0.000000 
0.285839 0.165650 0.000000 
0.318397 0.194283 0.000000 
0.285796 0.199679 0.000000 
0.270497 0.173180 0.000000 
0.291470 0.147644 0.000000 
0.286693 0.216919 0.000000 
0.270433 0.190882 0.000000 
0.256015 0.163783 0.000000 
0.302496 0.228894 0.000000 
0.272211 0.226394 0.000000 
0.240568 0.171587 0.000000 
0.253545 0.144110 0.000000 
0.203964 0.331700 0.000000 
0.225547 0.309160 0.000000 
0.142668 0.137818 0.000000 
0.256762 0.218570 0.000000 
0.210842 0.299250 0.000000 
0.243472 0.308629 0.000000 
0.256536 0.324885 0.000000 
0.242257 0.228036 0.000000 
0.255882 0.200299 0.000000 
0.191764 0.305172 0.000000 
0.243203 0.245330 0.000000 
0.226807 0.220208 0.000000 
0.258654 0.253158 0.000000 
0.228699 0.254797 0.000000 
0.212302 0.229674 0.000000 
0.225928 0.200844 0.000000 
0.273157 0.243687 0.000000 
0.229740 0.273251 0.000000 
0.213248 0.246969 0.000000 
0.198744 0.256435 0.000000 
0.197302 0.273569 0.000000 
0.212847 0.282557 0.000000 
0.176761 0.284237 0.000000 
0.183293 0.248607 0.000000 
0.164807 0.258058 0.000000 
0.182347 0.231313 0.000000 
0.159717 0.276553 0.000000 
0.139174 0.286184 0.000000 
0.143473 0.249510 0.000000 
0.166896 0.223485 0.000000 
0.196852 0.221846 0.000000 
0.146508 0.232232 0.000000 
0.165950 0.206190 0.000000 
0.195906 0.204551 0.000000 
0.149030 0.191929 0.000000 
0.180455 0.196723 0.000000 
0.179509 0.179429 0.000000 
0.165725 0.167655 0.000000 
0.170073 0.147105 0.000000 
0.194013 0.169962 0.000000 
0.188376 0.149959 0.000000 
0.209531 0.175721 0.000000 
0.225051 0.164736 0.000000 
0.264803 0.129462 0.000000 
0.160778 0.313959 0.000000 
0.173228 0.299146 0.000000 
0.187015 0.109334 0.000000 
0.303447 0.285045 0.000000 
0.297332 0.302182 0.000000 
0.289952 0.272606 0.000000 
0.272362 0.278104 0.000000 
0.268311 0.295360 0.000000 
0.249805 0.296960 0.000000 
0.243871 0.280250 0.000000 
0.258281 0.269624 0.000000 
0.103440 0.225626 0.000000 
0.324782 0.256830 0.000000 
0.305231 0.249337 0.000000 
0.210477 0.193016 0.000000 
0.249971 0.338296 0.000000 
0.255761 0.358640 0.000000 
0.110965 0.175695 0.000000 
0.149751 0.170688 0.000000 
0.240498 0.190401 0.000000 
0.237369 0.105561 0.000000 
0.189258 0.320986 0.000000 
0.160214 0.133002 0.000000 
0.333836 0.269525 0.000000 
0.356969 0.269320 0.000000 
0.329696 0.161878 0.000000 
0.343958 0.143664 0.000000 
0.123036 0.258232 0.000000 
0.146386 0.319961 0.000000 
0.141439 0.342560 0.000000 
0.279786 0.306998 0.000000 
0.320809 0.226469 0.000000 
0.290374 0.254655 0.000000 
0.282870 0.131610 0.000000 
0.123828 0.276410 0.000000 
0.327983 0.209748 0.000000 
0.236082 0.136546 0.000000 
0.223035 0.149368 0.000000 
0.226597 0.119242 0.000000 
0.201878 0.140350 0.000000 
0.080140 0.161662 0.000000 
0.203393 0.120981 0.000000 
0.134108 0.209050 0.000000 
0.116894 0.202121 0.000000 
0.765743 0.970247 0.000000 
0.661050 0.630842 0.000000 
0.969931 0.808227 0.000000 
0.596575 0.836893 0.000000 
0.875390 0.614779 0.000000 
0.821239 0.963394 0.000000 
0.661050 0.929158 0.000000 
0.765743 0.589753 0.000000 
0.919852 0.909764 0.000000 
0.595966 0.723514 0.000000 
0.951887 0.697223 0.000000 
0.710217 0.958888 0.000000 
0.711321 0.604487 0.000000 
0.951887 0.862777 0.000000 
0.589219 0.780000 0.000000 
0.920489 0.649105 0.000000 
0.622370 0.887470 0.000000 
0.822453 0.594003 0.000000 
0.876487 0.946582 0.000000 
0.621094 0.671334 0.000000 
0.968650 0.751566 0.000000 
0.737547 0.965997 0.000000 
0.683717 0.613834 0.000000 
0.959973 0.835241 0.000000 
0.593605 0.807902 0.000000 
0.898950 0.630842 0.000000 
0.793875 0.971469 0.000000 
0.638699 0.910741 0.000000 
0.794118 0.588011 0.000000 
0.898950 0.929158 0.000000 
0.608113 0.697223 0.000000 
0.964034 0.723514 0.000000 
0.686096 0.943168 0.000000 
0.737547 0.594003 0.000000 
0.938906 0.888666 0.000000 
0.591350 0.751566 0.000000 
0.935400 0.673734 0.000000 
0.608113 0.862777 0.000000 
0.850581 0.600898 0.000000 
0.849700 0.957593 0.000000 
0.640148 0.650236 0.000000 
0.970781 0.780000 0.000000 
0.752877 0.959951 0.000000 
0.755510 0.942479 0.000000 
0.742660 0.932254 0.000000 
0.770803 0.936495 0.000000 
0.728756 0.938921 0.000000 
0.726276 0.955194 0.000000 
0.714198 0.930572 0.000000 
0.702444 0.943204 0.000000 
0.744178 0.915210 0.000000 
0.774376 0.919762 0.000000 
0.782045 0.946925 0.000000 
0.798019 0.943033 0.000000 
0.779618 0.963205 0.000000 
0.805528 0.958569 0.000000 
0.730189 0.905086 0.000000 
0.760601 0.908703 0.000000 
0.789098 0.915641 0.000000 
0.622398 0.870992 0.000000 
0.637699 0.862157 0.000000 
0.637682 0.845735 0.000000 
0.651913 0.870383 0.000000 
0.623744 0.838938 0.000000 
0.609476 0.847146 0.000000 
0.620919 0.821936 0.000000 
0.603714 0.820622 0.000000 
0.651954 0.836296 0.000000 
0.667223 0.862743 0.000000 
0.650512 0.886189 0.000000 
0.662235 0.898824 0.000000 
0.636271 0.894442 0.000000 
0.654771 0.914381 0.000000 
0.651147 0.819046 0.000000 
0.667281 0.845078 0.000000 
0.679812 0.874456 0.000000 
0.678972 0.928309 0.000000 
0.686681 0.909439 0.000000 
0.903780 0.913403 0.000000 
0.891762 0.900451 0.000000 
0.875756 0.904122 0.000000 
0.896619 0.884763 0.000000 
0.872435 0.919639 0.000000 
0.883611 0.931723 0.000000 
0.857509 0.928256 0.000000 
0.860056 0.945323 0.000000 
0.863377 0.892309 0.000000 
0.885764 0.871537 0.000000 
0.912341 0.882612 0.000000 
0.922050 0.868371 0.000000 
0.923556 0.894660 0.000000 
0.938878 0.872187 0.000000 
0.846739 0.896934 0.000000 
0.868529 0.875411 0.000000 
0.894382 0.856658 0.000000 
0.600780 0.793067 0.000000 
0.631539 0.792794 0.000000 
0.656220 0.646597 0.000000 
0.668238 0.659549 0.000000 
0.684244 0.655878 0.000000 
0.663381 0.675237 0.000000 
0.687769 0.640777 0.000000 
0.676593 0.628693 0.000000 
0.703716 0.634239 0.000000 
0.701169 0.617173 0.000000 
0.696623 0.667691 0.000000 
0.674236 0.688463 0.000000 
0.647659 0.677388 0.000000 
0.637950 0.691629 0.000000 
0.636444 0.665340 0.000000 
0.621122 0.687813 0.000000 
0.713261 0.663066 0.000000 
0.691471 0.684589 0.000000 
0.668380 0.704709 0.000000 
0.882515 0.629638 0.000000 
0.872562 0.644237 0.000000 
0.879702 0.659025 0.000000 
0.856187 0.642993 0.000000 
0.895123 0.659051 0.000000 
0.904417 0.645466 0.000000 
0.904616 0.672889 0.000000 
0.920687 0.666608 0.000000 
0.870940 0.673722 0.000000 
0.845707 0.656519 0.000000 
0.850590 0.628144 0.000000 
0.834547 0.621847 0.000000 
0.859841 0.614529 0.000000 
0.834522 0.604592 0.000000 
0.879152 0.688914 0.000000 
0.853320 0.672460 0.000000 
0.828566 0.654425 0.000000 
0.961474 0.766400 0.000000 
0.943855 0.767721 0.000000 
0.936745 0.782524 0.000000 
0.934618 0.754142 0.000000 
0.946340 0.794596 0.000000 
0.962756 0.793393 0.000000 
0.941439 0.810646 0.000000 
0.956370 0.819295 0.000000 
0.919791 0.784836 0.000000 
0.917509 0.754383 0.000000 
0.942738 0.740509 0.000000 
0.937658 0.724040 0.000000 
0.959150 0.739253 0.000000 
0.951133 0.713262 0.000000 
0.913034 0.800728 0.000000 
0.909792 0.770273 0.000000 
0.911250 0.738368 0.000000 
0.935372 0.690213 0.000000 
0.920239 0.703869 0.000000 
0.727380 0.608181 0.000000 
0.735905 0.639262 0.000000 
0.806984 0.598307 0.000000 
0.799475 0.613843 0.000000 
0.598526 0.766400 0.000000 
0.614705 0.768843 0.000000 
0.623942 0.755264 0.000000 
0.616960 0.785545 0.000000 
0.617262 0.740509 0.000000 
0.600850 0.739253 0.000000 
0.622342 0.724040 0.000000 
0.608867 0.713262 0.000000 
0.641051 0.755505 0.000000 
0.652169 0.738372 0.000000 
0.646393 0.776332 0.000000 
0.752877 0.600049 0.000000 
0.755510 0.617521 0.000000 
0.770803 0.623505 0.000000 
0.739728 0.623435 0.000000 
0.782288 0.612555 0.000000 
0.779861 0.596274 0.000000 
0.805753 0.630665 0.000000 
0.772813 0.641958 0.000000 
0.790576 0.647831 0.000000 
0.753696 0.651801 0.000000 
0.947072 0.845493 0.000000 
0.926959 0.842176 0.000000 
0.832427 0.951295 0.000000 
0.829466 0.928134 0.000000 
0.714113 0.913780 0.000000 
0.844192 0.917365 0.000000 
0.897407 0.688055 0.000000 
0.634049 0.811483 0.000000 
0.716829 0.644714 0.000000 
0.925087 0.814466 0.000000 
0.792534 0.898677 0.000000 
0.883261 0.843396 0.000000 
0.818111 0.668218 0.000000 
0.695216 0.866566 0.000000 
0.679501 0.717971 0.000000 
0.893947 0.738794 0.000000 
0.731906 0.887864 0.000000 
0.834345 0.884854 0.000000 
0.870132 0.703685 0.000000 
0.665682 0.809651 0.000000 
0.725655 0.675146 0.000000 
0.895862 0.802886 0.000000 
0.801499 0.928483 0.000000 
0.914946 0.855644 0.000000 
0.823001 0.634602 0.000000 
0.676224 0.894731 0.000000 
0.647816 0.705723 0.000000 
0.923279 0.721658 0.000000 
0.781174 0.885796 0.000000 
0.696553 0.714955 0.000000 
0.874125 0.721041 0.000000 
0.859967 0.733831 0.000000 
0.859988 0.750157 0.000000 
0.845839 0.725650 0.000000 
0.878397 0.754283 0.000000 
0.845796 0.759679 0.000000 
0.830497 0.733180 0.000000 
0.851470 0.707644 0.000000 
0.846693 0.776919 0.000000 
0.830433 0.750882 0.000000 
0.816015 0.723783 0.000000 
0.862496 0.788894 0.000000 
0.832211 0.786394 0.000000 
0.800568 0.731587 0.000000 
0.813545 0.704110 0.000000 
0.763964 0.891700 0.000000 
0.785547 0.869160 0.000000 
0.702668 0.697818 0.000000 
0.816762 0.778570 0.000000 
0.770842 0.859250 0.000000 
0.803472 0.868629 0.000000 
0.816536 0.884885 0.000000 
0.802257 0.788036 0.000000 
0.815882 0.760299 0.000000 
0.751764 0.865172 0.000000 
0.803203 0.805330 0.000000 
0.786807 0.780208 0.000000 
0.818654 0.813158 0.000000 
0.788699 0.814797 0.000000 
0.772302 0.789674 0.000000 
0.785928 0.760844 0.000000 
0.833157 0.803687 0.000000 
0.789740 0.833251 0.000000 
0.773248 0.806969 0.000000 
0.758744 0.816435 0.000000 
0.757302 0.833569 0.000000 
0.772847 0.842557 0.000000 
0.736761 0.844237 0.000000 
0.743293 0.808607 0.000000 
0.724807 0.818058 0.000000 
0.742347 0.791313 0.000000 
0.719717 0.836553 0.000000 
0.699174 0.846184 0.000000 
0.703473 0.809510 0.000000 
0.726896 0.783485 0.000000 
0.756852 0.781846 0.000000 
0.706508 0.792232 0.000000 
0.725950 0.766190 0.000000 
0.755906 0.764551 0.000000 
0.709030 0.751929 0.000000 
0.740455 0.756723 0.000000 
0.739509 0.739429 0.000000 
0.725725 0.727655 0.000000 
0.730073 0.707105 0.000000 
0.754013 0.729962 0.000000 
0.748376 0.709959 0.000000 
0.769531 0.735721 0.000000 
0.785051 0.724736 0.000000 
0.824803 0.689462 0.000000 
0.720778 0.873959 0.000000 
0.733228 0.859146 0.000000 
0.747015 0.669334 0.000000 
0.863447 0.845045 0.000000 
0.857332 0.862182 0.000000 
0.849952 0.832606 0.000000 
0.832362 0.838104 0.000000 
0.828311 0.855360 0.000000 
0.809805 0.856960 0.000000 
0.803871 0.840250 0.000000 
0.818281 0.829624 0.000000 
0.663440 0.785626 0.000000 
0.884782 0.816830 0.000000 
0.865231 0.809337 0.000000 
0.770477 0.753016 0.000000 
0.809971 0.898296 0.000000 
0.815761 0.918640 0.000000 
0.670965 0.735695 0.000000 
0.709751 0.730688 0.000000 
0.800498 0.750401 0.000000 
0.797369 0.665561 0.000000 
0.749258 0.880986 0.000000 
0.720214 0.693002 0.000000 
0.893836 0.829525 0.000000 
0.916969 0.829320 0.000000 
0.889696 0.721878 0.000000 
0.903958 0.703664 0.000000 
0.683036 0.818232 0.000000 
0.706386 0.879961 0.000000 
0.701439 0.902560 0.000000 
0.839786 0.866998 0.000000 
0.880809 0.786469 0.000000 
0.850374 0.814655 0.000000 
0.842870 0.691610 0.000000 
0.683828 0.836410 0.000000 
0.887983 0.769748 0.000000 
0.796082 0.696546 0.000000 
0.783035 0.709368 0.000000 
0.786597 0.679242 0.000000 
0.761878 0.700350 0.000000 
0.640140 0.721662 0.000000 
0.763393 0.680981 0.000000 
0.694108 0.769050 0.000000 
0.676894 0.762121 0.000000 
VECTORS X_EC float 
0.795059 -0.885141 0.000000 
-0.416836 -0.978994 0.000000 
0.035455 -0.801376 0.000000 
-0.537864 -0.268498 0.000000 
-0.095585 -0.692195 0.000000 
0.932125 0.224779 0.000000 
-0.383164 -0.978994 0.000000 
0.404941 -0.885141 0.000000 
0.004726 0.197040 0.000000 
-0.270289 -0.280687 0.000000 
0.255531 0.837746 0.000000 
-0.977762 0.004336 0.000000 
0.110264 0.026417 0.000000 
0.944469 0.837746 0.000000 
0.600000 -0.415610 0.000000 
-0.782104 0.209782 0.000000 
0.450590 0.247395 0.000000 
0.319945 0.249053 0.000000 
-0.731640 -0.670264 0.000000 
0.773314 0.221885 0.000000 
-0.831313 -0.827007 0.000000 
0.880055 0.550947 0.000000 
-0.076677 -0.525653 0.000000 
-0.504818 0.999455 0.000000 
0.041963 -0.327905 0.000000 
-0.416836 -0.221006 0.000000 
0.770625 -0.322498 0.000000 
-0.014825 0.573979 0.000000 
0.439789 -0.317643 0.000000 
-0.383164 -0.221006 0.000000 
0.255531 -0.037746 0.000000 
-0.270289 -0.919313 0.000000 
-0.663364 -0.478072 0.000000 
0.319945 0.550947 0.000000 
0.426686 0.578115 0.000000 
-0.831313 -0.372993 0.000000 
0.725324 0.508005 0.000000 
0.944469 -0.037746 0.000000 
0.182041 0.811627 0.000000 
-0.951851 0.793999 0.000000 
-0.804726 0.602960 0.000000 
0.600000 -0.784390 0.000000 
-0.999014 0.857536 0.000000 
-0.649589 0.910203 0.000000 
-0.445071 0.653202 0.000000 
-0.529909 -0.783931 0.000000 
-0.578428 0.375113 0.000000 
-0.903876 0.325524 0.000000 
-0.411441 0.083969 0.000000 
-0.664085 -0.151124 0.000000 
-0.104206 0.683569 0.000000 
-0.195238 -0.712477 0.000000 
-0.738494 -0.559096 0.000000 
-0.660665 -0.239629 0.000000 
0.935899 -0.607638 0.000000 
-0.971379 -0.089448 0.000000 
0.098274 0.403770 0.000000 
0.025947 -0.987976 0.000000 
-0.112814 -0.418034 0.000000 
0.780167 0.247957 0.000000 
0.956853 0.553986 0.000000 
-0.714701 0.553647 0.000000 
0.792336 0.838259 0.000000 
-0.578768 0.274889 0.000000 
-0.742912 -0.010475 0.000000 
-0.238727 0.218373 0.000000 
-0.212444 -0.125729 0.000000 
-0.525917 0.839079 0.000000 
0.945136 -0.855533 0.000000 
0.476214 0.810248 0.000000 
0.223528 -0.955293 0.000000 
0.311154 0.525413 0.000000 
-0.087615 0.895417 0.000000 
-0.180917 0.822932 0.000000 
-0.701564 -0.854375 0.000000 
0.710875 -0.603768 0.000000 
-0.366182 -0.620564 0.000000 
0.011228 -0.466377 0.000000 
-0.068064 -0.124398 0.000000 
0.190976 -0.364752 0.000000 
0.117560 -0.684888 0.000000 
0.504730 -0.267617 0.000000 
-0.192775 -0.751301 0.000000 
-0.434458 -0.527772 0.000000 
-0.365127 0.950176 0.000000 
-0.706451 -0.998877 0.000000 
0.353827 -0.932454 0.000000 
0.769260 -0.484723 0.000000 
0.547766 0.046812 0.000000 
0.832574 0.240991 0.000000 
0.306801 0.271116 0.000000 
0.756263 0.577553 0.000000 