# vtk DataFile Version 3.0 
vtk output 
ASCII 
DATASET UNSTRUCTURED_GRID 
POINTS 616 float 
0.200743 0.405247 0.000000 
0.096050 0.065842 0.000000 
0.404931 0.243227 0.000000 
0.031575 0.271893 0.000000 
0.310390 0.049779 0.000000 
0.256239 0.398394 0.000000 
0.096050 0.364158 0.000000 
0.200743 0.024753 0.000000 
0.354852 0.344764 0.000000 
0.030966 0.158514 0.000000 
0.386887 0.132223 0.000000 
0.145217 0.393888 0.000000 
0.146321 0.039487 0.000000 
0.386887 0.297777 0.000000 
0.024219 0.215000 0.000000 
0.355489 0.084105 0.000000 
0.057370 0.322470 0.000000 
0.257453 0.029003 0.000000 
0.311487 0.381582 0.000000 
0.056094 0.106334 0.000000 
0.403650 0.186566 0.000000 
0.172547 0.400997 0.000000 
0.118717 0.048834 0.000000 
0.394973 0.270241 0.000000 
0.028605 0.242902 0.000000 
0.333950 0.065842 0.000000 
0.228875 0.406469 0.000000 
0.073699 0.345741 0.000000 
0.229118 0.023011 0.000000 
0.333950 0.364158 0.000000 
0.043113 0.132223 0.000000 
0.399034 0.158514 0.000000 
0.121096 0.378168 0.000000 
0.172547 0.029003 0.000000 
0.373906 0.323666 0.000000 
0.026350 0.186566 0.000000 
0.370400 0.108734 0.000000 
0.043113 0.297777 0.000000 
0.285581 0.035898 0.000000 
0.284700 0.392593 0.000000 
0.075148 0.085236 0.000000 
0.405781 0.215000 0.000000 
0.187877 0.394951 0.000000 
0.190510 0.377479 0.000000 
0.177660 0.367254 0.000000 
0.205803 0.371495 0.000000 
0.163756 0.373921 0.000000 
0.161276 0.390194 0.000000 
0.149198 0.365572 0.000000 
0.137444 0.378204 0.000000 
0.179178 0.350210 0.000000 
0.209376 0.354762 0.000000 
0.217045 0.381925 0.000000 
0.233019 0.378033 0.000000 
0.214618 0.398205 0.000000 
0.240528 0.393569 0.000000 
0.165189 0.340086 0.000000 
0.195601 0.343703 0.000000 
0.224098 0.350641 0.000000 
0.057398 0.305992 0.000000 
0.072699 0.297157 0.000000 
0.072682 0.280735 0.000000 
0.086913 0.305383 0.000000 
0.058744 0.273938 0.000000 
0.044476 0.282146 0.000000 
0.055919 0.256936 0.000000 
0.038714 0.255622 0.000000 
0.086954 0.271296 0.000000 
0.102223 0.297743 0.000000 
0.085512 0.321189 0.000000 
0.097235 0.333824 0.000000 
0.071271 0.329442 0.000000 
0.089771 0.349381 0.000000 
0.086147 0.254046 0.000000 
0.102281 0.280078 0.000000 
0.114812 0.309456 0.000000 
0.113972 0.363309 0.000000 
0.121681 0.344439 0.000000 
0.338780 0.348403 0.000000 
0.326762 0.335451 0.000000 
0.310756 0.339122 0.000000 
0.331619 0.319763 0.000000 
0.307435 0.354639 0.000000 
0.318611 0.366723 0.000000 
0.292509 0.363256 0.000000 
0.295056 0.380323 0.000000 
0.298377 0.327309 0.000000 
0.320764 0.306537 0.000000 
0.347341 0.317612 0.000000 
0.357050 0.303371 0.000000 
0.358556 0.329660 0.000000 
0.373878 0.307187 0.000000 
0.281739 0.331934 0.000000 
0.303529 0.310411 0.000000 
0.329382 0.291658 0.000000 
0.035780 0.228067 0.000000 
0.066539 0.227794 0.000000 
0.091220 0.081597 0.000000 
0.103238 0.094549 0.000000 
0.119244 0.090878 0.000000 
0.098381 0.110237 0.000000 
0.122769 0.075777 0.000000 
0.111593 0.063693 0.000000 
0.138716 0.069239 0.000000 
0.136169 0.052173 0.000000 
0.131623 0.102691 0.000000 
0.109236 0.123463 0.000000 
0.082659 0.112388 0.000000 
0.072950 0.126629 0.000000 
0.071444 0.100340 0.000000 
0.056122 0.122813 0.000000 
0.148261 0.098066 0.000000 
0.126471 0.119589 0.000000 
0.103380 0.139709 0.000000 
0.317515 0.064638 0.000000 
0.307562 0.079237 0.000000 
0.314702 0.094025 0.000000 
0.291187 0.077993 0.000000 
0.330123 0.094051 0.000000 
0.339417 0.080466 0.000000 
0.339616 0.107889 0.000000 
0.355687 0.101608 0.000000 
0.305940 0.108722 0.000000 
0.280707 0.091519 0.000000 
0.285590 0.063144 0.000000 
0.269547 0.056847 0.000000 
0.294841 0.049529 0.000000 
0.269522 0.039592 0.000000 
0.314152 0.123914 0.000000 
0.288320 0.107460 0.000000 
0.263566 0.089425 0.000000 
0.396474 0.201400 0.000000 
0.378855 0.202721 0.000000 
0.371745 0.217524 0.000000 
0.369618 0.189142 0.000000 
0.381340 0.229596 0.000000 
0.397756 0.228393 0.000000 
0.376439 0.245646 0.000000 
0.391370 0.254295 0.000000 
0.354791 0.219836 0.000000 
0.352509 0.189383 0.000000 
0.377738 0.175509 0.000000 
0.372658 0.159040 0.000000 
0.394150 0.174253 0.000000 
0.386133 0.148262 0.000000 
0.348034 0.235728 0.000000 
0.344792 0.205273 0.000000 
0.346250 0.173368 0.000000 
0.370372 0.125213 0.000000 
0.355239 0.138869 0.000000 
0.162380 0.043181 0.000000 
0.170905 0.074262 0.000000 
0.241984 0.033307 0.000000 
0.234475 0.048843 0.000000 
0.033526 0.201400 0.000000 
0.049705 0.203843 0.000000 
0.058942 0.190264 0.000000 
0.051960 0.220545 0.000000 
0.052262 0.175509 0.000000 
0.035850 0.174253 0.000000 
0.057342 0.159040 0.000000 
0.043867 0.148262 0.000000 
0.076051 0.190505 0.000000 
0.087169 0.173372 0.000000 
0.081393 0.211332 0.000000 
0.187877 0.035049 0.000000 
0.190510 0.052521 0.000000 
0.205803 0.058505 0.000000 
0.174728 0.058435 0.000000 
0.217288 0.047555 0.000000 
0.214861 0.031274 0.000000 
0.240753 0.065665 0.000000 
0.207813 0.076958 0.000000 
0.225576 0.082831 0.000000 
0.188696 0.086801 0.000000 
0.382072 0.280493 0.000000 
0.361959 0.277176 0.000000 
0.267427 0.386295 0.000000 
0.264466 0.363134 0.000000 
0.149113 0.348780 0.000000 
0.279192 0.352365 0.000000 
0.332407 0.123055 0.000000 
0.069049 0.246483 0.000000 
0.151829 0.079714 0.000000 
0.360087 0.249466 0.000000 
0.227534 0.333677 0.000000 
0.318261 0.278396 0.000000 
0.253111 0.103218 0.000000 
0.130216 0.301566 0.000000 
0.114501 0.152971 0.000000 
0.328947 0.173794 0.000000 
0.166906 0.322864 0.000000 
0.269345 0.319854 0.000000 
0.305132 0.138685 0.000000 
0.100682 0.244651 0.000000 
0.160655 0.110146 0.000000 
0.330862 0.237886 0.000000 
0.236499 0.363483 0.000000 
0.349946 0.290644 0.000000 
0.258001 0.069602 0.000000 
0.111224 0.329731 0.000000 
0.082816 0.140723 0.000000 
0.358279 0.156658 0.000000 
0.216174 0.320796 0.000000 
0.131553 0.149955 0.000000 
0.309125 0.156041 0.000000 
0.294967 0.168831 0.000000 
0.294988 0.185157 0.000000 
0.280839 0.160650 0.000000 
0.313397 0.189283 0.000000 
0.280796 0.194679 0.000000 
0.265497 0.168180 0.000000 
0.286470 0.142644 0.000000 
0.281693 0.211919 0.000000 
0.265433 0.185882 0.000000 
0.251015 0.158783 0.000000 
0.297496 0.223894 0.000000 
0.267211 0.221394 0.000000 
0.235568 0.166587 0.000000 
0.248545 0.139110 0.000000 
0.198964 0.326700 0.000000 
0.220547 0.304160 0.000000 
0.137668 0.132818 0.000000 
0.251762 0.213570 0.000000 
0.205842 0.294250 0.000000 
0.238472 0.303629 0.000000 
0.251536 0.319885 0.000000 
0.237257 0.223036 0.000000 
0.250882 0.195299 0.000000 
0.186764 0.300172 0.000000 
0.238203 0.240330 0.000000 
0.221807 0.215208 0.000000 
0.253654 0.248158 0.000000 
0.223699 0.249797 0.000000 
0.207302 0.224674 0.000000 
0.220928 0.195844 0.000000 
0.268157 0.238687 0.000000 
0.224740 0.268251 0.000000 
0.208248 0.241969 0.000000 
0.193744 0.251435 0.000000 
0.192302 0.268569 0.000000 
0.207847 0.277557 0.000000 
0.171761 0.279237 0.000000 
0.178293 0.243607 0.000000 
0.159807 0.253058 0.000000 
0.177347 0.226313 0.000000 
0.154717 0.271553 0.000000 
0.134174 0.281184 0.000000 
0.138473 0.244510 0.000000 
0.161896 0.218485 0.000000 
0.191852 0.216846 0.000000 
0.141508 0.227232 0.000000 
0.160950 0.201190 0.000000 
0.190906 0.199551 0.000000 
0.144030 0.186929 0.000000 
0.175455 0.191723 0.000000 
0.174509 0.174429 0.000000 
0.160725 0.162655 0.000000 
0.165073 0.142105 0.000000 
0.189013 0.164962 0.000000 
0.183376 0.144959 0.000000 
0.204531 0.170721 0.000000 
0.220051 0.159736 0.000000 
0.259803 0.124462 0.000000 
0.155778 0.308959 0.000000 
0.168228 0.294146 0.000000 
0.182015 0.104334 0.000000 
0.298447 0.280045 0.000000 
0.292332 0.297182 0.000000 
0.284952 0.267606 0.000000 
0.267362 0.273104 0.000000 
0.263311 0.290360 0.000000 
0.244805 0.291960 0.000000 
0.238871 0.275250 0.000000 
0.253281 0.264624 0.000000 
0.098440 0.220626 0.000000 
0.319782 0.251830 0.000000 
0.300231 0.244337 0.000000 
0.205477 0.188016 0.000000 
0.244971 0.333296 0.000000 
0.250761 0.353640 0.000000 
0.105965 0.170695 0.000000 
0.144751 0.165688 0.000000 
0.235498 0.185401 0.000000 
0.232369 0.100561 0.000000 
0.184258 0.315986 0.000000 
0.155214 0.128002 0.000000 
0.328836 0.264525 0.000000 
0.351969 0.264320 0.000000 
0.324696 0.156878 0.000000 
0.338958 0.138664 0.000000 
0.118036 0.253232 0.000000 
0.141386 0.314961 0.000000 
0.136439 0.337560 0.000000 
0.274786 0.301998 0.000000 
0.315809 0.221469 0.000000 
0.285374 0.249655 0.000000 
0.277870 0.126610 0.000000 
0.118828 0.271410 0.000000 
0.322983 0.204748 0.000000 
0.231082 0.131546 0.000000 
0.218035 0.144368 0.000000 
0.221597 0.114242 0.000000 
0.196878 0.135350 0.000000 
0.075140 0.156662 0.000000 
0.198393 0.115981 0.000000 
0.129108 0.204050 0.000000 
0.111894 0.197121 0.000000 
0.770743 0.975247 0.000000 
0.666050 0.635842 0.000000 
0.974931 0.813227 0.000000 
0.601575 0.841893 0.000000 
0.880390 0.619779 0.000000 
0.826239 0.968394 0.000000 
0.666050 0.934158 0.000000 
0.770743 0.594753 0.000000 
0.924852 0.914764 0.000000 
0.600966 0.728514 0.000000 
0.956887 0.702223 0.000000 
0.715217 0.963888 0.000000 
0.716321 0.609487 0.000000 
0.956887 0.867777 0.000000 
0.594219 0.785000 0.000000 
0.925489 0.654105 0.000000 
0.627370 0.892470 0.000000 
0.827453 0.599003 0.000000 
0.881487 0.951582 0.000000 
0.626094 0.676334 0.000000 
0.973650 0.756566 0.000000 
0.742547 0.970997 0.000000 
0.688717 0.618834 0.000000 
0.964973 0.840241 0.000000 
0.598605 0.812902 0.000000 
0.903950 0.635842 0.000000 
0.798875 0.976469 0.000000 
0.643699 0.915741 0.000000 
0.799118 0.593011 0.000000 
0.903950 0.934158 0.000000 
0.613113 0.702223 0.000000 
0.969034 0.728514 0.000000 
0.691096 0.948168 0.000000 
0.742547 0.599003 0.000000 
0.943906 0.893666 0.000000 
0.596350 0.756566 0.000000 
0.940400 0.678734 0.000000 
0.613113 0.867777 0.000000 
0.855581 0.605898 0.000000 
0.854700 0.962593 0.000000 
0.645148 0.655236 0.000000 
0.975781 0.785000 0.000000 
0.757877 0.964951 0.000000 
0.760510 0.947479 0.000000 
0.747660 0.937254 0.000000 
[...]
POINT_DATA 616 
VECTORS X_GC float 
0.200743 0.405247 0.000000 
0.096050 0.065842 0.000000 
0.404931 0.243227 0.000000 
0.031575 0.271893 0.000000 
0.310390 0.049779 0.000000 
0.256239 0.398394 0.000000 
0.096050 0.364158 0.000000 
0.200743 0.024753 0.000000 
0.354852 0.344764 0.000000 
0.030966 0.158514 0.000000 
0.386887 0.132223 0.000000 
0.145217 0.393888 0.000000 
0.146321 0.039487 0.000000 
0.386887 0.297777 0.000000 
0.024219 0.215000 0.000000 
0.355489 0.084105 0.000000 
0.057370 0.322470 0.000000 
0.257453 0.029003 0.000000 
0.311487 0.381582 0.000000 
0.056094 0.106334 0.000000 
0.403650 0.186566 0.000000 
0.172547 0.400997 0.000000 
0.118717 0.048834 0.000000 
0.394973 0.270241 0.000000 
0.028605 0.242902 0.000000 
0.333950 0.065842 0.000000 
0.228875 0.406469 0.000000 
0.073699 0.345741 0.000000 
0.229118 0.023011 0.000000 
0.333950 0.364158 0.000000 
0.043113 0.132223 0.000000 
0.399034 0.158514 0.000000 
0.121096 0.378168 0.000000 
0.172547 0.029003 0.000000 
0.373906 0.323666 0.000000 
0.026350 0.186566 0.000000 
0.370400 0.108734 0.000000 
0.043113 0.297777 0.000000 
0.285581 0.035898 0.000000 
0.284700 0.392593 0.000000 
0.075148 0.085236 0.000000 
0.405781 0.215000 0.000000 
0.187877 0.394951 0.000000 
0.190510 0.377479 0.000000 
0.177660 0.367254 0.000000 
0.205803 0.371495 0.000000 
0.163756 0.373921 0.000000 
0.161276 0.390194 0.000000 
0.149198 0.365572 0.000000 
0.137444 0.378204 0.000000 
0.179178 0.350210 0.000000 
0.209376 0.354762 0.000000 
0.217045 0.381925 0.000000 
0.233019 0.378033 0.000000 
0.214618 0.398205 0.000000 
0.240528 0.393569 0.000000 
0.165189 0.340086 0.000000 
0.195601 0.343703 0.000000 
0.224098 0.350641 0.000000 
0.057398 0.305992 0.000000 
0.072699 0.297157 0.000000 
0.072682 0.280735 0.000000 
0.086913 0.305383 0.000000 
0.058744 0.273938 0.000000 
0.044476 0.282146 0.000000 
0.055919 0.256936 0.000000 
0.038714 0.255622 0.000000 
0.086954 0.271296 0.000000 
0.102223 0.297743 0.000000 
0.085512 0.321189 0.000000 
0.097235 0.333824 0.000000 
0.071271 0.329442 0.000000 
0.089771 0.349381 0.000000 
0.086147 0.254046 0.000000 
0.102281 0.280078 0.000000 
0.114812 0.309456 0.000000 
0.113972 0.363309 0.000000 
0.121681 0.344439 0.000000 
0.338780 0.348403 0.000000 
0.326762 0.335451 0.000000 
0.310756 0.339122 0.000000 
0.331619 0.319763 0.000000 
0.307435 0.354639 0.000000 
0.318611 0.366723 0.000000 
0.292509 0.363256 0.000000 
0.295056 0.380323 0.000000 
0.298377 0.327309 0.000000 
0.320764 0.306537 0.000000 
0.347341 0.317612 0.000000 
0.357050 0.303371 0.000000 
0.358556 0.329660 0.000000 
0.373878 0.307187 0.000000 
0.281739 0.331934 0.000000 
0.303529 0.310411 0.000000 
0.329382 0.291658 0.000000 
0.035780 0.228067 0.000000 
0.066539 0.227794 0.000000 
0.091220 0.081597 0.000000 
0.103238 0.094549 0.000000 
0.119244 0.090878 0.000000 
0.098381 0.110237 0.000000 
0.122769 0.075777 0.000000 
0.111593 0.063693 0.000000 
0.138716 0.069239 0.000000 
0.136169 0.052173 0.000000 
0.131623 0.102691 0.000000 
0.109236 0.123463 0.000000 
0.082659 0.112388 0.000000 
0.072950 0.126629 0.000000 
0.071444 0.100340 0.000000 
0.056122 0.122813 0.000000 
0.148261 0.098066 0.000000 
0.126471 0.119589 0.000000 
0.103380 0.139709 0.000000 
0.317515 0.064638 0.000000 
0.307562 0.079237 0.000000 
0.314702 0.094025 0.000000 
0.291187 0.077993 0.000000 
0.330123 0.094051 0.000000 
0.339417 0.080466 0.000000 
0.339616 0.107889 0.000000 
0.355687 0.101608 0.000000 
0.305940 0.108722 0.000000 
0.280707 0.091519 0.000000 
0.285590 0.063144 0.000000 
0.269547 0.056847 0.000000 
0.294841 0.049529 0.000000 
0.269522 0.039592 0.000000 
0.314152 0.123914 0.000000 
0.288320 0.107460 0.000000 
0.263566 0.089425 0.000000 
0.396474 0.201400 0.000000 
0.378855 0.202721 0.000000 
0.371745 0.217524 0.000000 
0.369618 0.189142 0.000000 
0.381340 0.229596 0.000000 
0.397756 0.228393 0.000000 
0.376439 0.245646 0.000000 
0.391370 0.254295 0.000000 
0.354791 0.219836 0.000000 
0.352509 0.189383 0.000000 
0.377738 0.175509 0.000000 
0.372658 0.159040 0.000000 
0.394150 0.174253 0.000000 
0.386133 0.148262 0.000000 
0.348034 0.235728 0.000000 
0.344792 0.205273 0.000000 
0.346250 0.173368 0.000000 
0.370372 0.125213 0.000000 
0.355239 0.138869 0.000000 
0.162380 0.043181 0.000000 
0.170905 0.074262 0.000000 
0.241984 0.033307 0.000000 
0.234475 0.048843 0.000000 
0.033526 0.201400 0.000000 
0.049705 0.203843 0.000000 
0.058942 0.190264 0.000000 
0.051960 0.220545 0.000000 
0.052262 0.175509 0.000000 
0.035850 0.174253 0.000000 
0.057342 0.159040 0.000000 
0.043867 0.148262 0.000000 
0.076051 0.190505 0.000000 
0.087169 0.173372 0.000000 
0.081393 0.211332 0.000000 
0.187877 0.035049 0.000000 
0.190510 0.052521 0.000000 
0.205803 0.058505 0.000000 
0.174728 0.058435 0.000000 
0.217288 0.047555 0.000000 
0.214861 0.031274 0.000000 
0.240753 0.065665 0.000000 
0.207813 0.076958 0.000000 
0.225576 0.082831 0.000000 
0.188696 0.086801 0.000000 
0.382072 0.280493 0.000000 
0.361959 0.277176 0.000000 
0.267427 0.386295 0.000000 
0.264466 0.363134 0.000000 
0.149113 0.348780 0.000000 
0.279192 0.352365 0.000000 
0.332407 0.123055 0.000000 
0.069049 0.246483 0.000000 
0.151829 0.079714 0.000000 
0.360087 0.249466 0.000000 
0.227534 0.333677 0.000000 
0.318261 0.278396 0.000000 
0.253111 0.103218 0.000000 
0.130216 0.301566 0.000000 
0.114501 0.152971 0.000000 
0.328947 0.173794 0.000000 
0.166906 0.322864 0.000000 
0.269345 0.319854 0.000000 
0.305132 0.138685 0.000000 
0.100682 0.244651 0.000000 
0.160655 0.110146 0.000000 
0.330862 0.237886 0.000000 
0.236499 0.363483 0.000000 
0.349946 0.290644 0.000000 
0.258001 0.069602 0.000000 
0.111224 0.329731 0.000000 
0.082816 0.140723 0.000000 
0.358279 0.156658 0.000000 
0.216174 0.320796 0.000000 
0.131553 0.149955 0.000000 
0.309125 0.156041 0.000000 
0.294967 0.168831 0.000000 
0.294988 0.185157 0.000000 
0.280839 0.160650 0.000000 
0.313397 0.189283 0.000000 
0.280796 0.194679 0.000000 
0.265497 0.168180 0.000000 
0.286470 0.142644 0.000000 
0.281693 0.211919 0.000000 
0.265433 0.185882 0.000000 
0.251015 0.158783 0.000000 
0.297496 0.223894 0.000000 
0.267211 0.221394 0.000000 
0.235568 0.166587 0.000000 
0.248545 0.139110 0.000000 
0.198964 0.326700 0.000000 
0.220547 0.304160 0.000000 
0.137668 0.132818 0.000000 
0.251762 0.213570 0.000000 
0.205842 0.294250 0.000000 
0.238472 0.303629 0.000000 
0.251536 0.319885 0.000000 
0.237257 0.223036 0.000000 
0.250882 0.195299 0.000000 
0.186764 0.300172 0.000000 
0.238203 0.240330 0.000000 
0.221807 0.215208 0.000000 
0.253654 0.248158 0.000000 
0.223699 0.249797 0.000000 
0.207302 0.224674 0.000000 
0.220928 0.195844 0.000000 
0.268157 0.238687 0.000000 
0.224740 0.268251 0.000000 
0.208248 0.241969 0.000000 
0.193744 0.251435 0.000000 
0.192302 0.268569 0.000000 
0.207847 0.277557 0.000000 
0.171761 0.279237 0.000000 
0.178293 0.243607 0.000000 
0.159807 0.253058 0.000000 
0.177347 0.226313 0.000000 
0.154717 0.271553 0.000000 
0.134174 0.281184 0.000000 
0.138473 0.244510 0.000000 
0.161896 0.218485 0.000000 
0.191852 0.216846 0.000000 
0.141508 0.227232 0.000000 
0.160950 0.201190 0.000000 
0.190906 0.199551 0.000000 
0.144030 0.186929 0.000000 
0.175455 0.191723 0.000000 
0.174509 0.174429 0.000000 
0.160725 0.162655 0.000000 
0.165073 0.142105 0.000000 
0.189013 0.164962 0.000000 
0.183376 0.144959 0.000000 
0.204531 0.170721 0.000000 
0.220051 0.159736 0.000000 
0.259803 0.124462 0.000000 
0.155778 0.308959 0.000000 
0.168228 0.294146 0.000000 
0.182015 0.104334 0.000000 
0.298447 0.280045 0.000000 
0.292332 0.297182 0.000000 
0.284952 0.267606 0.000000 
0.267362 0.273104 0.000000 
0.263311 0.290360 0.000000 
0.244805 0.291960 0.000000 
0.238871 0.275250 0.000000 
0.253281 0.264624 0.000000 
0.098440 0.220626 0.000000 
0.319782 0.251830 0.000000 
0.300231 0.244337 0.000000 
0.205477 0.188016 0.000000 
0.244971 0.333296 0.000000 
0.250761 0.353640 0.000000 
0.105965 0.170695 0.000000 
0.144751 0.165688 0.000000 
0.235498 0.185401 0.000000 
0.232369 0.100561 0.000000 
0.184258 0.315986 0.000000 
0.155214 0.128002 0.000000 
0.328836 0.264525 0.000000 
0.351969 0.264320 0.000000 
0.324696 0.156878 0.000000 
0.338958 0.138664 0.000000 
0.118036 0.253232 0.000000 
0.141386 0.314961 0.000000 
0.136439 0.337560 0.000000 
0.274786 0.301998 0.000000 
0.315809 0.221469 0.000000 
0.285374 0.249655 0.000000 
0.277870 0.126610 0.000000 
0.118828 0.271410 0.000000 
0.322983 0.204748 0.000000 
0.231082 0.131546 0.000000 
0.218035 0.144368 0.000000 
0.221597 0.114242 0.000000 
0.196878 0.135350 0.000000 
0.075140 0.156662 0.000000 
0.198393 0.115981 0.000000 
0.129108 0.204050 0.000000 
0.111894 0.197121 0.000000 
0.770743 0.975247 0.000000 
0.666050 0.635842 0.000000 
0.974931 0.813227 0.000000 
0.601575 0.841893 0.000000 
0.880390 0.619779 0.000000 
0.826239 0.968394 0.000000 
0.666050 0.934158 0.000000 
0.770743 0.594753 0.000000 
0.924852 0.914764 0.000000 
0.600966 0.728514 0.000000 
0.956887 0.702223 0.000000 
0.715217 0.963888 0.000000 
0.716321 0.609487 0.000000 
0.956887 0.867777 0.000000 
0.594219 0.785000 0.000000 
0.925489 0.654105 0.000000 
0.627370 0.892470 0.000000 
0.827453 0.599003 0.000000 
0.881487 0.951582 0.000000 
0.626094 0.676334 0.000000 
0.973650 0.756566 0.000000 
0.742547 0.970997 0.000000 
0.688717 0.618834 0.000000 
0.964973 0.840241 0.000000 
0.598605 0.812902 0.000000 
0.903950 0.635842 0.000000 
0.798875 0.976469 0.000000 
0.643699 0.915741 0.000000 
0.799118 0.593011 0.000000 
0.903950 0.934158 0.000000 
0.613113 0.702223 0.000000 
0.969034 0.728514 0.000000 
0.691096 0.948168 0.000000 
0.742547 0.599003 0.000000 
0.943906 0.893666 0.000000 
0.596350 0.756566 0.000000 
0.940400 0.678734 0.000000 
0.613113 0.867777 0.000000 
0.855581 0.605898 0.000000 
0.854700 0.962593 0.000000 
0.645148 0.655236 0.000000 
0.975781 0.785000 0.000000 
0.757877 0.964951 0.000000 
0.760510 0.947479 0.000000 
0.747660 0.937254 0.000000 
0.775803 0.941495 0.000000 
0.733756 0.943921 0.000000 
0.731276 0.960194 0.000000 
0.719198 0.935572 0.000000 
0.707444 0.948204 0.000000 
0.749178 0.920210 0.000000 
0.779376 0.924762 0.000000 
0.787045 0.951925 0.000000 
0.803019 0.948033 0.000000 
0.784618 0.968205 0.000000 
0.810528 0.963569 0.000000 
0.735189 0.910086 0.000000 
0.765601 0.913703 0.000000 
0.794098 0.920641 0.000000 
0.627398 0.875992 0.000000 
0.642699 0.867157 0.000000 
0.642682 0.850735 0.000000 
0.656913 0.875383 0.000000 
0.628744 0.843938 0.000000 
0.614476 0.852146 0.000000 
0.625919 0.826936 0.000000 
0.608714 0.825622 0.000000 
0.656954 0.841296 0.000000 
0.672223 0.867743 0.000000 
0.655512 0.891189 0.000000 
0.667235 0.903824 0.000000 
0.641271 0.899442 0.000000 
0.659771 0.919381 0.000000 
0.656147 0.824046 0.000000 
0.672281 0.850078 0.000000 
0.684812 0.879456 0.000000 
0.683972 0.933309 0.000000 
0.691681 0.914439 0.000000 
0.908780 0.918403 0.000000 
0.896762 0.905451 0.000000 
0.880756 0.909122 0.000000 
0.901619 0.889763 0.000000 
0.877435 0.924639 0.000000 
0.888611 0.936723 0.000000 
0.862509 0.933256 0.000000 
0.865056 0.950323 0.000000 
0.868377 0.897309 0.000000 
0.890764 0.876537 0.000000 
0.917341 0.887612 0.000000 
0.927050 0.873371 0.000000 
0.928556 0.899660 0.000000 
0.943878 0.877187 0.000000 
0.851739 0.901934 0.000000 
0.873529 0.880411 0.000000 
0.899382 0.861658 0.000000 
0.605780 0.798067 0.000000 
0.636539 0.797794 0.000000 
0.661220 0.651597 0.000000 
0.673238 0.664549 0.000000 
0.689244 0.660878 0.000000 
0.668381 0.680237 0.000000 
0.692769 0.645777 0.000000 
0.681593 0.633693 0.000000 
0.708716 0.639239 0.000000 
0.706169 0.622173 0.000000 
0.701623 0.672691 0.000000 
0.679236 0.693463 0.000000 
0.652659 0.682388 0.000000 
0.642950 0.696629 0.000000 
0.641444 0.670340 0.000000 
0.626122 0.692813 0.000000 
0.718261 0.668066 0.000000 
0.696471 0.689589 0.000000 
0.673380 0.709709 0.000000 
0.887515 0.634638 0.000000 
0.877562 0.649237 0.000000 
0.884702 0.664025 0.000000 
0.861187 0.647993 0.000000 
0.900123 0.664051 0.000000 
0.909417 0.650466 0.000000 
0.909616 0.677889 0.000000 
0.925687 0.671608 0.000000 
0.875940 0.678722 0.000000 
0.850707 0.661519 0.000000 
0.855590 0.633144 0.000000 
0.839547 0.626847 0.000000 
0.864841 0.619529 0.000000 
0.839522 0.609592 0.000000 
0.884152 0.693914 0.000000 
0.858320 0.677460 0.000000 
0.833566 0.659425 0.000000 
0.966474 0.771400 0.000000 
0.948855 0.772721 0.000000 
0.941745 0.787524 0.000000 
0.939618 0.759142 0.000000 
0.951340 0.799596 0.000000 
0.967756 0.798393 0.000000 
0.946439 0.815646 0.000000 
0.961370 0.824295 0.000000 
0.924791 0.789836 0.000000 
0.922509 0.759383 0.000000 
0.947738 0.745509 0.000000 
0.942658 0.729040 0.000000 
0.964150 0.744253 0.000000 
0.956133 0.718262 0.000000 
0.918034 0.805728 0.000000 
0.914792 0.775273 0.000000 
0.916250 0.743368 0.000000 
0.940372 0.695213 0.000000 
0.925239 0.708869 0.000000 
0.732380 0.613181 0.000000 
0.740905 0.644262 0.000000 
0.811984 0.603307 0.000000 
0.804475 0.618843 0.000000 
0.603526 0.771400 0.000000 
0.619705 0.773843 0.000000 
0.628942 0.760264 0.000000 
0.621960 0.790545 0.000000 
0.622262 0.745509 0.000000 
0.605850 0.744253 0.000000 
0.627342 0.729040 0.000000 
0.613867 0.718262 0.000000 
0.646051 0.760505 0.000000 
0.657169 0.743372 0.000000 
0.651393 0.781332 0.000000 
0.757877 0.605049 0.000000 
0.760510 0.622521 0.000000 
0.775803 0.628505 0.000000 
0.744728 0.628435 0.000000 
0.787288 0.617555 0.000000 
0.784861 0.601274 0.000000 
0.810753 0.635665 0.000000 
0.777813 0.646958 0.000000 
0.795576 0.652831 0.000000 
0.758696 0.656801 0.000000 
0.952072 0.850493 0.000000 
0.931959 0.847176 0.000000 
0.837427 0.956295 0.000000 
0.834466 0.933134 0.000000 
0.719113 0.918780 0.000000 
0.849192 0.922365 0.000000 
0.902407 0.693055 0.000000 
0.639049 0.816483 0.000000 
0.721829 0.649714 0.000000 
0.930087 0.819466 0.000000 
0.797534 0.903677 0.000000 
0.888261 0.848396 0.000000 
0.823111 0.673218 0.000000 
0.700216 0.871566 0.000000 
0.684501 0.722971 0.000000 
0.898947 0.743794 0.000000 
0.736906 0.892864 0.000000 
0.839345 0.889854 0.000000 
0.875132 0.708685 0.000000 
0.670682 0.814651 0.000000 
0.730655 0.680146 0.000000 
0.900862 0.807886 0.000000 
0.806499 0.933483 0.000000 
0.919946 0.860644 0.000000 
0.828001 0.639602 0.000000 
0.681224 0.899731 0.000000 
0.652816 0.710723 0.000000 
0.928279 0.726658 0.000000 
0.786174 0.890796 0.000000 
0.701553 0.719955 0.000000 
0.879125 0.726041 0.000000 
0.864967 0.738831 0.000000 
0.864988 0.755157 0.000000 
0.850839 0.730650 0.000000 
0.883397 0.759283 0.000000 
0.850796 0.764679 0.000000 
0.835497 0.738180 0.000000 
0.856470 0.712644 0.000000 
0.851693 0.781919 0.000000 
0.835433 0.755882 0.000000 
0.821015 0.728783 0.000000 
0.867496 0.793894 0.000000 
0.837211 0.791394 0.000000 
0.805568 0.736587 0.000000 
0.818545 0.709110 0.000000 
0.768964 0.896700 0.000000 
0.790547 0.874160 0.000000 
0.707668 0.702818 0.000000 
0.821762 0.783570 0.000000 
0.775842 0.864250 0.000000 
0.808472 0.873629 0.000000 
0.821536 0.889885 0.000000 
0.807257 0.793036 0.000000 
0.820882 0.765299 0.000000 
0.756764 0.870172 0.000000 
0.808203 0.810330 0.000000 
0.791807 0.785208 0.000000 
0.823654 0.818158 0.000000 
0.793699 0.819797 0.000000 
0.777302 0.794674 0.000000 
0.790928 0.765844 0.000000 
0.838157 0.808687 0.000000 
0.794740 0.838251 0.000000 
0.778248 0.811969 0.000000 
0.763744 0.821435 0.000000 
0.762302 0.838569 0.000000 
0.777847 0.847557 0.000000 
0.741761 0.849237 0.000000 
0.748293 0.813607 0.000000 
0.729807 0.823058 0.000000 
0.747347 0.796313 0.000000 
0.724717 0.841553 0.000000 
0.704174 0.851184 0.000000 
0.708473 0.814510 0.000000 
0.731896 0.788485 0.000000 
0.761852 0.786846 0.000000 
0.711508 0.797232 0.000000 
0.730950 0.771190 0.000000 
0.760906 0.769551 0.000000 
0.714030 0.756929 0.000000 
0.745455 0.761723 0.000000 
0.744509 0.744429 0.000000 
0.730725 0.732655 0.000000 
0.735073 0.712105 0.000000 
0.759013 0.734962 0.000000 
0.753376 0.714959 0.000000 
0.774531 0.740721 0.000000 
0.790051 0.729736 0.000000 
0.829803 0.694462 0.000000 
0.725778 0.878959 0.000000 
0.738228 0.864146 0.000000 
0.752015 0.674334 0.000000 
0.868447 0.850045 0.000000 
0.862332 0.867182 0.000000 
0.854952 0.837606 0.000000 
0.837362 0.843104 0.000000 
0.833311 0.860360 0.000000 
0.814805 0.861960 0.000000 
0.808871 0.845250 0.000000 
0.823281 0.834624 0.000000 
0.668440 0.790626 0.000000 
0.889782 0.821830 0.000000 
0.870231 0.814337 0.000000 
0.775477 0.758016 0.000000 
0.814971 0.903296 0.000000 
0.820761 0.923640 0.000000 
0.675965 0.740695 0.000000 
0.714751 0.735688 0.000000 
0.805498 0.755401 0.000000 
0.802369 0.670561 0.000000 
0.754258 0.885986 0.000000 
0.725214 0.698002 0.000000 
0.898836 0.834525 0.000000 
0.921969 0.834320 0.000000 
0.894696 0.726878 0.000000 
0.908958 0.708664 0.000000 
0.688036 0.823232 0.000000 
0.711386 0.884961 0.000000 
0.706439 0.907560 0.000000 
0.844786 0.871998 0.000000 
0.885809 0.791469 0.000000 
0.855374 0.819655 0.000000 
0.847870 0.696610 0.000000 
0.688828 0.841410 0.000000 
0.892983 0.774748 0.000000 
0.801082 0.701546 0.000000 
0.788035 0.714368 0.000000 
0.791597 0.684242 0.000000 
0.766878 0.705350 0.000000 
0.645140 0.726662 0.000000 
0.768393 0.685981 0.000000 
0.699108 0.774050 0.000000 
0.681894 0.767121 0.000000 
VECTORS X_EC float 
0.895059 -0.985141 0.000000 
-0.316836 0.921006 0.000000 
0.135455 -0.901376 0.000000 
-0.437864 -0.368498 0.000000 
0.004415 -0.792195 0.000000 
-0.967875 0.124779 0.000000 
-0.283164 0.921006 0.000000 
0.504941 -0.985141 0.000000 
0.104726 0.097040 0.000000 
-0.170289 -0.380687 0.000000 
0.355531 0.737746 0.000000 
-0.877762 -0.095664 0.000000 
0.210264 -0.073583 0.000000 
-0.955531 0.737746 0.000000 
0.700000 -0.515610 0.000000 
-0.682104 0.109782 0.000000 
0.550590 0.147395 0.000000 
0.419945 0.149053 0.000000 
-0.631640 -0.770264 0.000000 
0.873314 0.121885 0.000000 
-0.731313 -0.927007 0.000000 
0.980055 0.450947 0.000000 
0.023323 -0.625653 0.000000 
-0.404818 0.899455 0.000000 
0.141963 -0.427905 0.000000 
-0.316836 -0.321006 0.000000 
0.870625 -0.422498 0.000000 
0.085175 0.473979 0.000000 
0.539789 -0.417643 0.000000 
-0.283164 -0.321006 0.000000 
0.355531 -0.137746 0.000000 
-0.170289 0.980687 0.000000 
-0.563364 -0.578072 0.000000 
0.419945 0.450947 0.000000 
0.526686 0.478115 0.000000 
-0.731313 -0.472993 0.000000 
0.825324 0.408005 0.000000 
-0.955531 -0.137746 0.000000 
0.282041 0.711627 0.000000 
-0.851851 0.693999 0.000000 
-0.704726 0.502960 0.000000 
0.700000 -0.884390 0.000000 
-0.899014 0.757536 0.000000 
-0.549589 0.810203 0.000000 
-0.345071 0.553202 0.000000 
-0.429909 -0.883931 0.000000 
-0.478428 0.275113 0.000000 
-0.803876 0.225524 0.000000 
-0.311441 -0.016031 0.000000 
-0.564085 -0.251124 0.000000 
-0.004206 0.583569 0.000000 
-0.095238 -0.812477 0.000000 
-0.638494 -0.659096 0.000000 
-0.560665 -0.339629 0.000000 
-0.964101 -0.707638 0.000000 
-0.871379 -0.189448 0.000000 
0.198274 0.303770 0.000000 
0.125947 0.912024 0.000000 
-0.012814 -0.518034 0.000000 
0.880167 0.147957 0.000000 
-0.943147 0.453986 0.000000 
-0.614701 0.453647 0.000000 
0.892336 0.738259 0.000000 
-0.478768 0.174889 0.000000 
-0.642912 -0.110475 0.000000 
-0.138727 0.118373 0.000000 
-0.112444 -0.225729 0.000000 
-0.425917 0.739079 0.000000 
-0.954864 -0.955533 0.000000 
0.576214 0.710248 0.000000 
0.323528 0.944707 0.000000 
0.411154 0.425413 0.000000 
0.012385 0.795417 0.000000 
-0.080917 0.722932 0.000000 
-0.601564 -0.954375 0.000000 
0.810875 -0.703768 0.000000 
-0.266182 -0.720564 0.000000 
0.111228 -0.566377 0.000000 
0.031936 -0.224398 0.000000 
0.290976 -0.464752 0.000000 
0.217560 -0.784888 0.000000 
0.604730 -0.367617 0.000000 
-0.092775 -0.851301 0.000000 
-0.334458 -0.627772 0.000000 
-0.265127 0.850176 0.000000 
-0.606451 0.901123 0.000000 
0.453827 0.967546 0.000000 
0.869260 -0.584723 0.000000 
0.647766 -0.053188 0.000000 
0.932574 0.140991 0.000000 
0.406801 0.171116 0.000000 
0.856263 0.477553 0.000000 