# vtk DataFile Version 3.0 
vtk output 
ASCII 
DATASET UNSTRUCTURED_GRID 
POINTS 616 float 
0.265747 0.470242 0.000000 
0.161043 0.130836 0.000000 
0.469933 0.308227 0.000000 
0.096576 0.336896 0.000000 
0.375387 0.114773 0.000000 
0.321255 0.463398 0.000000 
0.161052 0.429161 0.000000 
0.265739 0.089748 0.000000 
0.419741 0.409650 0.000000 
0.095961 0.223515 0.000000 
0.451888 0.197214 0.000000 
0.210217 0.458890 0.000000 
0.211314 0.104480 0.000000 
0.451891 0.362790 0.000000 
0.089219 0.280004 0.000000 
0.420488 0.149099 0.000000 
0.122371 0.387471 0.000000 
0.322450 0.093998 0.000000 
0.376507 0.446594 0.000000 
0.121087 0.171332 0.000000 
0.468650 0.251558 0.000000 
0.237549 0.465996 0.000000 
0.183710 0.113828 0.000000 
0.459979 0.335252 0.000000 
0.093606 0.307906 0.000000 
0.398947 0.130836 0.000000 
0.293881 0.471460 0.000000 
0.138700 0.410743 0.000000 
0.294115 0.088006 0.000000 
0.398937 0.429136 0.000000 
0.108107 0.197222 0.000000 
0.464034 0.223505 0.000000 
0.186097 0.443171 0.000000 
0.237542 0.093997 0.000000 
0.438893 0.388662 0.000000 
0.091348 0.251568 0.000000 
0.435400 0.173726 0.000000 
0.108114 0.362778 0.000000 
0.350578 0.100893 0.000000 
0.349726 0.457610 0.000000 
0.140140 0.150232 0.000000 
0.470780 0.279994 0.000000 
0.252880 0.459948 0.000000 
0.255513 0.442479 0.000000 
0.242663 0.432255 0.000000 
0.270807 0.436495 0.000000 
0.228758 0.438923 0.000000 
0.226277 0.455194 0.000000 
0.214200 0.430575 0.000000 
0.202444 0.443207 0.000000 
0.244182 0.415213 0.000000 
0.274380 0.419764 0.000000 
0.282050 0.446922 0.000000 
0.298024 0.443030 0.000000 
0.279623 0.463199 0.000000 
0.305535 0.458563 0.000000 
0.230192 0.405090 0.000000 
0.260605 0.408707 0.000000 
0.289102 0.415644 0.000000 
0.122399 0.370993 0.000000 
0.137700 0.362159 0.000000 
0.137683 0.345737 0.000000 
0.151914 0.370384 0.000000 
0.123745 0.338940 0.000000 
0.109477 0.347148 0.000000 
0.120919 0.321939 0.000000 
0.103715 0.320626 0.000000 
0.151954 0.336297 0.000000 
0.167224 0.362744 0.000000 
0.150514 0.386191 0.000000 
0.162237 0.398825 0.000000 
0.136272 0.394443 0.000000 
0.154773 0.414383 0.000000 
0.151146 0.319047 0.000000 
0.167281 0.345079 0.000000 
0.179813 0.374458 0.000000 
0.178973 0.428312 0.000000 
0.186684 0.409441 0.000000 
0.403726 0.413338 0.000000 
0.391703 0.400380 0.000000 
0.375709 0.404066 0.000000 
0.396567 0.384698 0.000000 
0.372413 0.419608 0.000000 
0.383606 0.431709 0.000000 
0.357503 0.428243 0.000000 
0.360071 0.445330 0.000000 
0.363341 0.392265 0.000000 
0.385725 0.371487 0.000000 
0.412297 0.382560 0.000000 
0.422024 0.368342 0.000000 
0.423521 0.394625 0.000000 
0.438868 0.372183 0.000000 
0.346712 0.396903 0.000000 
0.368496 0.375370 0.000000 
0.394349 0.356612 0.000000 
0.100781 0.293071 0.000000 
0.131538 0.292796 0.000000 
0.156212 0.146592 0.000000 
0.168230 0.159544 0.000000 
0.184237 0.155872 0.000000 
0.163374 0.175232 0.000000 
0.187762 0.140771 0.000000 
0.176585 0.128687 0.000000 
0.203709 0.134232 0.000000 
0.201162 0.117166 0.000000 
0.196615 0.167685 0.000000 
0.174229 0.188458 0.000000 
0.147652 0.177384 0.000000 
0.137944 0.191626 0.000000 
0.136437 0.165336 0.000000 
0.121116 0.187811 0.000000 
0.213253 0.163059 0.000000 
0.191464 0.184582 0.000000 
0.168373 0.204704 0.000000 
0.382512 0.129632 0.000000 
0.372559 0.144231 0.000000 
0.379700 0.159020 0.000000 
0.356184 0.142987 0.000000 
0.395121 0.159045 0.000000 
0.404415 0.145460 0.000000 
0.404615 0.172884 0.000000 
0.420687 0.166602 0.000000 
0.370938 0.173716 0.000000 
0.345704 0.156513 0.000000 
0.350587 0.128138 0.000000 
0.334543 0.121842 0.000000 
0.359837 0.114523 0.000000 
0.334519 0.104587 0.000000 
0.379150 0.188908 0.000000 
0.353317 0.172453 0.000000 
0.328562 0.154418 0.000000 
0.461475 0.266393 0.000000 
0.443856 0.267713 0.000000 
0.436747 0.282516 0.000000 
0.434620 0.254134 0.000000 
0.446341 0.294589 0.000000 
0.462756 0.293387 0.000000 
0.441440 0.310640 0.000000 
0.456373 0.319297 0.000000 
0.419794 0.284827 0.000000 
0.417511 0.254375 0.000000 
0.442739 0.240501 0.000000 
0.437659 0.224032 0.000000 
0.459151 0.239244 0.000000 
0.451134 0.213253 0.000000 
0.413037 0.300718 0.000000 
0.409795 0.270264 0.000000 
0.411252 0.238361 0.000000 
0.435372 0.190205 0.000000 
0.420240 0.203863 0.000000 
0.227374 0.108175 0.000000 
0.235899 0.139255 0.000000 
0.306981 0.098302 0.000000 
0.299472 0.113838 0.000000 
0.098524 0.266403 0.000000 
0.114704 0.268844 0.000000 
0.123940 0.255265 0.000000 
0.116959 0.285548 0.000000 
0.117258 0.240510 0.000000 
0.100847 0.239254 0.000000 
0.122337 0.224039 0.000000 
0.108862 0.213262 0.000000 
0.141048 0.255504 0.000000 
0.152164 0.238370 0.000000 
0.146391 0.276332 0.000000 
0.252872 0.100044 0.000000 
0.255505 0.117515 0.000000 
0.270799 0.123499 0.000000 
0.239722 0.123429 0.000000 
0.282284 0.112549 0.000000 
0.279857 0.096269 0.000000 
0.305750 0.130659 0.000000 
0.272808 0.141952 0.000000 
0.290571 0.147824 0.000000 
0.253691 0.151794 0.000000 
0.447071 0.345496 0.000000 
0.426947 0.342159 0.000000 
0.332441 0.451300 0.000000 
0.329465 0.428127 0.000000 
0.214116 0.413783 0.000000 
0.344178 0.417346 0.000000 
0.397407 0.188050 0.000000 
0.134049 0.311485 0.000000 
0.216822 0.144708 0.000000 
0.425085 0.314454 0.000000 
0.292536 0.398683 0.000000 
0.383239 0.343362 0.000000 
0.318107 0.168210 0.000000 
0.195216 0.366567 0.000000 
0.179494 0.217966 0.000000 
0.393948 0.238786 0.000000 
0.231907 0.387866 0.000000 
0.334328 0.384833 0.000000 
0.370131 0.203679 0.000000 
0.165680 0.309651 0.000000 
0.225648 0.175139 0.000000 
0.395864 0.302874 0.000000 
0.301504 0.428483 0.000000 
0.414921 0.355610 0.000000 
0.322998 0.134596 0.000000 
0.176226 0.394732 0.000000 
0.147809 0.205719 0.000000 
0.423280 0.221651 0.000000 
0.281174 0.385798 0.000000 
0.196546 0.214949 0.000000 
0.374124 0.221034 0.000000 
0.359964 0.233822 0.000000 
0.359984 0.250146 0.000000 
0.345834 0.225641 0.000000 
0.378396 0.254273 0.000000 
0.345790 0.259666 0.000000 
0.330490 0.233169 0.000000 
0.351468 0.207637 0.000000 
0.346686 0.276905 0.000000 
0.330425 0.250869 0.000000 
0.316007 0.223772 0.000000 
0.362491 0.288880 0.000000 
0.332200 0.286378 0.000000 
0.300558 0.231575 0.000000 
0.313540 0.204101 0.000000 
0.263965 0.391703 0.000000 
0.285544 0.369158 0.000000 
0.202660 0.197812 0.000000 
0.316749 0.278554 0.000000 
0.270838 0.359247 0.000000 
0.303467 0.368626 0.000000 
0.316528 0.384877 0.000000 
0.302240 0.288017 0.000000 
0.315870 0.260284 0.000000 
0.251762 0.365171 0.000000 
0.303185 0.305311 0.000000 
0.286793 0.280192 0.000000 
0.318639 0.313140 0.000000 
0.288684 0.314782 0.000000 
0.272289 0.289660 0.000000 
0.285916 0.260831 0.000000 
0.333145 0.303670 0.000000 
0.289729 0.333241 0.000000 
0.273234 0.306955 0.000000 
0.258733 0.316425 0.000000 
0.257295 0.333562 0.000000 
0.272840 0.342550 0.000000 
0.236757 0.344233 0.000000 
0.243284 0.308598 0.000000 
0.224801 0.318053 0.000000 
0.242337 0.291303 0.000000 
0.219713 0.336551 0.000000 
0.199173 0.346184 0.000000 
0.203469 0.309508 0.000000 
0.226889 0.283478 0.000000 
0.256840 0.281835 0.000000 
0.206503 0.292229 0.000000 
0.225943 0.266183 0.000000 
0.255896 0.264541 0.000000 
0.209024 0.251923 0.000000 
0.240446 0.256715 0.000000 
0.239501 0.239421 0.000000 
0.225718 0.227648 0.000000 
0.230066 0.207098 0.000000 
0.254005 0.229953 0.000000 
0.248369 0.209950 0.000000 
0.269522 0.235711 0.000000 
0.285043 0.224725 0.000000 
0.324798 0.189455 0.000000 
0.220778 0.373960 0.000000 
0.233226 0.359145 0.000000 
0.247009 0.169327 0.000000 
0.363427 0.345016 0.000000 
0.357308 0.362151 0.000000 
0.349937 0.332584 0.000000 
0.332348 0.338085 0.000000 
0.328297 0.355343 0.000000 
0.309797 0.356951 0.000000 
0.303860 0.340239 0.000000 
0.318268 0.329608 0.000000 
0.163437 0.285625 0.000000 
0.384774 0.316809 0.000000 
0.365224 0.309320 0.000000 
0.270467 0.253005 0.000000 
0.309969 0.398296 0.000000 
0.315760 0.418636 0.000000 
0.170960 0.235691 0.000000 
0.209744 0.230682 0.000000 
0.300486 0.250386 0.000000 
0.297364 0.165553 0.000000 
0.249259 0.380987 0.000000 
0.220206 0.192995 0.000000 
0.393820 0.329496 0.000000 
0.416958 0.329298 0.000000 
0.389696 0.221872 0.000000 
0.403959 0.203659 0.000000 
0.183034 0.318231 0.000000 
0.206387 0.379963 0.000000 
0.201442 0.402563 0.000000 
0.339768 0.366975 0.000000 
0.380808 0.286457 0.000000 
0.350363 0.314637 0.000000 
0.342867 0.191603 0.000000 
0.183827 0.336409 0.000000 
0.387983 0.269738 0.000000 
0.296077 0.196537 0.000000 
0.283028 0.209359 0.000000 
0.286592 0.179234 0.000000 
0.261871 0.200342 0.000000 
0.140134 0.221660 0.000000 
0.263387 0.180973 0.000000 
0.194103 0.269047 0.000000 
0.176890 0.262118 0.000000 
0.705746 0.910252 0.000000 
0.601064 0.570865 0.000000 
0.909933 0.748225 0.000000 
0.536575 0.776903 0.000000 
0.815390 0.554776 0.000000 
0.761244 0.903399 0.000000 
0.601054 0.869165 0.000000 
0.705737 0.529760 0.000000 
0.859859 0.849768 0.000000 
0.535958 0.663499 0.000000 
0.891887 0.637222 0.000000 
0.650221 0.898894 0.000000 
0.651298 0.544472 0.000000 
0.891893 0.802777 0.000000 
0.529219 0.720006 0.000000 
0.860488 0.589104 0.000000 
0.562370 0.827479 0.000000 
0.762451 0.534003 0.000000 
0.816494 0.886588 0.000000 
0.561109 0.611338 0.000000 
0.908648 0.691561 0.000000 
0.677551 0.906002 0.000000 
0.623699 0.553823 0.000000 
0.899977 0.775240 0.000000 
0.533604 0.747910 0.000000 
0.838949 0.570839 0.000000 
0.733879 0.911474 0.000000 
0.578701 0.850748 0.000000 
0.734114 0.528015 0.000000 
0.838957 0.869163 0.000000 
0.548110 0.637210 0.000000 
0.904033 0.663512 0.000000 
0.626100 0.883174 0.000000 
0.677529 0.533996 0.000000 
0.878913 0.828668 0.000000 
0.531348 0.691566 0.000000 
0.875400 0.613733 0.000000 
0.548112 0.802787 0.000000 
0.790582 0.540896 0.000000 
0.789707 0.897599 0.000000 
0.580262 0.590351 0.000000 
0.910781 0.719996 0.000000 
0.692880 0.899955 0.000000 
0.695513 0.882485 0.000000 
0.682664 0.872259 0.000000 
[...]
POINT_DATA 616 
VECTORS X_GC float 
0.265747 0.470242 0.000000 
0.161043 0.130836 0.000000 
0.469933 0.308227 0.000000 
0.096576 0.336896 0.000000 
0.375387 0.114773 0.000000 
0.321255 0.463398 0.000000 
0.161052 0.429161 0.000000 
0.265739 0.089748 0.000000 
0.419741 0.409650 0.000000 
0.095961 0.223515 0.000000 
0.451888 0.197214 0.000000 
0.210217 0.458890 0.000000 
0.211314 0.104480 0.000000 
0.451891 0.362790 0.000000 
0.089219 0.280004 0.000000 
0.420488 0.149099 0.000000 
0.122371 0.387471 0.000000 
0.322450 0.093998 0.000000 
0.376507 0.446594 0.000000 
0.121087 0.171332 0.000000 
0.468650 0.251558 0.000000 
0.237549 0.465996 0.000000 
0.183710 0.113828 0.000000 
0.459979 0.335252 0.000000 
0.093606 0.307906 0.000000 
0.398947 0.130836 0.000000 
0.293881 0.471460 0.000000 
0.138700 0.410743 0.000000 
0.294115 0.088006 0.000000 
0.398937 0.429136 0.000000 
0.108107 0.197222 0.000000 
0.464034 0.223505 0.000000 
0.186097 0.443171 0.000000 
0.237542 0.093997 0.000000 
0.438893 0.388662 0.000000 
0.091348 0.251568 0.000000 
0.435400 0.173726 0.000000 
0.108114 0.362778 0.000000 
0.350578 0.100893 0.000000 
0.349726 0.457610 0.000000 
0.140140 0.150232 0.000000 
0.470780 0.279994 0.000000 
0.252880 0.459948 0.000000 
0.255513 0.442479 0.000000 
0.242663 0.432255 0.000000 
0.270807 0.436495 0.000000 
0.228758 0.438923 0.000000 
0.226277 0.455194 0.000000 
0.214200 0.430575 0.000000 
0.202444 0.443207 0.000000 
0.244182 0.415213 0.000000 
0.274380 0.419764 0.000000 
0.282050 0.446922 0.000000 
0.298024 0.443030 0.000000 
0.279623 0.463199 0.000000 
0.305535 0.458563 0.000000 
0.230192 0.405090 0.000000 
0.260605 0.408707 0.000000 
0.289102 0.415644 0.000000 
0.122399 0.370993 0.000000 
0.137700 0.362159 0.000000 
0.137683 0.345737 0.000000 
0.151914 0.370384 0.000000 
0.123745 0.338940 0.000000 
0.109477 0.347148 0.000000 
0.120919 0.321939 0.000000 
0.103715 0.320626 0.000000 
0.151954 0.336297 0.000000 
0.167224 0.362744 0.000000 
0.150514 0.386191 0.000000 
0.162237 0.398825 0.000000 
0.136272 0.394443 0.000000 
0.154773 0.414383 0.000000 
0.151146 0.319047 0.000000 
0.167281 0.345079 0.000000 
0.179813 0.374458 0.000000 
0.178973 0.428312 0.000000 
0.186684 0.409441 0.000000 
0.403726 0.413338 0.000000 
0.391703 0.400380 0.000000 
0.375709 0.404066 0.000000 
0.396567 0.384698 0.000000 
0.372413 0.419608 0.000000 
0.383606 0.431709 0.000000 
0.357503 0.428243 0.000000 
0.360071 0.445330 0.000000 
0.363341 0.392265 0.000000 
0.385725 0.371487 0.000000 
0.412297 0.382560 0.000000 
0.422024 0.368342 0.000000 
0.423521 0.394625 0.000000 
0.438868 0.372183 0.000000 
0.346712 0.396903 0.000000 
0.368496 0.375370 0.000000 
0.394349 0.356612 0.000000 
0.100781 0.293071 0.000000 
0.131538 0.292796 0.000000 
0.156212 0.146592 0.000000 
0.168230 0.159544 0.000000 
0.184237 0.155872 0.000000 
0.163374 0.175232 0.000000 
0.187762 0.140771 0.000000 
0.176585 0.128687 0.000000 
0.203709 0.134232 0.000000 
0.201162 0.117166 0.000000 
0.196615 0.167685 0.000000 
0.174229 0.188458 0.000000 
0.147652 0.177384 0.000000 
0.137944 0.191626 0.000000 
0.136437 0.165336 0.000000 
0.121116 0.187811 0.000000 
0.213253 0.163059 0.000000 
0.191464 0.184582 0.000000 
0.168373 0.204704 0.000000 
0.382512 0.129632 0.000000 
0.372559 0.144231 0.000000 
0.379700 0.159020 0.000000 
0.356184 0.142987 0.000000 
0.395121 0.159045 0.000000 
0.404415 0.145460 0.000000 
0.404615 0.172884 0.000000 
0.420687 0.166602 0.000000 
0.370938 0.173716 0.000000 
0.345704 0.156513 0.000000 
0.350587 0.128138 0.000000 
0.334543 0.121842 0.000000 
0.359837 0.114523 0.000000 
0.334519 0.104587 0.000000 
0.379150 0.188908 0.000000 
0.353317 0.172453 0.000000 
0.328562 0.154418 0.000000 
0.461475 0.266393 0.000000 
0.443856 0.267713 0.000000 
0.436747 0.282516 0.000000 
0.434620 0.254134 0.000000 
0.446341 0.294589 0.000000 
0.462756 0.293387 0.000000 
0.441440 0.310640 0.000000 
0.456373 0.319297 0.000000 
0.419794 0.284827 0.000000 
0.417511 0.254375 0.000000 
0.442739 0.240501 0.000000 
0.437659 0.224032 0.000000 
0.459151 0.239244 0.000000 
0.451134 0.213253 0.000000 
0.413037 0.300718 0.000000 
0.409795 0.270264 0.000000 
0.411252 0.238361 0.000000 
0.435372 0.190205 0.000000 
0.420240 0.203863 0.000000 
0.227374 0.108175 0.000000 
0.235899 0.139255 0.000000 
0.306981 0.098302 0.000000 
0.299472 0.113838 0.000000 
0.098524 0.266403 0.000000 
0.114704 0.268844 0.000000 
0.123940 0.255265 0.000000 
0.116959 0.285548 0.000000 
0.117258 0.240510 0.000000 
0.100847 0.239254 0.000000 
0.122337 0.224039 0.000000 
0.108862 0.213262 0.000000 
0.141048 0.255504 0.000000 
0.152164 0.238370 0.000000 
0.146391 0.276332 0.000000 
0.252872 0.100044 0.000000 
0.255505 0.117515 0.000000 
0.270799 0.123499 0.000000 
0.239722 0.123429 0.000000 
0.282284 0.112549 0.000000 
0.279857 0.096269 0.000000 
0.305750 0.130659 0.000000 
0.272808 0.141952 0.000000 
0.290571 0.147824 0.000000 
0.253691 0.151794 0.000000 
0.447071 0.345496 0.000000 
0.426947 0.342159 0.000000 
0.332441 0.451300 0.000000 
0.329465 0.428127 0.000000 
0.214116 0.413783 0.000000 
0.344178 0.417346 0.000000 
0.397407 0.188050 0.000000 
0.134049 0.311485 0.000000 
0.216822 0.144708 0.000000 
0.425085 0.314454 0.000000 
0.292536 0.398683 0.000000 
0.383239 0.343362 0.000000 
0.318107 0.168210 0.000000 
0.195216 0.366567 0.000000 
0.179494 0.217966 0.000000 
0.393948 0.238786 0.000000 
0.231907 0.387866 0.000000 
0.334328 0.384833 0.000000 
0.370131 0.203679 0.000000 
0.165680 0.309651 0.000000 
0.225648 0.175139 0.000000 
0.395864 0.302874 0.000000 
0.301504 0.428483 0.000000 
0.414921 0.355610 0.000000 
0.322998 0.134596 0.000000 
0.176226 0.394732 0.000000 
0.147809 0.205719 0.000000 
0.423280 0.221651 0.000000 
0.281174 0.385798 0.000000 
0.196546 0.214949 0.000000 
0.374124 0.221034 0.000000 
0.359964 0.233822 0.000000 
0.359984 0.250146 0.000000 
0.345834 0.225641 0.000000 
0.378396 0.254273 0.000000 
0.345790 0.259666 0.000000 
0.330490 0.233169 0.000000 
0.351468 0.207637 0.000000 
0.346686 0.276905 0.000000 
0.330425 0.250869 0.000000 
0.316007 0.223772 0.000000 
0.362491 0.288880 0.000000 
0.332200 0.286378 0.000000 
0.300558 0.231575 0.000000 
0.313540 0.204101 0.000000 
0.263965 0.391703 0.000000 
0.285544 0.369158 0.000000 
0.202660 0.197812 0.000000 
0.316749 0.278554 0.000000 
0.270838 0.359247 0.000000 
0.303467 0.368626 0.000000 
0.316528 0.384877 0.000000 
0.302240 0.288017 0.000000 
0.315870 0.260284 0.000000 
0.251762 0.365171 0.000000 
0.303185 0.305311 0.000000 
0.286793 0.280192 0.000000 
0.318639 0.313140 0.000000 
0.288684 0.314782 0.000000 
0.272289 0.289660 0.000000 
0.285916 0.260831 0.000000 
0.333145 0.303670 0.000000 
0.289729 0.333241 0.000000 
0.273234 0.306955 0.000000 
0.258733 0.316425 0.000000 
0.257295 0.333562 0.000000 
0.272840 0.342550 0.000000 
0.236757 0.344233 0.000000 
0.243284 0.308598 0.000000 
0.224801 0.318053 0.000000 
0.242337 0.291303 0.000000 
0.219713 0.336551 0.000000 
0.199173 0.346184 0.000000 
0.203469 0.309508 0.000000 
0.226889 0.283478 0.000000 
0.256840 0.281835 0.000000 
0.206503 0.292229 0.000000 
0.225943 0.266183 0.000000 
0.255896 0.264541 0.000000 
0.209024 0.251923 0.000000 
0.240446 0.256715 0.000000 
0.239501 0.239421 0.000000 
0.225718 0.227648 0.000000 
0.230066 0.207098 0.000000 
0.254005 0.229953 0.000000 
0.248369 0.209950 0.000000 
0.269522 0.235711 0.000000 
0.285043 0.224725 0.000000 
0.324798 0.189455 0.000000 
0.220778 0.373960 0.000000 
0.233226 0.359145 0.000000 
0.247009 0.169327 0.000000 
0.363427 0.345016 0.000000 
0.357308 0.362151 0.000000 
0.349937 0.332584 0.000000 
0.332348 0.338085 0.000000 
0.328297 0.355343 0.000000 
0.309797 0.356951 0.000000 
0.303860 0.340239 0.000000 
0.318268 0.329608 0.000000 
0.163437 0.285625 0.000000 
0.384774 0.316809 0.000000 
0.365224 0.309320 0.000000 
0.270467 0.253005 0.000000 
0.309969 0.398296 0.000000 
0.315760 0.418636 0.000000 
0.170960 0.235691 0.000000 
0.209744 0.230682 0.000000 
0.300486 0.250386 0.000000 
0.297364 0.165553 0.000000 
0.249259 0.380987 0.000000 
0.220206 0.192995 0.000000 
0.393820 0.329496 0.000000 
0.416958 0.329298 0.000000 
0.389696 0.221872 0.000000 
0.403959 0.203659 0.000000 
0.183034 0.318231 0.000000 
0.206387 0.379963 0.000000 
0.201442 0.402563 0.000000 
0.339768 0.366975 0.000000 
0.380808 0.286457 0.000000 
0.350363 0.314637 0.000000 
0.342867 0.191603 0.000000 
0.183827 0.336409 0.000000 
0.387983 0.269738 0.000000 
0.296077 0.196537 0.000000 
0.283028 0.209359 0.000000 
0.286592 0.179234 0.000000 
0.261871 0.200342 0.000000 
0.140134 0.221660 0.000000 
0.263387 0.180973 0.000000 
0.194103 0.269047 0.000000 
0.176890 0.262118 0.000000 
0.705746 0.910252 0.000000 
0.601064 0.570865 0.000000 
0.909933 0.748225 0.000000 
0.536575 0.776903 0.000000 
0.815390 0.554776 0.000000 
0.761244 0.903399 0.000000 
0.601054 0.869165 0.000000 
0.705737 0.529760 0.000000 
0.859859 0.849768 0.000000 
0.535958 0.663499 0.000000 
0.891887 0.637222 0.000000 
0.650221 0.898894 0.000000 
0.651298 0.544472 0.000000 
0.891893 0.802777 0.000000 
0.529219 0.720006 0.000000 
0.860488 0.589104 0.000000 
0.562370 0.827479 0.000000 
0.762451 0.534003 0.000000 
0.816494 0.886588 0.000000 
0.561109 0.611338 0.000000 
0.908648 0.691561 0.000000 
0.677551 0.906002 0.000000 
0.623699 0.553823 0.000000 
0.899977 0.775240 0.000000 
0.533604 0.747910 0.000000 
0.838949 0.570839 0.000000 
0.733879 0.911474 0.000000 
0.578701 0.850748 0.000000 
0.734114 0.528015 0.000000 
0.838957 0.869163 0.000000 
0.548110 0.637210 0.000000 
0.904033 0.663512 0.000000 
0.626100 0.883174 0.000000 
0.677529 0.533996 0.000000 
0.878913 0.828668 0.000000 
0.531348 0.691566 0.000000 
0.875400 0.613733 0.000000 
0.548112 0.802787 0.000000 
0.790582 0.540896 0.000000 
0.789707 0.897599 0.000000 
0.580262 0.590351 0.000000 
0.910781 0.719996 0.000000 
0.692880 0.899955 0.000000 
0.695513 0.882485 0.000000 
0.682664 0.872259 0.000000 
0.710807 0.876501 0.000000 
0.668759 0.878927 0.000000 
0.666280 0.895199 0.000000 
0.654202 0.870578 0.000000 
0.642448 0.883210 0.000000 
0.684182 0.855217 0.000000 
0.714381 0.859768 0.000000 
0.722049 0.886930 0.000000 
0.738023 0.883039 0.000000 
0.719622 0.903210 0.000000 
0.745532 0.898574 0.000000 
0.670192 0.845093 0.000000 
0.700605 0.848709 0.000000 
0.729103 0.855647 0.000000 
0.562398 0.811000 0.000000 
0.577699 0.802164 0.000000 
0.577681 0.785742 0.000000 
0.591913 0.810389 0.000000 
0.563743 0.778947 0.000000 
0.549476 0.787155 0.000000 
0.560917 0.761945 0.000000 
0.543713 0.760631 0.000000 
0.591952 0.776303 0.000000 
0.607224 0.802749 0.000000 
0.590513 0.826195 0.000000 
0.602237 0.838830 0.000000 
0.576272 0.834449 0.000000 
0.594773 0.854387 0.000000 
0.591144 0.759054 0.000000 
0.607281 0.785085 0.000000 
0.619813 0.814462 0.000000 
0.618975 0.868315 0.000000 
0.626684 0.849445 0.000000 
0.843788 0.853408 0.000000 
0.831770 0.840456 0.000000 
0.815763 0.844128 0.000000 
0.836626 0.824768 0.000000 
0.812442 0.859644 0.000000 
0.823619 0.871728 0.000000 
0.797516 0.868263 0.000000 
0.800063 0.885329 0.000000 
0.803385 0.832315 0.000000 
0.825771 0.811542 0.000000 
0.852347 0.822615 0.000000 
0.862056 0.808374 0.000000 
0.863563 0.834663 0.000000 
0.878884 0.812189 0.000000 
0.786746 0.836941 0.000000 
0.808536 0.815417 0.000000 
0.834389 0.796662 0.000000 
0.540779 0.733075 0.000000 
0.571536 0.732803 0.000000 
0.596276 0.586664 0.000000 
0.608300 0.599621 0.000000 
0.624294 0.595936 0.000000 
0.603435 0.615303 0.000000 
0.627794 0.580810 0.000000 
0.616600 0.568708 0.000000 
0.643726 0.574256 0.000000 
0.641158 0.557169 0.000000 
0.636661 0.607736 0.000000 
0.614276 0.628514 0.000000 
0.587705 0.617441 0.000000 
0.577977 0.631659 0.000000 
0.576481 0.605376 0.000000 
0.561133 0.627818 0.000000 
0.653290 0.603098 0.000000 
0.631506 0.624631 0.000000 
0.608412 0.644754 0.000000 
0.822514 0.569635 0.000000 
0.812560 0.584234 0.000000 
0.819700 0.599023 0.000000 
0.796185 0.582989 0.000000 
0.835121 0.599049 0.000000 
0.844416 0.585463 0.000000 
0.844615 0.612888 0.000000 
0.860686 0.606607 0.000000 
0.810938 0.613720 0.000000 
0.785704 0.596515 0.000000 
0.790589 0.568141 0.000000 
0.774545 0.561845 0.000000 
0.799841 0.554526 0.000000 
0.774521 0.544591 0.000000 
0.819151 0.628912 0.000000 
0.793318 0.612457 0.000000 
0.768563 0.594421 0.000000 
0.901474 0.706396 0.000000 
0.883855 0.707718 0.000000 
0.876746 0.722522 0.000000 
0.874618 0.694140 0.000000 
0.886341 0.734594 0.000000 
0.902757 0.733390 0.000000 
0.881442 0.750646 0.000000 
0.896373 0.759294 0.000000 
0.859793 0.724836 0.000000 
0.857510 0.694381 0.000000 
0.882737 0.680507 0.000000 
0.877657 0.664038 0.000000 
0.899149 0.679249 0.000000 
0.891132 0.653260 0.000000 
0.853037 0.740729 0.000000 
0.849794 0.710273 0.000000 
0.851250 0.678367 0.000000 
0.875372 0.630211 0.000000 
0.860238 0.643868 0.000000 
0.667366 0.548175 0.000000 
0.675909 0.579269 0.000000 
0.746982 0.538309 0.000000 
0.739472 0.553843 0.000000 
0.538524 0.706406 0.000000 
0.554703 0.708850 0.000000 
0.563940 0.695273 0.000000 
0.556958 0.725553 0.000000 
0.557262 0.680515 0.000000 
0.540846 0.679250 0.000000 
0.562347 0.664047 0.000000 
0.548865 0.653255 0.000000 
0.581048 0.695516 0.000000 
0.592177 0.678395 0.000000 
0.586390 0.716342 0.000000 
0.692869 0.540053 0.000000 
0.695505 0.557523 0.000000 
0.710800 0.563505 0.000000 
0.679724 0.563437 0.000000 
0.722284 0.552556 0.000000 
0.719856 0.536279 0.000000 
0.745751 0.570663 0.000000 
0.712810 0.581956 0.000000 
0.730574 0.587827 0.000000 
0.693697 0.591799 0.000000 
0.887076 0.785494 0.000000 
0.866964 0.782178 0.000000 
0.772433 0.891301 0.000000 
0.769472 0.868140 0.000000 
0.654116 0.853787 0.000000 
0.784198 0.857371 0.000000 
0.837406 0.628054 0.000000 
0.574047 0.751491 0.000000 
0.656846 0.584735 0.000000 
0.865091 0.754467 0.000000 
0.732539 0.838684 0.000000 
0.823268 0.783400 0.000000 
0.758110 0.608215 0.000000 
0.635218 0.806572 0.000000 
0.619522 0.658004 0.000000 
0.833948 0.678793 0.000000 
0.671910 0.827871 0.000000 
0.774352 0.824860 0.000000 
0.810132 0.643684 0.000000 
0.605680 0.749659 0.000000 
0.665674 0.615168 0.000000 
0.835866 0.742888 0.000000 
0.741504 0.868489 0.000000 
0.854952 0.795647 0.000000 
0.762999 0.574599 0.000000 
0.616226 0.834737 0.000000 
0.587844 0.645761 0.000000 
0.863278 0.661656 0.000000 
0.721179 0.825803 0.000000 
0.636574 0.654984 0.000000 
0.814126 0.661041 0.000000 
0.799969 0.673832 0.000000 
0.799991 0.690159 0.000000 
0.785841 0.665652 0.000000 
0.818400 0.694284 0.000000 
0.785801 0.699683 0.000000 
0.770502 0.673184 0.000000 
0.791471 0.647644 0.000000 
0.786698 0.716924 0.000000 
0.770440 0.690889 0.000000 
0.756020 0.663787 0.000000 
0.802500 0.728897 0.000000 
0.772218 0.726401 0.000000 
0.740576 0.671595 0.000000 
0.753549 0.644112 0.000000 
0.703968 0.831708 0.000000 
0.725553 0.809168 0.000000 
0.642693 0.637850 0.000000 
0.756771 0.718579 0.000000 
0.710848 0.799259 0.000000 
0.743478 0.808637 0.000000 
0.756542 0.824891 0.000000 
0.742267 0.728046 0.000000 
0.755891 0.700308 0.000000 
0.691769 0.805181 0.000000 
0.743212 0.745340 0.000000 
0.726819 0.720221 0.000000 
0.758662 0.753166 0.000000 
0.728708 0.754808 0.000000 
0.712315 0.729689 0.000000 
0.725941 0.700859 0.000000 
0.773164 0.743694 0.000000 
0.729748 0.773261 0.000000 
0.713259 0.746982 0.000000 
0.698754 0.756449 0.000000 
0.697311 0.773581 0.000000 
0.712855 0.782567 0.000000 
0.676767 0.784246 0.000000 
0.683302 0.748621 0.000000 
0.664813 0.758069 0.000000 
0.682358 0.731328 0.000000 
0.659721 0.776563 0.000000 
0.639177 0.786192 0.000000 
0.643476 0.749522 0.000000 
0.666905 0.723500 0.000000 
0.696866 0.721863 0.000000 
0.646513 0.732245 0.000000 
0.665960 0.706206 0.000000 
0.695922 0.704570 0.000000 
0.649038 0.691946 0.000000 
0.680468 0.696742 0.000000 
0.679522 0.679445 0.000000 
0.665739 0.667673 0.000000 
0.670088 0.647123 0.000000 
0.694026 0.669975 0.000000 
0.688386 0.649969 0.000000 
0.709543 0.675734 0.000000 
0.725060 0.664744 0.000000 
0.764803 0.629462 0.000000 
0.660781 0.813967 0.000000 
0.673232 0.799154 0.000000 
0.687022 0.609339 0.000000 
0.803453 0.785050 0.000000 
0.797339 0.802188 0.000000 
0.789958 0.772612 0.000000 
0.772369 0.778111 0.000000 
0.768318 0.795367 0.000000 
0.749812 0.796967 0.000000 
0.743878 0.780259 0.000000 
0.758288 0.769632 0.000000 
0.603437 0.725636 0.000000 
0.824787 0.756833 0.000000 
0.805236 0.749341 0.000000 
0.710492 0.693033 0.000000 
0.749977 0.838303 0.000000 
0.755767 0.858646 0.000000 
0.610977 0.675720 0.000000 
0.649765 0.670709 0.000000 
0.740509 0.690412 0.000000 
0.737368 0.605557 0.000000 
0.689263 0.820993 0.000000 
0.660233 0.633025 0.000000 
0.833841 0.769528 0.000000 
0.856973 0.769321 0.000000 
0.829696 0.661877 0.000000 
0.843958 0.643663 0.000000 
0.623037 0.758241 0.000000 
0.646389 0.819968 0.000000 
0.641442 0.842566 0.000000 
0.779793 0.807005 0.000000 
0.820813 0.726471 0.000000 
0.790380 0.754660 0.000000 
0.782870 0.631609 0.000000 
0.623829 0.776417 0.000000 
0.827985 0.709749 0.000000 
0.736086 0.636548 0.000000 
0.723041 0.649373 0.000000 
0.726599 0.619241 0.000000 
0.701884 0.640355 0.000000 
0.580154 0.661685 0.000000 
0.703396 0.620981 0.000000 
0.634111 0.709064 0.000000 
0.616893 0.702134 0.000000 
VECTORS X_EC float 
-0.404836 0.314934 0.000000 
0.383270 0.220850 0.000000 
0.835459 0.398657 0.000000 
0.262077 0.931523 0.000000 
0.704534 0.507731 0.000000 
-0.267951 -0.574891 0.000000 
0.416774 0.221035 0.000000 
-0.794959 0.314776 0.000000 
0.806991 -0.605180 0.000000 
0.529693 0.919230 0.000000 
-0.944278 0.037751 0.000000 
-0.177793 -0.795663 0.000000 
0.910390 -0.773715 0.000000 
-0.255796 0.037816 0.000000 
-0.600072 0.784385 0.000000 
0.018026 -0.590248 0.000000 
-0.749428 -0.552586 0.000000 
-0.879959 -0.551010 0.000000 
0.068110 0.530132 0.000000 
-0.426632 -0.578257 0.000000 
-0.031151 0.372992 0.000000 
-0.319913 -0.249021 0.000000 
0.723445 0.674197 0.000000 
0.294965 0.199575 0.000000 
0.841880 0.872119 0.000000 
0.383283 0.978933 0.000000 
-0.429200 0.877622 0.000000 
0.785139 -0.225991 0.000000 
-0.760121 0.882295 0.000000 
0.417271 0.978749 0.000000 
-0.944447 -0.837868 0.000000 
0.529907 0.280690 0.000000 
0.136573 0.721945 0.000000 
-0.879943 -0.249159 0.000000 
-0.773245 -0.222131 0.000000 
-0.031360 0.826964 0.000000 
-0.474524 -0.292002 0.000000 
-0.255564 -0.837729 0.000000 
0.982149 0.011554 0.000000 
-0.152194 -0.005479 0.000000 
-0.004643 -0.197194 0.000000 
-0.599882 0.415607 0.000000 
-0.198965 0.057592 0.000000 
0.150420 0.110266 0.000000 
0.354902 -0.146743 0.000000 
0.270097 0.416144 0.000000 
0.221545 -0.424847 0.000000 
-0.103884 -0.474451 0.000000 
0.388510 -0.715994 0.000000 
0.135861 -0.951111 0.000000 
0.695731 -0.116368 0.000000 
0.604715 0.487596 0.000000 
0.061561 0.640993 0.000000 
0.139395 0.960473 0.000000 
-0.263989 0.592455 0.000000 
-0.171266 -0.889300 0.000000 
0.898196 -0.396164 0.000000 
0.825866 0.212092 0.000000 
0.687124 0.782043 0.000000 
-0.419859 -0.552027 0.000000 
-0.243174 -0.246002 0.000000 
0.085270 -0.246347 0.000000 
-0.407688 0.038275 0.000000 
0.221193 -0.525100 0.000000 
0.057045 -0.810457 0.000000 
0.561224 -0.581617 0.000000 
0.587488 -0.925706 0.000000 
0.274063 0.039073 0.000000 
-0.254885 0.344476 0.000000 
-0.723812 0.010274 0.000000 
-0.976505 0.244746 0.000000 
-0.888867 -0.274562 0.000000 
0.712338 0.095452 0.000000 
0.619063 0.022916 0.000000 
0.098423 0.345618 0.000000 
-0.489151 0.596251 0.000000 
0.433758 0.579467 0.000000 
0.811174 0.733673 0.000000 
0.733249 -0.925477 0.000000 
0.992396 0.834060 0.000000 
0.918687 0.514174 0.000000 
-0.693968 0.931336 0.000000 
0.607840 0.448259 0.000000 
0.365812 0.672128 0.000000 
0.435143 0.150057 0.000000 
0.093406 0.201424 0.000000 
-0.845297 0.266815 0.000000 
-0.429737 0.714501 0.000000 
-0.651203 -0.754057 0.000000 
-0.366832 -0.559520 0.000000 
-0.892504 -0.529580 0.000000 
-0.443651 -0.222640 0.000000 
-0.938055 -0.065751 0.000000 