# vtk DataFile Version 3.0 
vtk output 
ASCII 
DATASET UNSTRUCTURED_GRID 
POINTS 616 float 
0.258960 0.463473 0.000000 
0.154177 0.123968 0.000000 
0.463101 0.301415 0.000000 
0.089767 0.330124 0.000000 
0.368584 0.108034 0.000000 
0.314447 0.456617 0.000000 
0.154276 0.422369 0.000000 
0.258925 0.082937 0.000000 
0.413043 0.402922 0.000000 
0.089086 0.216713 0.000000 
0.445083 0.190435 0.000000 
0.203436 0.452108 0.000000 
0.204466 0.097634 0.000000 
0.445052 0.355942 0.000000 
0.082381 0.273222 0.000000 
0.413684 0.142339 0.000000 
0.115604 0.380694 0.000000 
0.315669 0.087233 0.000000 
0.369675 0.439807 0.000000 
0.114208 0.164485 0.000000 
0.461847 0.244779 0.000000 
0.230765 0.459222 0.000000 
0.176857 0.106960 0.000000 
0.453143 0.328415 0.000000 
0.086791 0.301134 0.000000 
0.392132 0.124090 0.000000 
0.287088 0.464688 0.000000 
0.131932 0.403953 0.000000 
0.287330 0.081208 0.000000 
0.392134 0.422342 0.000000 
0.101227 0.190400 0.000000 
0.457231 0.216730 0.000000 
0.179320 0.436380 0.000000 
0.230717 0.087186 0.000000 
0.432100 0.381827 0.000000 
0.084489 0.244773 0.000000 
0.428599 0.166953 0.000000 
0.101336 0.356005 0.000000 
0.343792 0.094148 0.000000 
0.342902 0.450826 0.000000 
0.133266 0.143370 0.000000 
0.463976 0.273210 0.000000 
0.246094 0.453173 0.000000 
0.248727 0.435695 0.000000 
0.235879 0.425462 0.000000 
0.264019 0.429711 0.000000 
0.221975 0.432131 0.000000 
0.219495 0.448412 0.000000 
0.207420 0.423773 0.000000 
0.195665 0.436412 0.000000 
0.237397 0.408411 0.000000 
0.267591 0.412973 0.000000 
0.275258 0.440144 0.000000 
0.291227 0.436249 0.000000 
0.272834 0.456428 0.000000 
0.298735 0.451784 0.000000 
0.223410 0.398277 0.000000 
0.253818 0.401906 0.000000 
0.282308 0.408852 0.000000 
0.115623 0.364215 0.000000 
0.130914 0.355375 0.000000 
0.130886 0.338953 0.000000 
0.145129 0.363596 0.000000 
0.116946 0.332161 0.000000 
0.102687 0.340373 0.000000 
0.114108 0.315159 0.000000 
0.096905 0.313851 0.000000 
0.145147 0.329510 0.000000 
0.160430 0.355950 0.000000 
0.143735 0.379400 0.000000 
0.155460 0.392027 0.000000 
0.129506 0.387660 0.000000 
0.148000 0.407588 0.000000 
0.144329 0.312262 0.000000 
0.160477 0.338287 0.000000 
0.173022 0.367658 0.000000 
0.172198 0.421516 0.000000 
0.179905 0.402630 0.000000 
0.396951 0.406580 0.000000 
0.384915 0.393620 0.000000 
0.368909 0.397310 0.000000 
0.389762 0.377940 0.000000 
0.365600 0.412840 0.000000 
0.376789 0.424922 0.000000 
0.350688 0.421467 0.000000 
0.353247 0.438549 0.000000 
0.356527 0.385495 0.000000 
0.378910 0.364722 0.000000 
0.405488 0.375789 0.000000 
0.415200 0.361546 0.000000 
0.416736 0.387824 0.000000 
0.432034 0.365354 0.000000 
0.339907 0.390129 0.000000 
0.361686 0.368600 0.000000 
0.387535 0.349833 0.000000 
0.093951 0.286290 0.000000 
0.124709 0.286010 0.000000 
0.149344 0.139731 0.000000 
0.161366 0.152694 0.000000 
0.177378 0.149022 0.000000 
0.156506 0.168391 0.000000 
0.180906 0.133921 0.000000 
0.169728 0.121823 0.000000 
0.196855 0.127387 0.000000 
0.194309 0.110318 0.000000 
0.189758 0.160845 0.000000 
0.167369 0.181623 0.000000 
0.140783 0.170543 0.000000 
0.131071 0.184795 0.000000 
0.129562 0.158486 0.000000 
0.114241 0.180979 0.000000 
0.206400 0.156224 0.000000 
0.184603 0.177746 0.000000 
0.161508 0.197879 0.000000 
0.375702 0.122892 0.000000 
0.365745 0.137477 0.000000 
0.372881 0.152261 0.000000 
0.349371 0.136227 0.000000 
0.388301 0.152287 0.000000 
0.397595 0.138712 0.000000 
0.397788 0.166119 0.000000 
0.413876 0.159836 0.000000 
0.364111 0.166946 0.000000 
0.338885 0.149744 0.000000 
0.343782 0.121383 0.000000 
0.327744 0.115081 0.000000 
0.353038 0.107779 0.000000 
0.327731 0.097831 0.000000 
0.372317 0.182129 0.000000 
0.346490 0.165681 0.000000 
0.321744 0.147646 0.000000 
0.454669 0.259610 0.000000 
0.437047 0.260924 0.000000 
0.429938 0.275720 0.000000 
0.427806 0.247345 0.000000 
0.439528 0.287787 0.000000 
0.455943 0.286588 0.000000 
0.434616 0.303827 0.000000 
0.449542 0.312475 0.000000 
0.412983 0.278025 0.000000 
0.410693 0.247580 0.000000 
0.435926 0.233717 0.000000 
0.430841 0.217250 0.000000 
0.452345 0.232465 0.000000 
0.444323 0.206477 0.000000 
0.406223 0.293907 0.000000 
0.402980 0.263463 0.000000 
0.404425 0.231568 0.000000 
0.428562 0.183426 0.000000 
0.413407 0.197080 0.000000 
0.220534 0.101342 0.000000 
0.229057 0.132432 0.000000 
0.300198 0.091523 0.000000 
0.292674 0.107057 0.000000 
0.091676 0.259612 0.000000 
0.107860 0.262050 0.000000 
0.117089 0.248465 0.000000 
0.110126 0.278758 0.000000 
0.110398 0.233706 0.000000 
0.093982 0.232454 0.000000 
0.115469 0.217229 0.000000 
0.101983 0.206451 0.000000 
0.134199 0.248702 0.000000 
0.145309 0.231560 0.000000 
0.139553 0.269536 0.000000 
0.246050 0.093229 0.000000 
0.248679 0.110703 0.000000 
0.263979 0.116698 0.000000 
0.232886 0.116606 0.000000 
0.275478 0.105759 0.000000 
0.273055 0.089472 0.000000 
0.298948 0.123883 0.000000 
0.265981 0.135152 0.000000 
0.283748 0.141035 0.000000 
0.246852 0.144983 0.000000 
0.440238 0.338665 0.000000 
0.420123 0.335352 0.000000 
0.325628 0.444518 0.000000 
0.322656 0.421345 0.000000 
0.207336 0.406970 0.000000 
0.337370 0.410569 0.000000 
0.390575 0.181271 0.000000 
0.127229 0.304703 0.000000 
0.209972 0.137872 0.000000 
0.418266 0.307644 0.000000 
0.285741 0.391891 0.000000 
0.376426 0.336575 0.000000 
0.311279 0.161433 0.000000 
0.188417 0.359761 0.000000 
0.172637 0.211145 0.000000 
0.387121 0.231993 0.000000 
0.225115 0.381058 0.000000 
0.327520 0.378054 0.000000 
0.363284 0.196891 0.000000 
0.158856 0.302864 0.000000 
0.218795 0.168314 0.000000 
0.389053 0.296063 0.000000 
0.294702 0.421695 0.000000 
0.408101 0.348821 0.000000 
0.316192 0.127826 0.000000 
0.169447 0.387930 0.000000 
0.140938 0.198899 0.000000 
0.416454 0.214866 0.000000 
0.274385 0.379011 0.000000 
0.189692 0.208123 0.000000 
0.367285 0.214243 0.000000 
0.353130 0.227031 0.000000 
0.353158 0.243354 0.000000 
0.338994 0.218853 0.000000 
0.371573 0.247473 0.000000 
0.338968 0.252877 0.000000 
0.323652 0.226384 0.000000 
0.344618 0.200850 0.000000 
0.339874 0.270115 0.000000 
0.323598 0.244085 0.000000 
0.309161 0.216989 0.000000 
0.355686 0.282082 0.000000 
0.325395 0.279596 0.000000 
0.293718 0.224794 0.000000 
0.306682 0.197315 0.000000 
0.257175 0.384907 0.000000 
0.278750 0.362374 0.000000 
0.195808 0.190981 0.000000 
0.309940 0.271778 0.000000 
0.264042 0.352462 0.000000 
0.296666 0.361844 0.000000 
0.309723 0.378092 0.000000 
0.295441 0.281251 0.000000 
0.309048 0.253506 0.000000 
0.244964 0.358377 0.000000 
0.296397 0.298548 0.000000 
0.279977 0.273414 0.000000 
0.311844 0.306367 0.000000 
0.281888 0.308012 0.000000 
0.265475 0.282882 0.000000 
0.279089 0.254050 0.000000 
0.326349 0.296890 0.000000 
0.282933 0.326467 0.000000 
0.266430 0.300181 0.000000 
0.251926 0.309644 0.000000 
0.250491 0.326777 0.000000 
0.266042 0.335770 0.000000 
0.229951 0.337438 0.000000 
0.236468 0.301814 0.000000 
0.217982 0.311259 0.000000 
0.235514 0.284514 0.000000 
0.212900 0.329751 0.000000 
0.192363 0.339381 0.000000 
0.196637 0.302710 0.000000 
0.220060 0.276681 0.000000 
0.250017 0.275046 0.000000 
0.199669 0.285427 0.000000 
0.219107 0.259380 0.000000 
0.249065 0.257749 0.000000 
0.202181 0.245109 0.000000 
0.233609 0.249914 0.000000 
0.232657 0.232614 0.000000 
0.218869 0.220832 0.000000 
0.223210 0.200277 0.000000 
0.247158 0.223150 0.000000 
0.241513 0.203140 0.000000 
0.262679 0.228917 0.000000 
0.278195 0.217936 0.000000 
0.317957 0.182673 0.000000 
0.213982 0.367153 0.000000 
0.226425 0.352345 0.000000 
0.240163 0.162513 0.000000 
0.356619 0.338233 0.000000 
0.350499 0.355374 0.000000 
0.343133 0.325800 0.000000 
0.325546 0.331306 0.000000 
0.321493 0.348564 0.000000 
0.302996 0.350172 0.000000 
0.297065 0.333466 0.000000 
0.311470 0.322833 0.000000 
0.156606 0.278832 0.000000 
0.377965 0.310008 0.000000 
0.358419 0.302522 0.000000 
0.263633 0.246215 0.000000 
0.303165 0.391505 0.000000 
0.308954 0.411849 0.000000 
0.164107 0.228878 0.000000 
0.202896 0.223860 0.000000 
0.293659 0.243610 0.000000 
0.290534 0.158769 0.000000 
0.242468 0.374190 0.000000 
0.213351 0.186168 0.000000 
0.387009 0.322699 0.000000 
0.410140 0.322496 0.000000 
0.382859 0.215078 0.000000 
0.397115 0.196870 0.000000 
0.176213 0.311439 0.000000 
0.199595 0.373149 0.000000 
0.194659 0.395738 0.000000 
0.332961 0.360198 0.000000 
0.374002 0.279650 0.000000 
0.343561 0.307848 0.000000 
0.336025 0.184821 0.000000 
0.177015 0.329613 0.000000 
0.381167 0.262931 0.000000 
0.289227 0.189747 0.000000 
0.276170 0.202564 0.000000 
0.279753 0.172444 0.000000 
0.255019 0.193538 0.000000 
0.133269 0.214846 0.000000 
0.256540 0.174169 0.000000 
0.187264 0.262240 0.000000 
0.170048 0.255315 0.000000 
0.712543 0.917049 0.000000 
0.607855 0.577658 0.000000 
0.916780 0.755041 0.000000 
0.543390 0.783674 0.000000 
0.822174 0.561576 0.000000 
0.768062 0.910229 0.000000 
0.607871 0.875917 0.000000 
0.712542 0.536557 0.000000 
0.866723 0.856634 0.000000 
0.542778 0.670353 0.000000 
0.898681 0.643999 0.000000 
0.657011 0.905650 0.000000 
0.658124 0.551261 0.000000 
0.898749 0.809603 0.000000 
0.536018 0.726790 0.000000 
0.867269 0.595887 0.000000 
0.569191 0.834246 0.000000 
0.769242 0.540790 0.000000 
0.823330 0.893455 0.000000 
0.567873 0.618190 0.000000 
0.915475 0.698354 0.000000 
0.684337 0.912770 0.000000 
0.630526 0.560606 0.000000 
0.906825 0.782054 0.000000 
0.540410 0.754686 0.000000 
0.845729 0.577636 0.000000 
0.740690 0.918298 0.000000 
0.585522 0.857504 0.000000 
0.740913 0.534795 0.000000 
0.845811 0.876035 0.000000 
0.554929 0.644075 0.000000 
0.910851 0.670296 0.000000 
0.632900 0.889922 0.000000 
0.684346 0.540793 0.000000 
0.885776 0.835520 0.000000 
0.538165 0.698381 0.000000 
0.882187 0.620509 0.000000 
0.554941 0.809563 0.000000 
0.797371 0.547685 0.000000 
0.796529 0.904443 0.000000 
0.586945 0.597091 0.000000 
0.917616 0.726800 0.000000 
0.699679 0.906740 0.000000 
0.702321 0.889264 0.000000 
0.689473 0.879031 0.000000 
[...]
POINT_DATA 616 
VECTORS X_GC float 
0.258960 0.463473 0.000000 
0.154177 0.123968 0.000000 
0.463101 0.301415 0.000000 
0.089767 0.330124 0.000000 
0.368584 0.108034 0.000000 
0.314447 0.456617 0.000000 
0.154276 0.422369 0.000000 
0.258925 0.082937 0.000000 
0.413043 0.402922 0.000000 
0.089086 0.216713 0.000000 
0.445083 0.190435 0.000000 
0.203436 0.452108 0.000000 
0.204466 0.097634 0.000000 
0.445052 0.355942 0.000000 
0.082381 0.273222 0.000000 
0.413684 0.142339 0.000000 
0.115604 0.380694 0.000000 
0.315669 0.087233 0.000000 
0.369675 0.439807 0.000000 
0.114208 0.164485 0.000000 
0.461847 0.244779 0.000000 
0.230765 0.459222 0.000000 
0.176857 0.106960 0.000000 
0.453143 0.328415 0.000000 
0.086791 0.301134 0.000000 
0.392132 0.124090 0.000000 
0.287088 0.464688 0.000000 
0.131932 0.403953 0.000000 
0.287330 0.081208 0.000000 
0.392134 0.422342 0.000000 
0.101227 0.190400 0.000000 
0.457231 0.216730 0.000000 
0.179320 0.436380 0.000000 
0.230717 0.087186 0.000000 
0.432100 0.381827 0.000000 
0.084489 0.244773 0.000000 
0.428599 0.166953 0.000000 
0.101336 0.356005 0.000000 
0.343792 0.094148 0.000000 
0.342902 0.450826 0.000000 
0.133266 0.143370 0.000000 
0.463976 0.273210 0.000000 
0.246094 0.453173 0.000000 
0.248727 0.435695 0.000000 
0.235879 0.425462 0.000000 
0.264019 0.429711 0.000000 
0.221975 0.432131 0.000000 
0.219495 0.448412 0.000000 
0.207420 0.423773 0.000000 
0.195665 0.436412 0.000000 
0.237397 0.408411 0.000000 
0.267591 0.412973 0.000000 
0.275258 0.440144 0.000000 
0.291227 0.436249 0.000000 
0.272834 0.456428 0.000000 
0.298735 0.451784 0.000000 
0.223410 0.398277 0.000000 
0.253818 0.401906 0.000000 
0.282308 0.408852 0.000000 
0.115623 0.364215 0.000000 
0.130914 0.355375 0.000000 
0.130886 0.338953 0.000000 
0.145129 0.363596 0.000000 
0.116946 0.332161 0.000000 
0.102687 0.340373 0.000000 
0.114108 0.315159 0.000000 
0.096905 0.313851 0.000000 
0.145147 0.329510 0.000000 
0.160430 0.355950 0.000000 
0.143735 0.379400 0.000000 
0.155460 0.392027 0.000000 
0.129506 0.387660 0.000000 
0.148000 0.407588 0.000000 
0.144329 0.312262 0.000000 
0.160477 0.338287 0.000000 
0.173022 0.367658 0.000000 
0.172198 0.421516 0.000000 
0.179905 0.402630 0.000000 
0.396951 0.406580 0.000000 
0.384915 0.393620 0.000000 
0.368909 0.397310 0.000000 
0.389762 0.377940 0.000000 
0.365600 0.412840 0.000000 
0.376789 0.424922 0.000000 
0.350688 0.421467 0.000000 
0.353247 0.438549 0.000000 
0.356527 0.385495 0.000000 
0.378910 0.364722 0.000000 
0.405488 0.375789 0.000000 
0.415200 0.361546 0.000000 
0.416736 0.387824 0.000000 
0.432034 0.365354 0.000000 
0.339907 0.390129 0.000000 
0.361686 0.368600 0.000000 
0.387535 0.349833 0.000000 
0.093951 0.286290 0.000000 
0.124709 0.286010 0.000000 
0.149344 0.139731 0.000000 
0.161366 0.152694 0.000000 
0.177378 0.149022 0.000000 
0.156506 0.168391 0.000000 
0.180906 0.133921 0.000000 
0.169728 0.121823 0.000000 
0.196855 0.127387 0.000000 
0.194309 0.110318 0.000000 
0.189758 0.160845 0.000000 
0.167369 0.181623 0.000000 
0.140783 0.170543 0.000000 
0.131071 0.184795 0.000000 
0.129562 0.158486 0.000000 
0.114241 0.180979 0.000000 
0.206400 0.156224 0.000000 
0.184603 0.177746 0.000000 
0.161508 0.197879 0.000000 
0.375702 0.122892 0.000000 
0.365745 0.137477 0.000000 
0.372881 0.152261 0.000000 
0.349371 0.136227 0.000000 
0.388301 0.152287 0.000000 
0.397595 0.138712 0.000000 
0.397788 0.166119 0.000000 
0.413876 0.159836 0.000000 
0.364111 0.166946 0.000000 
0.338885 0.149744 0.000000 
0.343782 0.121383 0.000000 
0.327744 0.115081 0.000000 
0.353038 0.107779 0.000000 
0.327731 0.097831 0.000000 
0.372317 0.182129 0.000000 
0.346490 0.165681 0.000000 
0.321744 0.147646 0.000000 
0.454669 0.259610 0.000000 
0.437047 0.260924 0.000000 
0.429938 0.275720 0.000000 
0.427806 0.247345 0.000000 
0.439528 0.287787 0.000000 
0.455943 0.286588 0.000000 
0.434616 0.303827 0.000000 
0.449542 0.312475 0.000000 
0.412983 0.278025 0.000000 
0.410693 0.247580 0.000000 
0.435926 0.233717 0.000000 
0.430841 0.217250 0.000000 
0.452345 0.232465 0.000000 
0.444323 0.206477 0.000000 
0.406223 0.293907 0.000000 
0.402980 0.263463 0.000000 
0.404425 0.231568 0.000000 
0.428562 0.183426 0.000000 
0.413407 0.197080 0.000000 
0.220534 0.101342 0.000000 
0.229057 0.132432 0.000000 
0.300198 0.091523 0.000000 
0.292674 0.107057 0.000000 
0.091676 0.259612 0.000000 
0.107860 0.262050 0.000000 
0.117089 0.248465 0.000000 
0.110126 0.278758 0.000000 
0.110398 0.233706 0.000000 
0.093982 0.232454 0.000000 
0.115469 0.217229 0.000000 
0.101983 0.206451 0.000000 
0.134199 0.248702 0.000000 
0.145309 0.231560 0.000000 
0.139553 0.269536 0.000000 
0.246050 0.093229 0.000000 
0.248679 0.110703 0.000000 
0.263979 0.116698 0.000000 
0.232886 0.116606 0.000000 
0.275478 0.105759 0.000000 
0.273055 0.089472 0.000000 
0.298948 0.123883 0.000000 
0.265981 0.135152 0.000000 
0.283748 0.141035 0.000000 
0.246852 0.144983 0.000000 
0.440238 0.338665 0.000000 
0.420123 0.335352 0.000000 
0.325628 0.444518 0.000000 
0.322656 0.421345 0.000000 
0.207336 0.406970 0.000000 
0.337370 0.410569 0.000000 
0.390575 0.181271 0.000000 
0.127229 0.304703 0.000000 
0.209972 0.137872 0.000000 
0.418266 0.307644 0.000000 
0.285741 0.391891 0.000000 
0.376426 0.336575 0.000000 
0.311279 0.161433 0.000000 
0.188417 0.359761 0.000000 
0.172637 0.211145 0.000000 
0.387121 0.231993 0.000000 
0.225115 0.381058 0.000000 
0.327520 0.378054 0.000000 
0.363284 0.196891 0.000000 
0.158856 0.302864 0.000000 
0.218795 0.168314 0.000000 
0.389053 0.296063 0.000000 
0.294702 0.421695 0.000000 
0.408101 0.348821 0.000000 
0.316192 0.127826 0.000000 
0.169447 0.387930 0.000000 
0.140938 0.198899 0.000000 
0.416454 0.214866 0.000000 
0.274385 0.379011 0.000000 
0.189692 0.208123 0.000000 
0.367285 0.214243 0.000000 
0.353130 0.227031 0.000000 
0.353158 0.243354 0.000000 
0.338994 0.218853 0.000000 
0.371573 0.247473 0.000000 
0.338968 0.252877 0.000000 
0.323652 0.226384 0.000000 
0.344618 0.200850 0.000000 
0.339874 0.270115 0.000000 
0.323598 0.244085 0.000000 
0.309161 0.216989 0.000000 
0.355686 0.282082 0.000000 
0.325395 0.279596 0.000000 
0.293718 0.224794 0.000000 
0.306682 0.197315 0.000000 
0.257175 0.384907 0.000000 
0.278750 0.362374 0.000000 
0.195808 0.190981 0.000000 
0.309940 0.271778 0.000000 
0.264042 0.352462 0.000000 
0.296666 0.361844 0.000000 
0.309723 0.378092 0.000000 
0.295441 0.281251 0.000000 
0.309048 0.253506 0.000000 
0.244964 0.358377 0.000000 
0.296397 0.298548 0.000000 
0.279977 0.273414 0.000000 
0.311844 0.306367 0.000000 
0.281888 0.308012 0.000000 
0.265475 0.282882 0.000000 
0.279089 0.254050 0.000000 
0.326349 0.296890 0.000000 
0.282933 0.326467 0.000000 
0.266430 0.300181 0.000000 
0.251926 0.309644 0.000000 
0.250491 0.326777 0.000000 
0.266042 0.335770 0.000000 
0.229951 0.337438 0.000000 
0.236468 0.301814 0.000000 
0.217982 0.311259 0.000000 
0.235514 0.284514 0.000000 
0.212900 0.329751 0.000000 
0.192363 0.339381 0.000000 
0.196637 0.302710 0.000000 
0.220060 0.276681 0.000000 
0.250017 0.275046 0.000000 
0.199669 0.285427 0.000000 
0.219107 0.259380 0.000000 
0.249065 0.257749 0.000000 
0.202181 0.245109 0.000000 
0.233609 0.249914 0.000000 
0.232657 0.232614 0.000000 
0.218869 0.220832 0.000000 
0.223210 0.200277 0.000000 
0.247158 0.223150 0.000000 
0.241513 0.203140 0.000000 
0.262679 0.228917 0.000000 
0.278195 0.217936 0.000000 
0.317957 0.182673 0.000000 
0.213982 0.367153 0.000000 
0.226425 0.352345 0.000000 
0.240163 0.162513 0.000000 
0.356619 0.338233 0.000000 
0.350499 0.355374 0.000000 
0.343133 0.325800 0.000000 
0.325546 0.331306 0.000000 
0.321493 0.348564 0.000000 
0.302996 0.350172 0.000000 
0.297065 0.333466 0.000000 
0.311470 0.322833 0.000000 
0.156606 0.278832 0.000000 
0.377965 0.310008 0.000000 
0.358419 0.302522 0.000000 
0.263633 0.246215 0.000000 
0.303165 0.391505 0.000000 
0.308954 0.411849 0.000000 
0.164107 0.228878 0.000000 
0.202896 0.223860 0.000000 
0.293659 0.243610 0.000000 
0.290534 0.158769 0.000000 
0.242468 0.374190 0.000000 
0.213351 0.186168 0.000000 
0.387009 0.322699 0.000000 
0.410140 0.322496 0.000000 
0.382859 0.215078 0.000000 
0.397115 0.196870 0.000000 
0.176213 0.311439 0.000000 
0.199595 0.373149 0.000000 
0.194659 0.395738 0.000000 
0.332961 0.360198 0.000000 
0.374002 0.279650 0.000000 
0.343561 0.307848 0.000000 
0.336025 0.184821 0.000000 
0.177015 0.329613 0.000000 
0.381167 0.262931 0.000000 
0.289227 0.189747 0.000000 
0.276170 0.202564 0.000000 
0.279753 0.172444 0.000000 
0.255019 0.193538 0.000000 
0.133269 0.214846 0.000000 
0.256540 0.174169 0.000000 
0.187264 0.262240 0.000000 
0.170048 0.255315 0.000000 
0.712543 0.917049 0.000000 
0.607855 0.577658 0.000000 
0.916780 0.755041 0.000000 
0.543390 0.783674 0.000000 
0.822174 0.561576 0.000000 
0.768062 0.910229 0.000000 
0.607871 0.875917 0.000000 
0.712542 0.536557 0.000000 
0.866723 0.856634 0.000000 
0.542778 0.670353 0.000000 
0.898681 0.643999 0.000000 
0.657011 0.905650 0.000000 
0.658124 0.551261 0.000000 
0.898749 0.809603 0.000000 
0.536018 0.726790 0.000000 
0.867269 0.595887 0.000000 
0.569191 0.834246 0.000000 
0.769242 0.540790 0.000000 
0.823330 0.893455 0.000000 
0.567873 0.618190 0.000000 
0.915475 0.698354 0.000000 
0.684337 0.912770 0.000000 
0.630526 0.560606 0.000000 
0.906825 0.782054 0.000000 
0.540410 0.754686 0.000000 
0.845729 0.577636 0.000000 
0.740690 0.918298 0.000000 
0.585522 0.857504 0.000000 
0.740913 0.534795 0.000000 
0.845811 0.876035 0.000000 
0.554929 0.644075 0.000000 
0.910851 0.670296 0.000000 
0.632900 0.889922 0.000000 
0.684346 0.540793 0.000000 
0.885776 0.835520 0.000000 
0.538165 0.698381 0.000000 
0.882187 0.620509 0.000000 
0.554941 0.809563 0.000000 
0.797371 0.547685 0.000000 
0.796529 0.904443 0.000000 
0.586945 0.597091 0.000000 
0.917616 0.726800 0.000000 
0.699679 0.906740 0.000000 
0.702321 0.889264 0.000000 
0.689473 0.879031 0.000000 
0.717624 0.883290 0.000000 
0.675564 0.885694 0.000000 
0.673075 0.901964 0.000000 
0.661011 0.877339 0.000000 
0.649248 0.889964 0.000000 
0.691000 0.861988 0.000000 
0.721202 0.866555 0.000000 
0.728865 0.893729 0.000000 
0.744842 0.889846 0.000000 
0.726429 0.910011 0.000000 
0.752348 0.905392 0.000000 
0.677015 0.851861 0.000000 
0.707428 0.855484 0.000000 
0.735929 0.862444 0.000000 
0.569228 0.817775 0.000000 
0.584546 0.808948 0.000000 
0.584529 0.792526 0.000000 
0.598762 0.817169 0.000000 
0.570578 0.785726 0.000000 
0.556303 0.793929 0.000000 
0.567743 0.768724 0.000000 
0.550528 0.767407 0.000000 
0.598805 0.783090 0.000000 
0.614077 0.809530 0.000000 
0.597351 0.832964 0.000000 
0.609070 0.845596 0.000000 
0.583098 0.841213 0.000000 
0.601598 0.861139 0.000000 
0.597985 0.765840 0.000000 
0.614137 0.791871 0.000000 
0.626659 0.821237 0.000000 
0.625785 0.875062 0.000000 
0.633505 0.856204 0.000000 
0.850643 0.860272 0.000000 
0.838618 0.847308 0.000000 
0.822605 0.850978 0.000000 
0.843476 0.831612 0.000000 
0.819281 0.866496 0.000000 
0.830462 0.878593 0.000000 
0.804348 0.875106 0.000000 
0.806894 0.892176 0.000000 
0.810226 0.839154 0.000000 
0.832615 0.818380 0.000000 
0.859200 0.829460 0.000000 
0.868908 0.815208 0.000000 
0.870423 0.841518 0.000000 
0.885738 0.819025 0.000000 
0.793585 0.843773 0.000000 
0.815381 0.822254 0.000000 
0.841238 0.803490 0.000000 
0.547584 0.739854 0.000000 
0.578354 0.739585 0.000000 
0.603036 0.593426 0.000000 
0.615071 0.606388 0.000000 
0.631079 0.602701 0.000000 
0.610220 0.622065 0.000000 
0.634596 0.587583 0.000000 
0.623409 0.575500 0.000000 
0.650535 0.581039 0.000000 
0.647979 0.563954 0.000000 
0.643457 0.614513 0.000000 
0.621068 0.635273 0.000000 
0.594492 0.624218 0.000000 
0.584782 0.638458 0.000000 
0.583242 0.612186 0.000000 
0.567947 0.634659 0.000000 
0.660089 0.609883 0.000000 
0.638298 0.631401 0.000000 
0.615207 0.651522 0.000000 
0.829299 0.576436 0.000000 
0.819355 0.591041 0.000000 
0.826500 0.605826 0.000000 
0.802985 0.589801 0.000000 
0.841917 0.605844 0.000000 
0.851201 0.592257 0.000000 
0.851411 0.619678 0.000000 
0.867473 0.613389 0.000000 
0.817746 0.620525 0.000000 
0.792509 0.603331 0.000000 
0.797386 0.574944 0.000000 
0.781342 0.568645 0.000000 
0.806632 0.561324 0.000000 
0.781313 0.551383 0.000000 
0.825958 0.635710 0.000000 
0.800130 0.619270 0.000000 
0.775368 0.601235 0.000000 
0.908301 0.713192 0.000000 
0.890682 0.714513 0.000000 
0.883579 0.729324 0.000000 
0.881443 0.700932 0.000000 
0.893176 0.741398 0.000000 
0.909593 0.740193 0.000000 
0.888281 0.757454 0.000000 
0.903215 0.766103 0.000000 
0.866628 0.731639 0.000000 
0.864338 0.701174 0.000000 
0.889555 0.687295 0.000000 
0.884468 0.670824 0.000000 
0.905967 0.686039 0.000000 
0.897935 0.660041 0.000000 
0.859877 0.747536 0.000000 
0.856629 0.717071 0.000000 
0.858072 0.685158 0.000000 
0.882166 0.636991 0.000000 
0.867043 0.650654 0.000000 
0.674185 0.554970 0.000000 
0.682719 0.586069 0.000000 
0.753776 0.545097 0.000000 
0.746271 0.560638 0.000000 
0.545330 0.713204 0.000000 
0.561510 0.715640 0.000000 
0.570752 0.702068 0.000000 
0.563767 0.732335 0.000000 
0.564075 0.687324 0.000000 
0.547663 0.686076 0.000000 
0.569159 0.670863 0.000000 
0.555682 0.660101 0.000000 
0.587859 0.702304 0.000000 
0.598983 0.685174 0.000000 
0.593202 0.723125 0.000000 
0.699678 0.546854 0.000000 
0.702316 0.564328 0.000000 
0.717607 0.570309 0.000000 
0.686537 0.570237 0.000000 
0.729085 0.559353 0.000000 
0.726656 0.543072 0.000000 
0.752553 0.577466 0.000000 
0.719620 0.588766 0.000000 
0.737380 0.594636 0.000000 
0.700510 0.598611 0.000000 
0.893926 0.792310 0.000000 
0.873812 0.788996 0.000000 
0.779257 0.898132 0.000000 
0.776301 0.874965 0.000000 
0.660935 0.860551 0.000000 
0.791032 0.864205 0.000000 
0.844209 0.634846 0.000000 
0.580875 0.758274 0.000000 
0.663651 0.591525 0.000000 
0.871932 0.761277 0.000000 
0.739371 0.845480 0.000000 
0.830115 0.790224 0.000000 
0.764919 0.615025 0.000000 
0.642067 0.813347 0.000000 
0.626318 0.664779 0.000000 
0.840774 0.685586 0.000000 
0.678742 0.834639 0.000000 
0.781192 0.831682 0.000000 
0.816950 0.650483 0.000000 
0.612515 0.756444 0.000000 
0.672476 0.621957 0.000000 
0.842707 0.749697 0.000000 
0.748328 0.875296 0.000000 
0.861803 0.802471 0.000000 
0.769800 0.581404 0.000000 
0.623058 0.841501 0.000000 
0.594646 0.652538 0.000000 
0.870090 0.668444 0.000000 
0.728014 0.832589 0.000000 
0.643368 0.661758 0.000000 
0.820949 0.667838 0.000000 
0.806801 0.680629 0.000000 
0.806829 0.696952 0.000000 
0.792669 0.672451 0.000000 
0.825236 0.701078 0.000000 
0.792638 0.706476 0.000000 
0.777325 0.679978 0.000000 
0.798294 0.654448 0.000000 
0.793538 0.723724 0.000000 
0.777268 0.697678 0.000000 
0.762836 0.670580 0.000000 
0.809343 0.735702 0.000000 
0.779054 0.733198 0.000000 
0.747387 0.678381 0.000000 
0.760362 0.650910 0.000000 
0.710798 0.838482 0.000000 
0.732394 0.815953 0.000000 
0.649488 0.644625 0.000000 
0.763599 0.725368 0.000000 
0.717690 0.806029 0.000000 
0.750320 0.815435 0.000000 
0.763380 0.831701 0.000000 
0.749091 0.734829 0.000000 
0.762712 0.707092 0.000000 
0.698611 0.811946 0.000000 
0.750043 0.752126 0.000000 
0.733635 0.726996 0.000000 
0.765499 0.759963 0.000000 
0.735539 0.761588 0.000000 
0.719126 0.736458 0.000000 
0.732747 0.707632 0.000000 
0.780003 0.750496 0.000000 
0.736587 0.780044 0.000000 
0.720081 0.753753 0.000000 
0.705578 0.763213 0.000000 
0.704147 0.780344 0.000000 
0.719696 0.789340 0.000000 
0.683614 0.791016 0.000000 
0.690125 0.755389 0.000000 
0.671645 0.764842 0.000000 
0.689168 0.738096 0.000000 
0.666566 0.783338 0.000000 
0.646031 0.792972 0.000000 
0.650306 0.756302 0.000000 
0.673713 0.730272 0.000000 
0.703665 0.728626 0.000000 
0.653331 0.739025 0.000000 
0.672757 0.712978 0.000000 
0.702711 0.711334 0.000000 
0.655832 0.698721 0.000000 
0.687256 0.703508 0.000000 
0.686313 0.686218 0.000000 
0.672533 0.674450 0.000000 
0.676885 0.653905 0.000000 
0.700818 0.676751 0.000000 
0.695184 0.656754 0.000000 
0.716339 0.682510 0.000000 
0.731865 0.671530 0.000000 
0.771616 0.636267 0.000000 
0.667622 0.820737 0.000000 
0.680079 0.805923 0.000000 
0.693832 0.616142 0.000000 
0.810300 0.791877 0.000000 
0.804183 0.809019 0.000000 
0.796804 0.779432 0.000000 
0.779214 0.784922 0.000000 
0.775166 0.802180 0.000000 
0.756659 0.803767 0.000000 
0.750722 0.787052 0.000000 
0.765130 0.776432 0.000000 
0.610256 0.732417 0.000000 
0.831630 0.763648 0.000000 
0.812080 0.756156 0.000000 
0.717285 0.699801 0.000000 
0.756811 0.845110 0.000000 
0.762596 0.865461 0.000000 
0.617777 0.682497 0.000000 
0.656560 0.677485 0.000000 
0.747320 0.697191 0.000000 
0.744175 0.612365 0.000000 
0.696097 0.827761 0.000000 
0.667031 0.639807 0.000000 
0.840686 0.776347 0.000000 
0.863818 0.776137 0.000000 
0.836515 0.668671 0.000000 
0.850766 0.650453 0.000000 
0.629877 0.765027 0.000000 
0.653228 0.826738 0.000000 
0.648267 0.849331 0.000000 
0.786639 0.813828 0.000000 
0.827655 0.733275 0.000000 
0.797225 0.761475 0.000000 
0.789686 0.638416 0.000000 
0.630680 0.783203 0.000000 
0.834824 0.716547 0.000000 
0.742896 0.643347 0.000000 
0.729848 0.656165 0.000000 
0.733405 0.626043 0.000000 
0.708686 0.647147 0.000000 
0.586961 0.668476 0.000000 
0.710205 0.627783 0.000000 
0.640916 0.715846 0.000000 
0.623695 0.708913 0.000000 
VECTORS X_EC float 
-0.269459 0.179201 0.000000 
0.520647 0.083547 0.000000 
0.971710 0.262012 0.000000 
0.397512 0.795340 0.000000 
0.839312 0.371679 0.000000 
-0.132343 -0.711065 0.000000 
0.552624 0.085524 0.000000 
-0.658740 0.178507 0.000000 
0.941558 -0.739132 0.000000 
0.665736 0.781728 0.000000 
-0.808696 -0.098349 0.000000 
-0.042158 -0.931282 0.000000 
-0.952680 -0.910678 0.000000 
-0.118830 -0.098963 0.000000 
-0.464436 0.647614 0.000000 
0.153212 -0.726319 0.000000 
-0.613889 -0.687929 0.000000 
-0.744658 -0.686613 0.000000 
0.203869 0.393501 0.000000 
-0.289696 -0.715847 0.000000 
0.104416 0.236934 0.000000 
-0.184438 -0.384697 0.000000 
0.860801 0.537147 0.000000 
0.431708 0.062850 0.000000 
0.977326 0.735813 0.000000 
0.518197 0.842639 0.000000 
-0.293767 0.741755 0.000000 
0.920932 -0.361368 0.000000 
-0.624153 0.746609 0.000000 
0.553168 0.842681 0.000000 
-0.807991 -0.975465 0.000000 
0.665395 0.144620 0.000000 
0.272396 0.586397 0.000000 
-0.743718 -0.385654 0.000000 
-0.636530 -0.357990 0.000000 
0.104535 0.689785 0.000000 
-0.339060 -0.428023 0.000000 
-0.120107 -0.973276 0.000000 
-0.882965 -0.124154 0.000000 
-0.016515 -0.141967 0.000000 
0.132597 -0.334680 0.000000 
-0.464202 0.279527 0.000000 
-0.063455 -0.078116 0.000000 
0.286107 -0.025451 0.000000 
0.490762 -0.282427 0.000000 
0.405776 0.280389 0.000000 
0.357390 -0.560499 0.000000 
0.031757 -0.610102 0.000000 
0.524538 -0.851605 0.000000 
0.271764 0.913295 0.000000 
0.831781 -0.252055 0.000000 
0.740548 0.351822 0.000000 
0.197121 0.505167 0.000000 
0.275013 0.824538 0.000000 
-0.128554 0.456674 0.000000 
-0.035677 0.974703 0.000000 
-0.965535 -0.531808 0.000000 
0.961873 0.076358 0.000000 
0.822963 0.646160 0.000000 
-0.284310 -0.687533 0.000000 
-0.107508 -0.381720 0.000000 
0.220933 -0.382288 0.000000 
-0.271911 -0.097417 0.000000 
0.356781 -0.661079 0.000000 
0.192543 -0.946253 0.000000 
0.696816 -0.717835 0.000000 
0.722990 0.938097 0.000000 
0.409795 -0.097050 0.000000 
-0.119009 0.208603 0.000000 
-0.588004 -0.125305 0.000000 
-0.840541 0.109194 0.000000 
-0.753203 -0.409886 0.000000 
0.848245 -0.039995 0.000000 
0.754769 -0.113423 0.000000 
0.234255 0.209540 0.000000 
-0.353151 0.460433 0.000000 
0.569681 0.443960 0.000000 
0.947405 0.598103 0.000000 
0.868401 0.939027 0.000000 
-0.872403 0.698305 0.000000 
-0.946200 0.378174 0.000000 
-0.558795 0.795232 0.000000 
0.743200 0.312004 0.000000 
0.501551 0.535780 0.000000 
0.570652 0.013756 0.000000 
0.229021 0.064940 0.000000 
-0.709892 0.130550 0.000000 
-0.294444 0.578207 0.000000 
-0.515776 -0.890240 0.000000 
-0.230927 -0.696008 0.000000 
-0.756487 -0.665288 0.000000 
-0.307089 -0.359321 0.000000 
-0.802579 -0.201855 0.000000 