# vtk DataFile Version 3.0 
vtk output 
ASCII 
DATASET UNSTRUCTURED_GRID 
POINTS 616 float 
0.273689 0.478422 0.000000 
0.169224 0.138983 0.000000 
0.477991 0.316498 0.000000 
0.104545 0.344918 0.000000 
0.383553 0.122968 0.000000 
0.329209 0.471588 0.000000 
0.168969 0.437265 0.000000 
0.273866 0.097895 0.000000 
0.427384 0.417461 0.000000 
0.104080 0.231526 0.000000 
0.460040 0.205444 0.000000 
0.218150 0.467034 0.000000 
0.219491 0.112672 0.000000 
0.459887 0.370997 0.000000 
0.097235 0.287992 0.000000 
0.428643 0.157300 0.000000 
0.130305 0.395539 0.000000 
0.330582 0.102156 0.000000 
0.384436 0.454741 0.000000 
0.129261 0.179400 0.000000 
0.476762 0.259831 0.000000 
0.245487 0.474159 0.000000 
0.191902 0.122015 0.000000 
0.468015 0.343494 0.000000 
0.101590 0.315905 0.000000 
0.407111 0.139031 0.000000 
0.301823 0.479650 0.000000 
0.146621 0.418828 0.000000 
0.302230 0.096146 0.000000 
0.406742 0.437112 0.000000 
0.116272 0.205258 0.000000 
0.472171 0.231761 0.000000 
0.194020 0.451293 0.000000 
0.245697 0.102170 0.000000 
0.446858 0.396806 0.000000 
0.099415 0.259564 0.000000 
0.443551 0.181936 0.000000 
0.116068 0.370826 0.000000 
0.358733 0.109076 0.000000 
0.357682 0.465794 0.000000 
0.148316 0.158338 0.000000 
0.478866 0.288280 0.000000 
0.260820 0.468117 0.000000 
0.263454 0.450642 0.000000 
0.250601 0.440405 0.000000 
0.278751 0.444665 0.000000 
0.236693 0.447067 0.000000 
0.234213 0.463345 0.000000 
0.222133 0.438705 0.000000 
0.210375 0.451337 0.000000 
0.252121 0.423357 0.000000 
0.282325 0.427930 0.000000 
0.289993 0.455102 0.000000 
0.305964 0.451210 0.000000 
0.287566 0.471383 0.000000 
0.313479 0.466748 0.000000 
0.238127 0.413219 0.000000 
0.268548 0.416859 0.000000 
0.297048 0.423815 0.000000 
0.130347 0.379055 0.000000 
0.145652 0.370228 0.000000 
0.145645 0.353802 0.000000 
0.159859 0.378465 0.000000 
0.131712 0.346991 0.000000 
0.117440 0.355189 0.000000 
0.128896 0.329980 0.000000 
0.111692 0.328646 0.000000 
0.159922 0.344375 0.000000 
0.175173 0.370835 0.000000 
0.158444 0.394270 0.000000 
0.170163 0.406913 0.000000 
0.144202 0.402519 0.000000 
0.162693 0.422476 0.000000 
0.159126 0.327123 0.000000 
0.175243 0.353172 0.000000 
0.187752 0.382555 0.000000 
0.186896 0.436424 0.000000 
0.194606 0.417543 0.000000 
0.411463 0.421261 0.000000 
0.399469 0.408370 0.000000 
0.383508 0.412108 0.000000 
0.404348 0.392704 0.000000 
0.380263 0.427694 0.000000 
0.391490 0.439802 0.000000 
0.365391 0.436365 0.000000 
0.368000 0.453487 0.000000 
0.371146 0.400310 0.000000 
0.393548 0.379533 0.000000 
0.420141 0.390620 0.000000 
0.429924 0.376454 0.000000 
0.431399 0.402692 0.000000 
0.446813 0.380343 0.000000 
0.354551 0.404979 0.000000 
0.376337 0.383430 0.000000 
0.402210 0.364666 0.000000 
0.108773 0.301071 0.000000 
0.139534 0.300842 0.000000 
0.164389 0.154723 0.000000 
0.176402 0.167684 0.000000 
0.192408 0.164036 0.000000 
0.171539 0.183358 0.000000 
0.195940 0.148954 0.000000 
0.184770 0.136856 0.000000 
0.211881 0.142416 0.000000 
0.209342 0.125359 0.000000 
0.204778 0.175854 0.000000 
0.182393 0.196589 0.000000 
0.155823 0.185485 0.000000 
0.146112 0.199705 0.000000 
0.144610 0.173429 0.000000 
0.129291 0.195870 0.000000 
0.221410 0.171227 0.000000 
0.199620 0.192742 0.000000 
0.176513 0.212823 0.000000 
0.390673 0.137824 0.000000 
0.380707 0.152406 0.000000 
0.387841 0.167187 0.000000 
0.364326 0.151156 0.000000 
0.403264 0.167216 0.000000 
0.412570 0.153649 0.000000 
0.412752 0.181057 0.000000 
0.428834 0.174796 0.000000 
0.379068 0.181871 0.000000 
0.353838 0.164673 0.000000 
0.358733 0.136311 0.000000 
0.342681 0.130007 0.000000 
0.367994 0.122709 0.000000 
0.342660 0.112755 0.000000 
0.387270 0.197050 0.000000 
0.361447 0.180609 0.000000 
0.336692 0.162575 0.000000 
0.469571 0.274659 0.000000 
0.451947 0.275950 0.000000 
0.444824 0.290744 0.000000 
0.442718 0.262353 0.000000 
0.454404 0.302828 0.000000 
0.470821 0.301653 0.000000 
0.449480 0.318858 0.000000 
0.464416 0.327538 0.000000 
0.427866 0.293027 0.000000 
0.425603 0.262566 0.000000 
0.450851 0.248729 0.000000 
0.445781 0.232248 0.000000 
0.467271 0.247498 0.000000 
0.459272 0.221486 0.000000 
0.421087 0.308897 0.000000 
0.417875 0.278445 0.000000 
0.419351 0.246539 0.000000 
0.443519 0.198409 0.000000 
0.428365 0.212048 0.000000 
0.235536 0.116353 0.000000 
0.244049 0.147423 0.000000 
0.315101 0.106445 0.000000 
0.307588 0.121977 0.000000 
0.106564 0.274405 0.000000 
0.122739 0.276870 0.000000 
0.131999 0.263308 0.000000 
0.124966 0.293571 0.000000 
0.125345 0.248547 0.000000 
0.108936 0.247267 0.000000 
0.130452 0.232088 0.000000 
0.116998 0.221294 0.000000 
0.149107 0.263572 0.000000 
0.160252 0.246458 0.000000 
0.154416 0.284402 0.000000 
0.261012 0.108203 0.000000 
0.263643 0.125673 0.000000 
0.278925 0.131648 0.000000 
0.247872 0.131596 0.000000 
0.290402 0.120690 0.000000 
0.287973 0.104405 0.000000 
0.313872 0.138807 0.000000 
0.280936 0.150104 0.000000 
0.298690 0.155970 0.000000 
0.261830 0.159954 0.000000 
0.455074 0.353701 0.000000 
0.434915 0.350316 0.000000 
0.340384 0.459475 0.000000 
0.337378 0.436274 0.000000 
0.222048 0.421905 0.000000 
0.352058 0.425461 0.000000 
0.405528 0.196201 0.000000 
0.142033 0.319539 0.000000 
0.224983 0.152881 0.000000 
0.433108 0.322638 0.000000 
0.300482 0.406852 0.000000 
0.391149 0.351445 0.000000 
0.326234 0.176366 0.000000 
0.203162 0.374673 0.000000 
0.187612 0.226099 0.000000 
0.402039 0.246936 0.000000 
0.239845 0.395989 0.000000 
0.342206 0.392934 0.000000 
0.378239 0.211823 0.000000 
0.173668 0.317746 0.000000 
0.233796 0.183302 0.000000 
0.403902 0.311021 0.000000 
0.309441 0.436655 0.000000 
0.422831 0.363717 0.000000 
0.331128 0.142753 0.000000 
0.184151 0.402824 0.000000 
0.155952 0.213809 0.000000 
0.431395 0.229844 0.000000 
0.289130 0.393957 0.000000 
0.204666 0.223100 0.000000 
0.382222 0.229178 0.000000 
0.368052 0.241966 0.000000 
0.368060 0.258290 0.000000 
0.353927 0.233786 0.000000 
0.386474 0.262416 0.000000 
0.353855 0.267808 0.000000 
0.338575 0.241314 0.000000 
0.359575 0.215783 0.000000 
0.354738 0.285045 0.000000 
0.338494 0.259012 0.000000 
0.324100 0.231920 0.000000 
0.370542 0.297024 0.000000 
0.340239 0.294516 0.000000 
0.308642 0.239722 0.000000 
0.321653 0.212254 0.000000 
0.271910 0.399851 0.000000 
0.293508 0.377312 0.000000 
0.210804 0.205966 0.000000 
0.324788 0.286690 0.000000 
0.278806 0.367393 0.000000 
0.311417 0.376774 0.000000 
0.324440 0.393006 0.000000 
0.310264 0.296150 0.000000 
0.323927 0.268424 0.000000 
0.259721 0.373308 0.000000 
0.311192 0.313443 0.000000 
0.294820 0.288325 0.000000 
0.326640 0.321272 0.000000 
0.296685 0.322919 0.000000 
0.280305 0.297792 0.000000 
0.293967 0.268971 0.000000 
0.341162 0.311803 0.000000 
0.297717 0.341384 0.000000 
0.281236 0.315088 0.000000 
0.266727 0.324559 0.000000 
0.265277 0.341698 0.000000 
0.280819 0.350693 0.000000 
0.244728 0.352363 0.000000 
0.251281 0.316730 0.000000 
0.232788 0.326182 0.000000 
0.250347 0.299436 0.000000 
0.227686 0.344676 0.000000 
0.207135 0.354299 0.000000 
0.211459 0.317637 0.000000 
0.234909 0.291613 0.000000 
0.264863 0.289967 0.000000 
0.214507 0.300362 0.000000 
0.233986 0.274322 0.000000 
0.263941 0.272680 0.000000 
0.217087 0.260066 0.000000 
0.248502 0.264856 0.000000 
0.247580 0.247567 0.000000 
0.233814 0.235796 0.000000 
0.238190 0.215252 0.000000 
0.262095 0.238102 0.000000 
0.256485 0.218105 0.000000 
0.277603 0.243859 0.000000 
0.293136 0.232878 0.000000 
0.332924 0.197609 0.000000 
0.228725 0.382080 0.000000 
0.241186 0.367273 0.000000 
0.255150 0.177488 0.000000 
0.371349 0.353113 0.000000 
0.365196 0.370237 0.000000 
0.357897 0.340699 0.000000 
0.340307 0.346208 0.000000 
0.336232 0.363463 0.000000 
0.317750 0.365090 0.000000 
0.311835 0.348380 0.000000 
0.326247 0.337739 0.000000 
0.171450 0.293720 0.000000 
0.392766 0.324932 0.000000 
0.373236 0.317450 0.000000 
0.278527 0.261147 0.000000 
0.317884 0.406440 0.000000 
0.323678 0.426787 0.000000 
0.179051 0.243808 0.000000 
0.217838 0.238829 0.000000 
0.308549 0.258528 0.000000 
0.305488 0.173707 0.000000 
0.257209 0.389125 0.000000 
0.228352 0.201152 0.000000 
0.401770 0.337595 0.000000 
0.424938 0.337447 0.000000 
0.397793 0.230014 0.000000 
0.412074 0.211820 0.000000 
0.191017 0.326345 0.000000 
0.214327 0.388072 0.000000 
0.209370 0.410669 0.000000 
0.347669 0.375079 0.000000 
0.388871 0.294604 0.000000 
0.358362 0.322764 0.000000 
0.350987 0.199752 0.000000 
0.191795 0.344519 0.000000 
0.396056 0.277884 0.000000 
0.304199 0.204696 0.000000 
0.291138 0.217516 0.000000 
0.294723 0.187395 0.000000 
0.269997 0.208500 0.000000 
0.148251 0.229735 0.000000 
0.271523 0.189134 0.000000 
0.202141 0.277186 0.000000 
0.184939 0.270239 0.000000 
0.697611 0.902110 0.000000 
0.593244 0.562870 0.000000 
0.901858 0.740230 0.000000 
0.528425 0.768646 0.000000 
0.807464 0.546649 0.000000 
0.753076 0.895254 0.000000 
0.592905 0.860963 0.000000 
0.697794 0.521552 0.000000 
0.851694 0.841685 0.000000 
0.527917 0.655252 0.000000 
0.883916 0.629176 0.000000 
0.642061 0.890702 0.000000 
0.643350 0.536288 0.000000 
0.883739 0.794748 0.000000 
0.521132 0.711721 0.000000 
0.852551 0.581015 0.000000 
0.554211 0.819262 0.000000 
0.754512 0.525826 0.000000 
0.808301 0.878452 0.000000 
0.553126 0.603184 0.000000 
0.900642 0.683563 0.000000 
0.669403 0.897834 0.000000 
0.615770 0.545673 0.000000 
0.891862 0.767227 0.000000 
0.525485 0.739639 0.000000 
0.831022 0.562732 0.000000 
0.725726 0.903327 0.000000 
0.570556 0.842542 0.000000 
0.726174 0.519809 0.000000 
0.830782 0.861053 0.000000 
0.540111 0.629003 0.000000 
0.896044 0.655491 0.000000 
0.617940 0.874973 0.000000 
0.669576 0.525794 0.000000 
0.870751 0.820613 0.000000 
0.523293 0.683301 0.000000 
0.867448 0.605666 0.000000 
0.539944 0.794553 0.000000 
0.782648 0.532742 0.000000 
0.781520 0.889451 0.000000 
0.572598 0.582515 0.000000 
0.902745 0.712007 0.000000 
0.684742 0.891801 0.000000 
0.687380 0.874330 0.000000 
0.674527 0.864096 0.000000 
[...]
POINT_DATA 616 
VECTORS X_GC float 
0.273689 0.478422 0.000000 
0.169224 0.138983 0.000000 
0.477991 0.316498 0.000000 
0.104545 0.344918 0.000000 
0.383553 0.122968 0.000000 
0.329209 0.471588 0.000000 
0.168969 0.437265 0.000000 
0.273866 0.097895 0.000000 
0.427384 0.417461 0.000000 
0.104080 0.231526 0.000000 
0.460040 0.205444 0.000000 
0.218150 0.467034 0.000000 
0.219491 0.112672 0.000000 
0.459887 0.370997 0.000000 
0.097235 0.287992 0.000000 
0.428643 0.157300 0.000000 
0.130305 0.395539 0.000000 
0.330582 0.102156 0.000000 
0.384436 0.454741 0.000000 
0.129261 0.179400 0.000000 
0.476762 0.259831 0.000000 
0.245487 0.474159 0.000000 
0.191902 0.122015 0.000000 
0.468015 0.343494 0.000000 
0.101590 0.315905 0.000000 
0.407111 0.139031 0.000000 
0.301823 0.479650 0.000000 
0.146621 0.418828 0.000000 
0.302230 0.096146 0.000000 
0.406742 0.437112 0.000000 
0.116272 0.205258 0.000000 
0.472171 0.231761 0.000000 
0.194020 0.451293 0.000000 
0.245697 0.102170 0.000000 
0.446858 0.396806 0.000000 
0.099415 0.259564 0.000000 
0.443551 0.181936 0.000000 
0.116068 0.370826 0.000000 
0.358733 0.109076 0.000000 
0.357682 0.465794 0.000000 
0.148316 0.158338 0.000000 
0.478866 0.288280 0.000000 
0.260820 0.468117 0.000000 
0.263454 0.450642 0.000000 
0.250601 0.440405 0.000000 
0.278751 0.444665 0.000000 
0.236693 0.447067 0.000000 
0.234213 0.463345 0.000000 
0.222133 0.438705 0.000000 
0.210375 0.451337 0.000000 
0.252121 0.423357 0.000000 
0.282325 0.427930 0.000000 
0.289993 0.455102 0.000000 
0.305964 0.451210 0.000000 
0.287566 0.471383 0.000000 
0.313479 0.466748 0.000000 
0.238127 0.413219 0.000000 
0.268548 0.416859 0.000000 
0.297048 0.423815 0.000000 
0.130347 0.379055 0.000000 
0.145652 0.370228 0.000000 
0.145645 0.353802 0.000000 
0.159859 0.378465 0.000000 
0.131712 0.346991 0.000000 
0.117440 0.355189 0.000000 
0.128896 0.329980 0.000000 
0.111692 0.328646 0.000000 
0.159922 0.344375 0.000000 
0.175173 0.370835 0.000000 
0.158444 0.394270 0.000000 
0.170163 0.406913 0.000000 
0.144202 0.402519 0.000000 
0.162693 0.422476 0.000000 
0.159126 0.327123 0.000000 
0.175243 0.353172 0.000000 
0.187752 0.382555 0.000000 
0.186896 0.436424 0.000000 
0.194606 0.417543 0.000000 
0.411463 0.421261 0.000000 
0.399469 0.408370 0.000000 
0.383508 0.412108 0.000000 
0.404348 0.392704 0.000000 
0.380263 0.427694 0.000000 
0.391490 0.439802 0.000000 
0.365391 0.436365 0.000000 
0.368000 0.453487 0.000000 
0.371146 0.400310 0.000000 
0.393548 0.379533 0.000000 
0.420141 0.390620 0.000000 
0.429924 0.376454 0.000000 
0.431399 0.402692 0.000000 
0.446813 0.380343 0.000000 
0.354551 0.404979 0.000000 
0.376337 0.383430 0.000000 
0.402210 0.364666 0.000000 
0.108773 0.301071 0.000000 
0.139534 0.300842 0.000000 
0.164389 0.154723 0.000000 
0.176402 0.167684 0.000000 
0.192408 0.164036 0.000000 
0.171539 0.183358 0.000000 
0.195940 0.148954 0.000000 
0.184770 0.136856 0.000000 
0.211881 0.142416 0.000000 
0.209342 0.125359 0.000000 
0.204778 0.175854 0.000000 
0.182393 0.196589 0.000000 
0.155823 0.185485 0.000000 
0.146112 0.199705 0.000000 
0.144610 0.173429 0.000000 
0.129291 0.195870 0.000000 
0.221410 0.171227 0.000000 
0.199620 0.192742 0.000000 
0.176513 0.212823 0.000000 
0.390673 0.137824 0.000000 
0.380707 0.152406 0.000000 
0.387841 0.167187 0.000000 
0.364326 0.151156 0.000000 
0.403264 0.167216 0.000000 
0.412570 0.153649 0.000000 
0.412752 0.181057 0.000000 
0.428834 0.174796 0.000000 
0.379068 0.181871 0.000000 
0.353838 0.164673 0.000000 
0.358733 0.136311 0.000000 
0.342681 0.130007 0.000000 
0.367994 0.122709 0.000000 
0.342660 0.112755 0.000000 
0.387270 0.197050 0.000000 
0.361447 0.180609 0.000000 
0.336692 0.162575 0.000000 
0.469571 0.274659 0.000000 
0.451947 0.275950 0.000000 
0.444824 0.290744 0.000000 
0.442718 0.262353 0.000000 
0.454404 0.302828 0.000000 
0.470821 0.301653 0.000000 
0.449480 0.318858 0.000000 
0.464416 0.327538 0.000000 
0.427866 0.293027 0.000000 
0.425603 0.262566 0.000000 
0.450851 0.248729 0.000000 
0.445781 0.232248 0.000000 
0.467271 0.247498 0.000000 
0.459272 0.221486 0.000000 
0.421087 0.308897 0.000000 
0.417875 0.278445 0.000000 
0.419351 0.246539 0.000000 
0.443519 0.198409 0.000000 
0.428365 0.212048 0.000000 
0.235536 0.116353 0.000000 
0.244049 0.147423 0.000000 
0.315101 0.106445 0.000000 
0.307588 0.121977 0.000000 
0.106564 0.274405 0.000000 
0.122739 0.276870 0.000000 
0.131999 0.263308 0.000000 
0.124966 0.293571 0.000000 
0.125345 0.248547 0.000000 
0.108936 0.247267 0.000000 
0.130452 0.232088 0.000000 
0.116998 0.221294 0.000000 
0.149107 0.263572 0.000000 
0.160252 0.246458 0.000000 
0.154416 0.284402 0.000000 
0.261012 0.108203 0.000000 
0.263643 0.125673 0.000000 
0.278925 0.131648 0.000000 
0.247872 0.131596 0.000000 
0.290402 0.120690 0.000000 
0.287973 0.104405 0.000000 
0.313872 0.138807 0.000000 
0.280936 0.150104 0.000000 
0.298690 0.155970 0.000000 
0.261830 0.159954 0.000000 
0.455074 0.353701 0.000000 
0.434915 0.350316 0.000000 
0.340384 0.459475 0.000000 
0.337378 0.436274 0.000000 
0.222048 0.421905 0.000000 
0.352058 0.425461 0.000000 
0.405528 0.196201 0.000000 
0.142033 0.319539 0.000000 
0.224983 0.152881 0.000000 
0.433108 0.322638 0.000000 
0.300482 0.406852 0.000000 
0.391149 0.351445 0.000000 
0.326234 0.176366 0.000000 
0.203162 0.374673 0.000000 
0.187612 0.226099 0.000000 
0.402039 0.246936 0.000000 
0.239845 0.395989 0.000000 
0.342206 0.392934 0.000000 
0.378239 0.211823 0.000000 
0.173668 0.317746 0.000000 
0.233796 0.183302 0.000000 
0.403902 0.311021 0.000000 
0.309441 0.436655 0.000000 
0.422831 0.363717 0.000000 
0.331128 0.142753 0.000000 
0.184151 0.402824 0.000000 
0.155952 0.213809 0.000000 
0.431395 0.229844 0.000000 
0.289130 0.393957 0.000000 
0.204666 0.223100 0.000000 
0.382222 0.229178 0.000000 
0.368052 0.241966 0.000000 
0.368060 0.258290 0.000000 
0.353927 0.233786 0.000000 
0.386474 0.262416 0.000000 
0.353855 0.267808 0.000000 
0.338575 0.241314 0.000000 
0.359575 0.215783 0.000000 
0.354738 0.285045 0.000000 
0.338494 0.259012 0.000000 
0.324100 0.231920 0.000000 
0.370542 0.297024 0.000000 
0.340239 0.294516 0.000000 
0.308642 0.239722 0.000000 
0.321653 0.212254 0.000000 
0.271910 0.399851 0.000000 
0.293508 0.377312 0.000000 
0.210804 0.205966 0.000000 
0.324788 0.286690 0.000000 
0.278806 0.367393 0.000000 
0.311417 0.376774 0.000000 
0.324440 0.393006 0.000000 
0.310264 0.296150 0.000000 
0.323927 0.268424 0.000000 
0.259721 0.373308 0.000000 
0.311192 0.313443 0.000000 
0.294820 0.288325 0.000000 
0.326640 0.321272 0.000000 
0.296685 0.322919 0.000000 
0.280305 0.297792 0.000000 
0.293967 0.268971 0.000000 
0.341162 0.311803 0.000000 
0.297717 0.341384 0.000000 
0.281236 0.315088 0.000000 
0.266727 0.324559 0.000000 
0.265277 0.341698 0.000000 
0.280819 0.350693 0.000000 
0.244728 0.352363 0.000000 
0.251281 0.316730 0.000000 
0.232788 0.326182 0.000000 
0.250347 0.299436 0.000000 
0.227686 0.344676 0.000000 
0.207135 0.354299 0.000000 
0.211459 0.317637 0.000000 
0.234909 0.291613 0.000000 
0.264863 0.289967 0.000000 
0.214507 0.300362 0.000000 
0.233986 0.274322 0.000000 
0.263941 0.272680 0.000000 
0.217087 0.260066 0.000000 
0.248502 0.264856 0.000000 
0.247580 0.247567 0.000000 
0.233814 0.235796 0.000000 
0.238190 0.215252 0.000000 
0.262095 0.238102 0.000000 
0.256485 0.218105 0.000000 
0.277603 0.243859 0.000000 
0.293136 0.232878 0.000000 
0.332924 0.197609 0.000000 
0.228725 0.382080 0.000000 
0.241186 0.367273 0.000000 
0.255150 0.177488 0.000000 
0.371349 0.353113 0.000000 
0.365196 0.370237 0.000000 
0.357897 0.340699 0.000000 
0.340307 0.346208 0.000000 
0.336232 0.363463 0.000000 
0.317750 0.365090 0.000000 
0.311835 0.348380 0.000000 
0.326247 0.337739 0.000000 
0.171450 0.293720 0.000000 
0.392766 0.324932 0.000000 
0.373236 0.317450 0.000000 
0.278527 0.261147 0.000000 
0.317884 0.406440 0.000000 
0.323678 0.426787 0.000000 
0.179051 0.243808 0.000000 
0.217838 0.238829 0.000000 
0.308549 0.258528 0.000000 
0.305488 0.173707 0.000000 
0.257209 0.389125 0.000000 
0.228352 0.201152 0.000000 
0.401770 0.337595 0.000000 
0.424938 0.337447 0.000000 
0.397793 0.230014 0.000000 
0.412074 0.211820 0.000000 
0.191017 0.326345 0.000000 
0.214327 0.388072 0.000000 
0.209370 0.410669 0.000000 
0.347669 0.375079 0.000000 
0.388871 0.294604 0.000000 
0.358362 0.322764 0.000000 
0.350987 0.199752 0.000000 
0.191795 0.344519 0.000000 
0.396056 0.277884 0.000000 
0.304199 0.204696 0.000000 
0.291138 0.217516 0.000000 
0.294723 0.187395 0.000000 
0.269997 0.208500 0.000000 
0.148251 0.229735 0.000000 
0.271523 0.189134 0.000000 
0.202141 0.277186 0.000000 
0.184939 0.270239 0.000000 
0.697611 0.902110 0.000000 
0.593244 0.562870 0.000000 
0.901858 0.740230 0.000000 
0.528425 0.768646 0.000000 
0.807464 0.546649 0.000000 
0.753076 0.895254 0.000000 
0.592905 0.860963 0.000000 
0.697794 0.521552 0.000000 
0.851694 0.841685 0.000000 
0.527917 0.655252 0.000000 
0.883916 0.629176 0.000000 
0.642061 0.890702 0.000000 
0.643350 0.536288 0.000000 
0.883739 0.794748 0.000000 
0.521132 0.711721 0.000000 
0.852551 0.581015 0.000000 
0.554211 0.819262 0.000000 
0.754512 0.525826 0.000000 
0.808301 0.878452 0.000000 
0.553126 0.603184 0.000000 
0.900642 0.683563 0.000000 
0.669403 0.897834 0.000000 
0.615770 0.545673 0.000000 
0.891862 0.767227 0.000000 
0.525485 0.739639 0.000000 
0.831022 0.562732 0.000000 
0.725726 0.903327 0.000000 
0.570556 0.842542 0.000000 
0.726174 0.519809 0.000000 
0.830782 0.861053 0.000000 
0.540111 0.629003 0.000000 
0.896044 0.655491 0.000000 
0.617940 0.874973 0.000000 
0.669576 0.525794 0.000000 
0.870751 0.820613 0.000000 
0.523293 0.683301 0.000000 
0.867448 0.605666 0.000000 
0.539944 0.794553 0.000000 
0.782648 0.532742 0.000000 
0.781520 0.889451 0.000000 
0.572598 0.582515 0.000000 
0.902745 0.712007 0.000000 
0.684742 0.891801 0.000000 
0.687380 0.874330 0.000000 
0.674527 0.864096 0.000000 
0.702680 0.868356 0.000000 
0.660616 0.870755 0.000000 
0.658130 0.887023 0.000000 
0.646057 0.862399 0.000000 
0.634292 0.875019 0.000000 
0.676050 0.847054 0.000000 
0.706251 0.851617 0.000000 
0.713914 0.878787 0.000000 
0.729877 0.874894 0.000000 
0.711485 0.895070 0.000000 
0.737378 0.890431 0.000000 
0.662060 0.836926 0.000000 
0.692478 0.840552 0.000000 
0.720968 0.847497 0.000000 
0.554235 0.802787 0.000000 
0.569558 0.793970 0.000000 
0.569554 0.777544 0.000000 
0.583778 0.802213 0.000000 
0.555611 0.770728 0.000000 
0.541324 0.778919 0.000000 
0.552799 0.753717 0.000000 
0.535585 0.752379 0.000000 
0.583843 0.768121 0.000000 
0.599109 0.794592 0.000000 
0.582373 0.818009 0.000000 
0.594100 0.830648 0.000000 
0.568123 0.826246 0.000000 
0.586630 0.846191 0.000000 
0.583047 0.750868 0.000000 
0.599177 0.776926 0.000000 
0.611692 0.806303 0.000000 
0.610821 0.860115 0.000000 
0.618542 0.841263 0.000000 
0.835618 0.845308 0.000000 
0.823602 0.832348 0.000000 
0.807593 0.836003 0.000000 
0.828465 0.816669 0.000000 
0.804264 0.851509 0.000000 
0.815436 0.863603 0.000000 
0.789338 0.860120 0.000000 
0.791875 0.877183 0.000000 
0.795223 0.824181 0.000000 
0.817613 0.803437 0.000000 
0.844186 0.814535 0.000000 
0.853897 0.800310 0.000000 
0.855400 0.826590 0.000000 
0.870720 0.804141 0.000000 
0.778590 0.828802 0.000000 
0.800382 0.807290 0.000000 
0.826252 0.788568 0.000000 
0.532680 0.724809 0.000000 
0.563451 0.724583 0.000000 
0.588517 0.578717 0.000000 
0.600501 0.591604 0.000000 
0.616470 0.587873 0.000000 
0.595624 0.607269 0.000000 
0.619930 0.572710 0.000000 
0.608709 0.560613 0.000000 
0.635835 0.566127 0.000000 
0.633234 0.549012 0.000000 
0.628831 0.599668 0.000000 
0.606426 0.620441 0.000000 
0.579837 0.609362 0.000000 
0.570062 0.623532 0.000000 
0.568578 0.597288 0.000000 
0.553178 0.619650 0.000000 
0.645436 0.595005 0.000000 
0.623643 0.616549 0.000000 
0.600524 0.636669 0.000000 
0.814586 0.561520 0.000000 
0.804633 0.576123 0.000000 
0.811770 0.590923 0.000000 
0.788255 0.574866 0.000000 
0.827187 0.590958 0.000000 
0.836484 0.577367 0.000000 
0.836674 0.604806 0.000000 
0.852741 0.598532 0.000000 
0.803009 0.605621 0.000000 
0.777774 0.588393 0.000000 
0.782658 0.560005 0.000000 
0.766611 0.553693 0.000000 
0.791909 0.546387 0.000000 
0.766585 0.536428 0.000000 
0.811204 0.620813 0.000000 
0.785388 0.604348 0.000000 
0.760631 0.586285 0.000000 
0.893460 0.698397 0.000000 
0.875845 0.699695 0.000000 
0.868716 0.714490 0.000000 
0.866618 0.686101 0.000000 
0.878290 0.726573 0.000000 
0.894704 0.725390 0.000000 
0.873367 0.742614 0.000000 
0.888283 0.751280 0.000000 
0.851762 0.716780 0.000000 
0.849514 0.686321 0.000000 
0.874744 0.672472 0.000000 
0.869674 0.655991 0.000000 
0.891152 0.671232 0.000000 
0.883152 0.645221 0.000000 
0.844984 0.732662 0.000000 
0.841789 0.702205 0.000000 
0.843265 0.670296 0.000000 
0.867409 0.622151 0.000000 
0.852272 0.635800 0.000000 
0.659425 0.539991 0.000000 
0.667999 0.571116 0.000000 
0.739040 0.530122 0.000000 
0.731532 0.545661 0.000000 
0.530463 0.698143 0.000000 
0.546640 0.700606 0.000000 
0.555897 0.687052 0.000000 
0.548874 0.717310 0.000000 
0.549233 0.672296 0.000000 
0.532803 0.671004 0.000000 
0.554345 0.655852 0.000000 
0.540853 0.645039 0.000000 
0.573012 0.687319 0.000000 
0.584186 0.670239 0.000000 
0.578322 0.708141 0.000000 
0.684925 0.531854 0.000000 
0.687569 0.549334 0.000000 
0.702860 0.555314 0.000000 
0.671797 0.555264 0.000000 
0.714342 0.544364 0.000000 
0.711913 0.528077 0.000000 
0.737814 0.562496 0.000000 
0.704874 0.573777 0.000000 
0.722637 0.579660 0.000000 
0.685775 0.583635 0.000000 
0.878949 0.777463 0.000000 
0.858844 0.774123 0.000000 
0.764261 0.883155 0.000000 
0.761311 0.859995 0.000000 
0.645978 0.845613 0.000000 
0.776033 0.849229 0.000000 
0.829455 0.619967 0.000000 
0.565946 0.743280 0.000000 
0.648961 0.576610 0.000000 
0.857014 0.746414 0.000000 
0.724405 0.830532 0.000000 
0.815153 0.775293 0.000000 
0.750178 0.600080 0.000000 
0.627101 0.798415 0.000000 
0.611593 0.649897 0.000000 
0.825967 0.670704 0.000000 
0.663783 0.819707 0.000000 
0.766205 0.816719 0.000000 
0.802181 0.635576 0.000000 
0.597599 0.741493 0.000000 
0.657788 0.607052 0.000000 
0.827812 0.734799 0.000000 
0.733359 0.860342 0.000000 
0.846814 0.787577 0.000000 
0.755065 0.566447 0.000000 
0.608092 0.826562 0.000000 
0.579923 0.637641 0.000000 
0.855300 0.653595 0.000000 
0.713052 0.817646 0.000000 
0.628642 0.646871 0.000000 
0.806162 0.652933 0.000000 
0.791999 0.665715 0.000000 
0.792011 0.682039 0.000000 
0.777876 0.657533 0.000000 
0.810413 0.686176 0.000000 
0.777815 0.691562 0.000000 
0.762531 0.665062 0.000000 
0.783517 0.639528 0.000000 
0.778692 0.708801 0.000000 
0.762459 0.682768 0.000000 
0.748055 0.655661 0.000000 
0.794475 0.720773 0.000000 
0.764198 0.718276 0.000000 
0.732605 0.663467 0.000000 
0.745595 0.635981 0.000000 
0.695844 0.823547 0.000000 
0.717427 0.801008 0.000000 
0.634792 0.629746 0.000000 
0.748764 0.710457 0.000000 
0.702737 0.791096 0.000000 
0.735347 0.800485 0.000000 
0.748402 0.816745 0.000000 
0.734246 0.719920 0.000000 
0.747904 0.692188 0.000000 
0.683652 0.797017 0.000000 
0.735167 0.737208 0.000000 
0.718810 0.712098 0.000000 
0.750604 0.745034 0.000000 
0.720652 0.746670 0.000000 
0.704290 0.721561 0.000000 
0.717953 0.692740 0.000000 
0.765118 0.735566 0.000000 
0.721666 0.765116 0.000000 
0.705212 0.738846 0.000000 
0.690696 0.748307 0.000000 
0.689231 0.765431 0.000000 
0.704763 0.774413 0.000000 
0.668672 0.776091 0.000000 
0.675249 0.740479 0.000000 
0.656744 0.749921 0.000000 
0.674323 0.723192 0.000000 
0.651633 0.768410 0.000000 
0.631077 0.778036 0.000000 
0.635409 0.741371 0.000000 
0.658871 0.715361 0.000000 
0.688848 0.713736 0.000000 
0.638462 0.724098 0.000000 
0.657943 0.698070 0.000000 
0.687925 0.696449 0.000000 
0.641035 0.683807 0.000000 
0.672471 0.688612 0.000000 
0.671544 0.671315 0.000000 
0.657776 0.659545 0.000000 
0.662152 0.638996 0.000000 
0.686056 0.661842 0.000000 
0.680437 0.641832 0.000000 
0.701568 0.667603 0.000000 
0.717093 0.656611 0.000000 
0.756859 0.621335 0.000000 
0.652659 0.805805 0.000000 
0.665122 0.790995 0.000000 
0.679114 0.601196 0.000000 
0.795341 0.776924 0.000000 
0.789202 0.794058 0.000000 
0.781868 0.764482 0.000000 
0.764273 0.769976 0.000000 
0.760198 0.787227 0.000000 
0.741694 0.788821 0.000000 
0.735785 0.772115 0.000000 
0.750207 0.761495 0.000000 
0.595369 0.717461 0.000000 
0.816713 0.748729 0.000000 
0.797179 0.741216 0.000000 
0.702506 0.684910 0.000000 
0.741836 0.830155 0.000000 
0.747617 0.850501 0.000000 
0.603005 0.667590 0.000000 
0.641800 0.662582 0.000000 
0.732527 0.682290 0.000000 
0.729434 0.597406 0.000000 
0.681139 0.812830 0.000000 
0.652326 0.624909 0.000000 
0.825746 0.761435 0.000000 
0.848875 0.761256 0.000000 
0.821726 0.653784 0.000000 
0.835995 0.635581 0.000000 
0.614957 0.750086 0.000000 
0.638265 0.811804 0.000000 
0.633306 0.834393 0.000000 
0.771654 0.798868 0.000000 
0.812789 0.718362 0.000000 
0.782317 0.746533 0.000000 
0.774926 0.623491 0.000000 
0.615736 0.768262 0.000000 
0.819986 0.701651 0.000000 
0.728136 0.628409 0.000000 
0.715085 0.641234 0.000000 
0.718655 0.611088 0.000000 
0.693933 0.632206 0.000000 
0.572184 0.653528 0.000000 
0.695458 0.612822 0.000000 
0.626073 0.700912 0.000000 
0.608853 0.693971 0.000000 
VECTORS X_EC float 
-0.568436 0.473771 0.000000 
0.220345 0.384489 0.000000 
0.670044 0.559825 0.000000 
0.101630 -0.909104 0.000000 
0.540642 0.671062 0.000000 
-0.431759 -0.415822 0.000000 
0.254694 0.379375 0.000000 
-0.957895 0.477321 0.000000 
0.650778 -0.452327 0.000000 
0.369473 -0.918390 0.000000 
0.891127 0.200805 0.000000 
-0.340675 -0.637001 0.000000 
0.746563 -0.610184 0.000000 
-0.419932 0.197742 0.000000 
-0.759841 0.944703 0.000000 
-0.145996 -0.427135 0.000000 
-0.910781 -0.393900 0.000000 
0.956888 -0.388355 0.000000 
-0.094828 0.688728 0.000000 
-0.587996 -0.414773 0.000000 
-0.196611 0.535238 0.000000 
-0.483173 -0.090267 0.000000 
0.559707 0.838033 0.000000 
0.130129 0.360300 0.000000 
0.681895 -0.968203 0.000000 
0.219381 -0.857781 0.000000 
-0.592994 -0.963543 0.000000 
0.623438 -0.067576 0.000000 
-0.922923 -0.955397 0.000000 
0.257769 -0.865166 0.000000 
0.894831 -0.674564 0.000000 
0.364785 0.443429 0.000000 
-0.025851 0.880410 0.000000 
0.956608 -0.086061 0.000000 
-0.936113 -0.062842 0.000000 
-0.191276 0.988297 0.000000 
-0.638720 -0.128973 0.000000 
-0.416526 -0.678646 0.000000 
0.818475 0.174662 0.000000 
-0.315877 0.153645 0.000000 
-0.166768 -0.033677 0.000000 
-0.765592 0.577321 0.000000 
-0.362340 0.216395 0.000000 
-0.012840 0.269084 0.000000 
0.191896 0.012028 0.000000 
0.106691 0.575025 0.000000 
0.058654 -0.266131 0.000000 
-0.266910 -0.315737 0.000000 
0.225894 -0.557341 0.000000 
-0.026747 -0.792492 0.000000 
0.532859 0.042411 0.000000 
0.441405 0.646504 0.000000 
-0.102039 0.799857 0.000000 
-0.024200 -0.880715 0.000000 
-0.427667 0.751324 0.000000 
-0.334966 -0.730428 0.000000 
0.735623 -0.237451 0.000000 
0.662813 0.370950 0.000000 
0.523701 0.940956 0.000000 
-0.581092 -0.393066 0.000000 
-0.404564 -0.086960 0.000000 
-0.076049 -0.087095 0.000000 
-0.569296 0.197182 0.000000 
0.060179 -0.365757 0.000000 
-0.103773 -0.651202 0.000000 
0.400401 -0.422072 0.000000 
0.427086 -0.766157 0.000000 
0.112493 0.198444 0.000000 
-0.416706 0.503461 0.000000 
-0.885402 0.168874 0.000000 
0.861739 0.403256 0.000000 
0.949627 -0.115960 0.000000 
0.550471 0.253862 0.000000 
0.457532 0.182521 0.000000 
-0.063439 0.504860 0.000000 
-0.651103 0.755036 0.000000 
0.271519 0.737930 0.000000 
0.649131 0.892124 0.000000 
0.574781 -0.770744 0.000000 
0.832597 0.989377 0.000000 
0.757847 0.670155 0.000000 
-0.854071 -0.913042 0.000000 
0.446124 0.605262 0.000000 
0.203959 0.829804 0.000000 
0.272706 0.307830 0.000000 
-0.069735 0.359998 0.000000 
0.993791 0.422925 0.000000 
-0.590667 0.870955 0.000000 
-0.812399 -0.597177 0.000000 
-0.529079 -0.401519 0.000000 
0.946160 -0.372024 0.000000 
-0.606863 -0.063734 0.000000 
0.900414 0.091023 0.000000 