# vtk DataFile Version 3.0 
vtk output 
ASCII 
DATASET UNSTRUCTURED_GRID 
POINTS 616 float 
0.263815 0.468454 0.000000 
0.159247 0.129095 0.000000 
0.468081 0.306440 0.000000 
0.094655 0.335013 0.000000 
0.373522 0.112913 0.000000 
0.319328 0.461629 0.000000 
0.159075 0.427287 0.000000 
0.263880 0.087943 0.000000 
0.417898 0.407887 0.000000 
0.094168 0.221675 0.000000 
0.450031 0.195375 0.000000 
0.208269 0.457052 0.000000 
0.209493 0.102735 0.000000 
0.449975 0.360992 0.000000 
0.087362 0.278130 0.000000 
0.418630 0.147242 0.000000 
0.120411 0.385604 0.000000 
0.320572 0.092156 0.000000 
0.374577 0.444807 0.000000 
0.119308 0.169552 0.000000 
0.466804 0.249758 0.000000 
0.235610 0.464182 0.000000 
0.181908 0.112087 0.000000 
0.458093 0.333457 0.000000 
0.091720 0.306024 0.000000 
0.397087 0.128960 0.000000 
0.291954 0.469693 0.000000 
0.136719 0.408869 0.000000 
0.292250 0.086173 0.000000 
0.397036 0.427329 0.000000 
0.106337 0.195406 0.000000 
0.462178 0.221685 0.000000 
0.184137 0.441313 0.000000 
0.235707 0.092235 0.000000 
0.437001 0.386867 0.000000 
0.089522 0.249708 0.000000 
0.433546 0.171882 0.000000 
0.106175 0.360905 0.000000 
0.348704 0.099040 0.000000 
0.347795 0.455833 0.000000 
0.138353 0.148477 0.000000 
0.468949 0.278212 0.000000 
0.250949 0.458149 0.000000 
0.253591 0.440683 0.000000 
0.240738 0.430449 0.000000 
0.268896 0.434712 0.000000 
0.226823 0.437105 0.000000 
0.224337 0.453372 0.000000 
0.212259 0.428746 0.000000 
0.200495 0.441366 0.000000 
0.242264 0.413410 0.000000 
0.272480 0.417983 0.000000 
0.280136 0.445147 0.000000 
0.296117 0.441265 0.000000 
0.277699 0.461423 0.000000 
0.303615 0.456798 0.000000 
0.228267 0.403278 0.000000 
0.258701 0.406916 0.000000 
0.287211 0.413870 0.000000 
0.120459 0.369130 0.000000 
0.135776 0.360310 0.000000 
0.135777 0.343893 0.000000 
0.149988 0.368544 0.000000 
0.121838 0.337085 0.000000 
0.107554 0.345278 0.000000 
0.119027 0.320084 0.000000 
0.101812 0.318753 0.000000 
0.150067 0.334470 0.000000 
0.165314 0.360920 0.000000 
0.148564 0.384342 0.000000 
0.160275 0.396977 0.000000 
0.134311 0.392583 0.000000 
0.152798 0.412517 0.000000 
0.149278 0.317226 0.000000 
0.165393 0.343263 0.000000 
0.177894 0.372637 0.000000 
0.177011 0.426457 0.000000 
0.184727 0.407600 0.000000 
0.401848 0.411558 0.000000 
0.389812 0.398598 0.000000 
0.373810 0.402297 0.000000 
0.394668 0.382921 0.000000 
0.370503 0.417834 0.000000 
0.381691 0.429916 0.000000 
0.355591 0.426469 0.000000 
0.358146 0.443553 0.000000 
0.361438 0.390488 0.000000 
0.383829 0.369713 0.000000 
0.410397 0.380785 0.000000 
0.420118 0.366560 0.000000 
0.421634 0.392838 0.000000 
0.436949 0.370391 0.000000 
0.344820 0.395130 0.000000 
0.366606 0.373594 0.000000 
0.392462 0.354827 0.000000 
0.098907 0.291204 0.000000 
0.129686 0.290965 0.000000 
0.154424 0.144844 0.000000 
0.166448 0.157797 0.000000 
0.182454 0.154132 0.000000 
0.161598 0.173479 0.000000 
0.185971 0.139037 0.000000 
0.174790 0.126946 0.000000 
0.201910 0.132500 0.000000 
0.199353 0.115433 0.000000 
0.194837 0.165955 0.000000 
0.172465 0.186709 0.000000 
0.145879 0.175618 0.000000 
0.136175 0.189844 0.000000 
0.134656 0.163571 0.000000 
0.119347 0.186018 0.000000 
0.211469 0.161327 0.000000 
0.189694 0.182850 0.000000 
0.166613 0.202949 0.000000 
0.380657 0.127777 0.000000 
0.370718 0.142386 0.000000 
0.377869 0.157178 0.000000 
0.354345 0.141151 0.000000 
0.393283 0.157190 0.000000 
0.402562 0.143593 0.000000 
0.402778 0.171027 0.000000 
0.418838 0.164750 0.000000 
0.369119 0.171884 0.000000 
0.343881 0.154690 0.000000 
0.348738 0.126299 0.000000 
0.332690 0.120008 0.000000 
0.357975 0.112673 0.000000 
0.332650 0.102744 0.000000 
0.377339 0.187075 0.000000 
0.351505 0.170634 0.000000 
0.326742 0.152606 0.000000 
0.459636 0.264600 0.000000 
0.442020 0.265914 0.000000 
0.434913 0.280722 0.000000 
0.432781 0.252324 0.000000 
0.444504 0.292800 0.000000 
0.460922 0.291601 0.000000 
0.439585 0.308850 0.000000 
0.454508 0.317506 0.000000 
0.417958 0.283029 0.000000 
0.415676 0.252558 0.000000 
0.440896 0.238685 0.000000 
0.435814 0.222204 0.000000 
0.457302 0.237433 0.000000 
0.449280 0.211423 0.000000 
0.411192 0.298923 0.000000 
0.407961 0.268454 0.000000 
0.409418 0.236533 0.000000 
0.433525 0.188361 0.000000 
0.418402 0.202018 0.000000 
0.225547 0.106417 0.000000 
0.234091 0.137501 0.000000 
0.305106 0.096467 0.000000 
0.297617 0.112019 0.000000 
0.096680 0.264544 0.000000 
0.112865 0.267002 0.000000 
0.122120 0.253439 0.000000 
0.115104 0.283700 0.000000 
0.115451 0.238683 0.000000 
0.099033 0.237410 0.000000 
0.120548 0.222225 0.000000 
0.107080 0.211438 0.000000 
0.139236 0.253698 0.000000 
0.150372 0.236584 0.000000 
0.144564 0.274523 0.000000 
0.251025 0.098260 0.000000 
0.253672 0.115736 0.000000 
0.268965 0.121710 0.000000 
0.237901 0.121665 0.000000 
0.280436 0.110747 0.000000 
0.277997 0.094459 0.000000 
0.303911 0.128847 0.000000 
0.270991 0.140171 0.000000 
0.288754 0.146033 0.000000 
0.251888 0.150032 0.000000 
0.445178 0.343703 0.000000 
0.425063 0.340372 0.000000 
0.330519 0.449528 0.000000 
0.327560 0.426357 0.000000 
0.212177 0.411957 0.000000 
0.342277 0.415575 0.000000 
0.395584 0.186201 0.000000 
0.132177 0.309648 0.000000 
0.215025 0.142969 0.000000 
0.423228 0.312663 0.000000 
0.290658 0.396912 0.000000 
0.381363 0.341574 0.000000 
0.316303 0.166414 0.000000 
0.193315 0.364761 0.000000 
0.177727 0.216219 0.000000 
0.392125 0.236963 0.000000 
0.229998 0.386063 0.000000 
0.332443 0.383060 0.000000 
0.368327 0.201858 0.000000 
0.163834 0.307851 0.000000 
0.223869 0.173404 0.000000 
0.394017 0.301077 0.000000 
0.299605 0.426716 0.000000 
0.413029 0.353828 0.000000 
0.321159 0.132776 0.000000 
0.174279 0.392898 0.000000 
0.146044 0.203941 0.000000 
0.421442 0.219817 0.000000 
0.279301 0.384026 0.000000 
0.194785 0.213221 0.000000 
0.372313 0.219214 0.000000 
0.358155 0.232014 0.000000 
0.358169 0.248341 0.000000 
0.344036 0.223842 0.000000 
0.376574 0.252457 0.000000 
0.343976 0.257870 0.000000 
0.328695 0.231381 0.000000 
0.349674 0.205832 0.000000 
0.344864 0.275110 0.000000 
0.328621 0.249081 0.000000 
0.314224 0.221995 0.000000 
0.360662 0.287081 0.000000 
0.330378 0.284590 0.000000 
0.298777 0.229808 0.000000 
0.311769 0.202328 0.000000 
0.262075 0.389920 0.000000 
0.283680 0.367385 0.000000 
0.200906 0.196094 0.000000 
0.314934 0.276771 0.000000 
0.268975 0.357471 0.000000 
0.301603 0.366855 0.000000 
0.314651 0.383105 0.000000 
0.300423 0.286240 0.000000 
0.314066 0.258503 0.000000 
0.249886 0.363387 0.000000 
0.301359 0.303533 0.000000 
0.284977 0.278417 0.000000 
0.316805 0.311360 0.000000 
0.286852 0.313007 0.000000 
0.270470 0.287889 0.000000 
0.284114 0.259062 0.000000 
0.331313 0.301884 0.000000 
0.287886 0.331467 0.000000 
0.271407 0.305183 0.000000 
0.256901 0.314654 0.000000 
0.255448 0.331787 0.000000 
0.270989 0.340777 0.000000 
0.234897 0.342453 0.000000 
0.241459 0.306831 0.000000 
0.222967 0.316283 0.000000 
0.240524 0.289540 0.000000 
0.217858 0.334771 0.000000 
0.197301 0.344395 0.000000 
0.201647 0.307746 0.000000 
0.225085 0.281721 0.000000 
0.255029 0.280067 0.000000 
0.204697 0.290474 0.000000 
0.224148 0.264433 0.000000 
0.254097 0.262781 0.000000 
0.207241 0.250184 0.000000 
0.238655 0.254963 0.000000 
0.237720 0.237674 0.000000 
0.223947 0.225911 0.000000 
0.228306 0.205367 0.000000 
0.252229 0.228204 0.000000 
0.246605 0.208210 0.000000 
0.267739 0.233954 0.000000 
0.283266 0.222966 0.000000 
0.323013 0.187666 0.000000 
0.218880 0.372160 0.000000 
0.231349 0.357357 0.000000 
0.245222 0.167576 0.000000 
0.361558 0.343233 0.000000 
0.355429 0.360372 0.000000 
0.348081 0.330800 0.000000 
0.330493 0.336306 0.000000 
0.326432 0.353567 0.000000 
0.307938 0.355178 0.000000 
0.302013 0.338466 0.000000 
0.316423 0.327830 0.000000 
0.161615 0.283834 0.000000 
0.382920 0.315017 0.000000 
0.363380 0.307527 0.000000 
0.268673 0.251243 0.000000 
0.308089 0.396525 0.000000 
0.313865 0.416867 0.000000 
0.169177 0.233927 0.000000 
0.207974 0.228951 0.000000 
0.298692 0.248615 0.000000 
0.295565 0.163770 0.000000 
0.247370 0.379200 0.000000 
0.218442 0.191267 0.000000 
0.391954 0.327704 0.000000 
0.415088 0.327510 0.000000 
0.387876 0.220040 0.000000 
0.402132 0.201809 0.000000 
0.181190 0.316445 0.000000 
0.204475 0.378153 0.000000 
0.199495 0.400730 0.000000 
0.337892 0.365200 0.000000 
0.378978 0.284651 0.000000 
0.348520 0.312849 0.000000 
0.341073 0.189801 0.000000 
0.181959 0.334613 0.000000 
0.386154 0.267923 0.000000 
0.294310 0.194771 0.000000 
0.281260 0.207603 0.000000 
0.284810 0.177467 0.000000 
0.260112 0.198598 0.000000 
0.138353 0.219867 0.000000 
0.261608 0.179218 0.000000 
0.192309 0.267293 0.000000 
0.175091 0.260352 0.000000 
0.707603 0.912052 0.000000 
0.602964 0.572685 0.000000 
0.911779 0.750079 0.000000 
0.538420 0.778722 0.000000 
0.817334 0.556641 0.000000 
0.763092 0.905156 0.000000 
0.602902 0.871042 0.000000 
0.707695 0.531523 0.000000 
0.861667 0.851525 0.000000 
0.537854 0.665266 0.000000 
0.893802 0.639102 0.000000 
0.652078 0.900740 0.000000 
0.653237 0.546254 0.000000 
0.893699 0.804592 0.000000 
0.531057 0.721782 0.000000 
0.862426 0.590982 0.000000 
0.564204 0.829314 0.000000 
0.764402 0.535813 0.000000 
0.818316 0.888323 0.000000 
0.563000 0.613095 0.000000 
0.910528 0.693432 0.000000 
0.679407 0.907819 0.000000 
0.625627 0.555619 0.000000 
0.901800 0.777075 0.000000 
0.535445 0.749707 0.000000 
0.840889 0.572717 0.000000 
0.735736 0.913260 0.000000 
0.580541 0.852598 0.000000 
0.736073 0.529790 0.000000 
0.840771 0.870905 0.000000 
0.550032 0.638971 0.000000 
0.905936 0.665389 0.000000 
0.627946 0.885032 0.000000 
0.679481 0.535764 0.000000 
0.880717 0.830449 0.000000 
0.533210 0.693342 0.000000 
0.877325 0.615610 0.000000 
0.549956 0.804624 0.000000 
0.792529 0.542734 0.000000 
0.791547 0.899333 0.000000 
0.582119 0.592100 0.000000 
0.912641 0.721857 0.000000 
0.694743 0.901767 0.000000 
0.697358 0.884286 0.000000 
0.684498 0.874065 0.000000 
[...]
POINT_DATA 616 
VECTORS X_GC float 
0.263815 0.468454 0.000000 
0.159247 0.129095 0.000000 
0.468081 0.306440 0.000000 
0.094655 0.335013 0.000000 
0.373522 0.112913 0.000000 
0.319328 0.461629 0.000000 
0.159075 0.427287 0.000000 
0.263880 0.087943 0.000000 
0.417898 0.407887 0.000000 
0.094168 0.221675 0.000000 
0.450031 0.195375 0.000000 
0.208269 0.457052 0.000000 
0.209493 0.102735 0.000000 
0.449975 0.360992 0.000000 
0.087362 0.278130 0.000000 
0.418630 0.147242 0.000000 
0.120411 0.385604 0.000000 
0.320572 0.092156 0.000000 
0.374577 0.444807 0.000000 
0.119308 0.169552 0.000000 
0.466804 0.249758 0.000000 
0.235610 0.464182 0.000000 
0.181908 0.112087 0.000000 
0.458093 0.333457 0.000000 
0.091720 0.306024 0.000000 
0.397087 0.128960 0.000000 
0.291954 0.469693 0.000000 
0.136719 0.408869 0.000000 
0.292250 0.086173 0.000000 
0.397036 0.427329 0.000000 
0.106337 0.195406 0.000000 
0.462178 0.221685 0.000000 
0.184137 0.441313 0.000000 
0.235707 0.092235 0.000000 
0.437001 0.386867 0.000000 
0.089522 0.249708 0.000000 
0.433546 0.171882 0.000000 
0.106175 0.360905 0.000000 
0.348704 0.099040 0.000000 
0.347795 0.455833 0.000000 
0.138353 0.148477 0.000000 
0.468949 0.278212 0.000000 
0.250949 0.458149 0.000000 
0.253591 0.440683 0.000000 
0.240738 0.430449 0.000000 
0.268896 0.434712 0.000000 
0.226823 0.437105 0.000000 
0.224337 0.453372 0.000000 
0.212259 0.428746 0.000000 
0.200495 0.441366 0.000000 
0.242264 0.413410 0.000000 
0.272480 0.417983 0.000000 
0.280136 0.445147 0.000000 
0.296117 0.441265 0.000000 
0.277699 0.461423 0.000000 
0.303615 0.456798 0.000000 
0.228267 0.403278 0.000000 
0.258701 0.406916 0.000000 
0.287211 0.413870 0.000000 
0.120459 0.369130 0.000000 
0.135776 0.360310 0.000000 
0.135777 0.343893 0.000000 
0.149988 0.368544 0.000000 
0.121838 0.337085 0.000000 
0.107554 0.345278 0.000000 
0.119027 0.320084 0.000000 
0.101812 0.318753 0.000000 
0.150067 0.334470 0.000000 
0.165314 0.360920 0.000000 
0.148564 0.384342 0.000000 
0.160275 0.396977 0.000000 
0.134311 0.392583 0.000000 
0.152798 0.412517 0.000000 
0.149278 0.317226 0.000000 
0.165393 0.343263 0.000000 
0.177894 0.372637 0.000000 
0.177011 0.426457 0.000000 
0.184727 0.407600 0.000000 
0.401848 0.411558 0.000000 
0.389812 0.398598 0.000000 
0.373810 0.402297 0.000000 
0.394668 0.382921 0.000000 
0.370503 0.417834 0.000000 
0.381691 0.429916 0.000000 
0.355591 0.426469 0.000000 
0.358146 0.443553 0.000000 
0.361438 0.390488 0.000000 
0.383829 0.369713 0.000000 
0.410397 0.380785 0.000000 
0.420118 0.366560 0.000000 
0.421634 0.392838 0.000000 
0.436949 0.370391 0.000000 
0.344820 0.395130 0.000000 
0.366606 0.373594 0.000000 
0.392462 0.354827 0.000000 
0.098907 0.291204 0.000000 
0.129686 0.290965 0.000000 
0.154424 0.144844 0.000000 
0.166448 0.157797 0.000000 
0.182454 0.154132 0.000000 
0.161598 0.173479 0.000000 
0.185971 0.139037 0.000000 
0.174790 0.126946 0.000000 
0.201910 0.132500 0.000000 
0.199353 0.115433 0.000000 
0.194837 0.165955 0.000000 
0.172465 0.186709 0.000000 
0.145879 0.175618 0.000000 
0.136175 0.189844 0.000000 
0.134656 0.163571 0.000000 
0.119347 0.186018 0.000000 
0.211469 0.161327 0.000000 
0.189694 0.182850 0.000000 
0.166613 0.202949 0.000000 
0.380657 0.127777 0.000000 
0.370718 0.142386 0.000000 
0.377869 0.157178 0.000000 
0.354345 0.141151 0.000000 
0.393283 0.157190 0.000000 
0.402562 0.143593 0.000000 
0.402778 0.171027 0.000000 
0.418838 0.164750 0.000000 
0.369119 0.171884 0.000000 
0.343881 0.154690 0.000000 
0.348738 0.126299 0.000000 
0.332690 0.120008 0.000000 
0.357975 0.112673 0.000000 
0.332650 0.102744 0.000000 
0.377339 0.187075 0.000000 
0.351505 0.170634 0.000000 
0.326742 0.152606 0.000000 
0.459636 0.264600 0.000000 
0.442020 0.265914 0.000000 
0.434913 0.280722 0.000000 
0.432781 0.252324 0.000000 
0.444504 0.292800 0.000000 
0.460922 0.291601 0.000000 
0.439585 0.308850 0.000000 
0.454508 0.317506 0.000000 
0.417958 0.283029 0.000000 
0.415676 0.252558 0.000000 
0.440896 0.238685 0.000000 
0.435814 0.222204 0.000000 
0.457302 0.237433 0.000000 
0.449280 0.211423 0.000000 
0.411192 0.298923 0.000000 
0.407961 0.268454 0.000000 
0.409418 0.236533 0.000000 
0.433525 0.188361 0.000000 
0.418402 0.202018 0.000000 
0.225547 0.106417 0.000000 
0.234091 0.137501 0.000000 
0.305106 0.096467 0.000000 
0.297617 0.112019 0.000000 
0.096680 0.264544 0.000000 
0.112865 0.267002 0.000000 
0.122120 0.253439 0.000000 
0.115104 0.283700 0.000000 
0.115451 0.238683 0.000000 
0.099033 0.237410 0.000000 
0.120548 0.222225 0.000000 
0.107080 0.211438 0.000000 
0.139236 0.253698 0.000000 
0.150372 0.236584 0.000000 
0.144564 0.274523 0.000000 
0.251025 0.098260 0.000000 
0.253672 0.115736 0.000000 
0.268965 0.121710 0.000000 
0.237901 0.121665 0.000000 
0.280436 0.110747 0.000000 
0.277997 0.094459 0.000000 
0.303911 0.128847 0.000000 
0.270991 0.140171 0.000000 
0.288754 0.146033 0.000000 
0.251888 0.150032 0.000000 
0.445178 0.343703 0.000000 
0.425063 0.340372 0.000000 
0.330519 0.449528 0.000000 
0.327560 0.426357 0.000000 
0.212177 0.411957 0.000000 
0.342277 0.415575 0.000000 
0.395584 0.186201 0.000000 
0.132177 0.309648 0.000000 
0.215025 0.142969 0.000000 
0.423228 0.312663 0.000000 
0.290658 0.396912 0.000000 
0.381363 0.341574 0.000000 
0.316303 0.166414 0.000000 
0.193315 0.364761 0.000000 
0.177727 0.216219 0.000000 
0.392125 0.236963 0.000000 
0.229998 0.386063 0.000000 
0.332443 0.383060 0.000000 
0.368327 0.201858 0.000000 
0.163834 0.307851 0.000000 
0.223869 0.173404 0.000000 
0.394017 0.301077 0.000000 
0.299605 0.426716 0.000000 
0.413029 0.353828 0.000000 
0.321159 0.132776 0.000000 
0.174279 0.392898 0.000000 
0.146044 0.203941 0.000000 
0.421442 0.219817 0.000000 
0.279301 0.384026 0.000000 
0.194785 0.213221 0.000000 
0.372313 0.219214 0.000000 
0.358155 0.232014 0.000000 
0.358169 0.248341 0.000000 
0.344036 0.223842 0.000000 
0.376574 0.252457 0.000000 
0.343976 0.257870 0.000000 
0.328695 0.231381 0.000000 
0.349674 0.205832 0.000000 
0.344864 0.275110 0.000000 
0.328621 0.249081 0.000000 
0.314224 0.221995 0.000000 
0.360662 0.287081 0.000000 
0.330378 0.284590 0.000000 
0.298777 0.229808 0.000000 
0.311769 0.202328 0.000000 
0.262075 0.389920 0.000000 
0.283680 0.367385 0.000000 
0.200906 0.196094 0.000000 
0.314934 0.276771 0.000000 
0.268975 0.357471 0.000000 
0.301603 0.366855 0.000000 
0.314651 0.383105 0.000000 
0.300423 0.286240 0.000000 
0.314066 0.258503 0.000000 
0.249886 0.363387 0.000000 
0.301359 0.303533 0.000000 
0.284977 0.278417 0.000000 
0.316805 0.311360 0.000000 
0.286852 0.313007 0.000000 
0.270470 0.287889 0.000000 
0.284114 0.259062 0.000000 
0.331313 0.301884 0.000000 
0.287886 0.331467 0.000000 
0.271407 0.305183 0.000000 
0.256901 0.314654 0.000000 
0.255448 0.331787 0.000000 
0.270989 0.340777 0.000000 
0.234897 0.342453 0.000000 
0.241459 0.306831 0.000000 
0.222967 0.316283 0.000000 
0.240524 0.289540 0.000000 
0.217858 0.334771 0.000000 
0.197301 0.344395 0.000000 
0.201647 0.307746 0.000000 
0.225085 0.281721 0.000000 
0.255029 0.280067 0.000000 
0.204697 0.290474 0.000000 
0.224148 0.264433 0.000000 
0.254097 0.262781 0.000000 
0.207241 0.250184 0.000000 
0.238655 0.254963 0.000000 
0.237720 0.237674 0.000000 
0.223947 0.225911 0.000000 
0.228306 0.205367 0.000000 
0.252229 0.228204 0.000000 
0.246605 0.208210 0.000000 
0.267739 0.233954 0.000000 
0.283266 0.222966 0.000000 
0.323013 0.187666 0.000000 
0.218880 0.372160 0.000000 
0.231349 0.357357 0.000000 
0.245222 0.167576 0.000000 
0.361558 0.343233 0.000000 
0.355429 0.360372 0.000000 
0.348081 0.330800 0.000000 
0.330493 0.336306 0.000000 
0.326432 0.353567 0.000000 
0.307938 0.355178 0.000000 
0.302013 0.338466 0.000000 
0.316423 0.327830 0.000000 
0.161615 0.283834 0.000000 
0.382920 0.315017 0.000000 
0.363380 0.307527 0.000000 
0.268673 0.251243 0.000000 
0.308089 0.396525 0.000000 
0.313865 0.416867 0.000000 
0.169177 0.233927 0.000000 
0.207974 0.228951 0.000000 
0.298692 0.248615 0.000000 
0.295565 0.163770 0.000000 
0.247370 0.379200 0.000000 
0.218442 0.191267 0.000000 
0.391954 0.327704 0.000000 
0.415088 0.327510 0.000000 
0.387876 0.220040 0.000000 
0.402132 0.201809 0.000000 
0.181190 0.316445 0.000000 
0.204475 0.378153 0.000000 
0.199495 0.400730 0.000000 
0.337892 0.365200 0.000000 
0.378978 0.284651 0.000000 
0.348520 0.312849 0.000000 
0.341073 0.189801 0.000000 
0.181959 0.334613 0.000000 
0.386154 0.267923 0.000000 
0.294310 0.194771 0.000000 
0.281260 0.207603 0.000000 
0.284810 0.177467 0.000000 
0.260112 0.198598 0.000000 
0.138353 0.219867 0.000000 
0.261608 0.179218 0.000000 
0.192309 0.267293 0.000000 
0.175091 0.260352 0.000000 
0.707603 0.912052 0.000000 
0.602964 0.572685 0.000000 
0.911779 0.750079 0.000000 
0.538420 0.778722 0.000000 
0.817334 0.556641 0.000000 
0.763092 0.905156 0.000000 
0.602902 0.871042 0.000000 
0.707695 0.531523 0.000000 
0.861667 0.851525 0.000000 
0.537854 0.665266 0.000000 
0.893802 0.639102 0.000000 
0.652078 0.900740 0.000000 
0.653237 0.546254 0.000000 
0.893699 0.804592 0.000000 
0.531057 0.721782 0.000000 
0.862426 0.590982 0.000000 
0.564204 0.829314 0.000000 
0.764402 0.535813 0.000000 
0.818316 0.888323 0.000000 
0.563000 0.613095 0.000000 
0.910528 0.693432 0.000000 
0.679407 0.907819 0.000000 
0.625627 0.555619 0.000000 
0.901800 0.777075 0.000000 
0.535445 0.749707 0.000000 
0.840889 0.572717 0.000000 
0.735736 0.913260 0.000000 
0.580541 0.852598 0.000000 
0.736073 0.529790 0.000000 
0.840771 0.870905 0.000000 
0.550032 0.638971 0.000000 
0.905936 0.665389 0.000000 
0.627946 0.885032 0.000000 
0.679481 0.535764 0.000000 
0.880717 0.830449 0.000000 
0.533210 0.693342 0.000000 
0.877325 0.615610 0.000000 
0.549956 0.804624 0.000000 
0.792529 0.542734 0.000000 
0.791547 0.899333 0.000000 
0.582119 0.592100 0.000000 
0.912641 0.721857 0.000000 
0.694743 0.901767 0.000000 
0.697358 0.884286 0.000000 
0.684498 0.874065 0.000000 
0.712645 0.878289 0.000000 
0.670600 0.880747 0.000000 
0.668136 0.897030 0.000000 
0.656037 0.872405 0.000000 
0.644292 0.885054 0.000000 
0.685999 0.857012 0.000000 
0.716199 0.861546 0.000000 
0.723896 0.888714 0.000000 
0.739863 0.884810 0.000000 
0.721479 0.904997 0.000000 
0.747384 0.900343 0.000000 
0.672002 0.846893 0.000000 
0.702411 0.850489 0.000000 
0.730918 0.857416 0.000000 
0.564229 0.812836 0.000000 
0.579521 0.803999 0.000000 
0.579504 0.787566 0.000000 
0.593727 0.812225 0.000000 
0.565574 0.780767 0.000000 
0.551315 0.788982 0.000000 
0.562750 0.763753 0.000000 
0.545552 0.762438 0.000000 
0.593768 0.778120 0.000000 
0.609023 0.804569 0.000000 
0.592336 0.828039 0.000000 
0.604063 0.840682 0.000000 
0.578104 0.836292 0.000000 
0.596612 0.856250 0.000000 
0.592964 0.760860 0.000000 
0.609085 0.786898 0.000000 
0.621617 0.816282 0.000000 
0.620812 0.870165 0.000000 
0.628507 0.851280 0.000000 
0.845595 0.855158 0.000000 
0.833571 0.842209 0.000000 
0.817565 0.845874 0.000000 
0.838422 0.826530 0.000000 
0.814253 0.861383 0.000000 
0.825434 0.873468 0.000000 
0.799336 0.869994 0.000000 
0.801894 0.887057 0.000000 
0.805182 0.834056 0.000000 
0.827556 0.813305 0.000000 
0.854145 0.824387 0.000000 
0.863852 0.810162 0.000000 
0.865366 0.836432 0.000000 
0.880683 0.813985 0.000000 
0.788545 0.838681 0.000000 
0.810324 0.817165 0.000000 
0.836174 0.798436 0.000000 
0.542616 0.734860 0.000000 
0.573366 0.734592 0.000000 
0.598162 0.588452 0.000000 
0.610197 0.601407 0.000000 
0.626198 0.597709 0.000000 
0.605334 0.617082 0.000000 
0.629707 0.582589 0.000000 
0.618516 0.570515 0.000000 
0.645644 0.576034 0.000000 
0.643087 0.558953 0.000000 
0.638562 0.609514 0.000000 
0.616165 0.630283 0.000000 
0.589606 0.619212 0.000000 
0.579884 0.633425 0.000000 
0.578371 0.607141 0.000000 
0.563056 0.629579 0.000000 
0.655189 0.604874 0.000000 
0.633393 0.626405 0.000000 
0.610291 0.646529 0.000000 
0.824450 0.571501 0.000000 
0.814486 0.586090 0.000000 
0.821620 0.600878 0.000000 
0.798106 0.584836 0.000000 
0.837047 0.600912 0.000000 
0.846351 0.587337 0.000000 
0.846530 0.614748 0.000000 
0.862610 0.608479 0.000000 
0.812842 0.615560 0.000000 
0.787615 0.598354 0.000000 
0.792519 0.569982 0.000000 
0.776477 0.563671 0.000000 
0.801781 0.556374 0.000000 
0.776465 0.546415 0.000000 
0.821038 0.630746 0.000000 
0.795217 0.614291 0.000000 
0.770471 0.596245 0.000000 
0.903342 0.708255 0.000000 
0.885714 0.709563 0.000000 
0.878593 0.724359 0.000000 
0.876482 0.695986 0.000000 
0.888185 0.736434 0.000000 
0.904607 0.735240 0.000000 
0.883273 0.752475 0.000000 
0.898205 0.761133 0.000000 
0.861629 0.726657 0.000000 
0.859363 0.696212 0.000000 
0.884617 0.682365 0.000000 
0.879546 0.665898 0.000000 
0.901039 0.681121 0.000000 
0.893036 0.655134 0.000000 
0.854861 0.742538 0.000000 
0.851634 0.712091 0.000000 
0.853113 0.680200 0.000000 
0.877284 0.632082 0.000000 
0.862133 0.645723 0.000000 
0.669304 0.549949 0.000000 
0.677821 0.581041 0.000000 
0.748928 0.540104 0.000000 
0.741406 0.555635 0.000000 
0.540367 0.708184 0.000000 
0.556542 0.710627 0.000000 
0.565789 0.697047 0.000000 
0.558792 0.727335 0.000000 
0.559129 0.682287 0.000000 
0.542721 0.681021 0.000000 
0.564230 0.665816 0.000000 
0.550767 0.655020 0.000000 
0.582893 0.697289 0.000000 
0.594034 0.680167 0.000000 
0.588218 0.718123 0.000000 
0.694818 0.541813 0.000000 
0.697438 0.559286 0.000000 
0.712725 0.565278 0.000000 
0.681650 0.565207 0.000000 
0.724218 0.554334 0.000000 
0.721805 0.538051 0.000000 
0.747672 0.572464 0.000000 
0.714719 0.583736 0.000000 
0.732478 0.589619 0.000000 
0.695595 0.593571 0.000000 
0.888888 0.787315 0.000000 
0.868770 0.783984 0.000000 
0.774273 0.893048 0.000000 
0.771295 0.869888 0.000000 
0.655937 0.855604 0.000000 
0.786012 0.859112 0.000000 
0.839303 0.629901 0.000000 
0.575875 0.753293 0.000000 
0.658754 0.586510 0.000000 
0.866912 0.756281 0.000000 
0.734337 0.840447 0.000000 
0.825056 0.785169 0.000000 
0.760006 0.610027 0.000000 
0.637009 0.808376 0.000000 
0.621388 0.659782 0.000000 
0.835800 0.680612 0.000000 
0.673703 0.829661 0.000000 
0.776141 0.826605 0.000000 
0.812004 0.645504 0.000000 
0.607497 0.751458 0.000000 
0.667564 0.616944 0.000000 
0.837679 0.744682 0.000000 
0.743330 0.870254 0.000000 
0.856746 0.797438 0.000000 
0.764920 0.576416 0.000000 
0.618043 0.836570 0.000000 
0.589731 0.647530 0.000000 
0.865161 0.663506 0.000000 
0.722964 0.827566 0.000000 
0.638439 0.656761 0.000000 
0.815983 0.662854 0.000000 
0.801807 0.675626 0.000000 
0.801813 0.691942 0.000000 
0.787689 0.667449 0.000000 
0.820229 0.696082 0.000000 
0.787617 0.701461 0.000000 
0.772344 0.674976 0.000000 
0.793335 0.649454 0.000000 
0.788506 0.718696 0.000000 
0.772267 0.692672 0.000000 
0.757872 0.665581 0.000000 
0.804303 0.730667 0.000000 
0.774024 0.728171 0.000000 
0.742423 0.673384 0.000000 
0.755416 0.645911 0.000000 
0.705757 0.833479 0.000000 
0.727322 0.810923 0.000000 
0.644569 0.639626 0.000000 
0.758584 0.720355 0.000000 
0.712603 0.801011 0.000000 
0.745250 0.810389 0.000000 
0.758329 0.826642 0.000000 
0.744075 0.729819 0.000000 
0.757713 0.702090 0.000000 
0.693532 0.806945 0.000000 
0.745009 0.747107 0.000000 
0.728635 0.721999 0.000000 
0.760453 0.754928 0.000000 
0.730498 0.756573 0.000000 
0.714121 0.731465 0.000000 
0.727770 0.702644 0.000000 
0.774960 0.745458 0.000000 
0.731524 0.775020 0.000000 
0.715053 0.748752 0.000000 
0.700541 0.758218 0.000000 
0.699083 0.775344 0.000000 
0.714621 0.784324 0.000000 
0.678541 0.786019 0.000000 
0.685100 0.750398 0.000000 
0.666609 0.759852 0.000000 
0.684168 0.733110 0.000000 
0.661508 0.778347 0.000000 
0.640967 0.787989 0.000000 
0.645284 0.751314 0.000000 
0.668723 0.725286 0.000000 
0.698680 0.723644 0.000000 
0.648329 0.734035 0.000000 
0.667789 0.707993 0.000000 
0.697751 0.706358 0.000000 
0.650878 0.693729 0.000000 
0.682304 0.698529 0.000000 
0.681368 0.681230 0.000000 
0.667594 0.669455 0.000000 
0.671956 0.648902 0.000000 
0.695877 0.671760 0.000000 
0.690251 0.651751 0.000000 
0.711391 0.677520 0.000000 
0.726914 0.666533 0.000000 
0.766683 0.631271 0.000000 
0.662566 0.815757 0.000000 
0.674997 0.800927 0.000000 
0.688913 0.611115 0.000000 
0.805234 0.786801 0.000000 
0.799113 0.803927 0.000000 
0.791741 0.774362 0.000000 
0.774147 0.779862 0.000000 
0.770086 0.797112 0.000000 
0.751576 0.798715 0.000000 
0.745652 0.782013 0.000000 
0.760070 0.771388 0.000000 
0.605261 0.727421 0.000000 
0.826588 0.758613 0.000000 
0.807032 0.751109 0.000000 
0.712328 0.694820 0.000000 
0.751776 0.840058 0.000000 
0.757583 0.860402 0.000000 
0.612831 0.677497 0.000000 
0.651619 0.672490 0.000000 
0.742342 0.692197 0.000000 
0.739261 0.607355 0.000000 
0.691043 0.822767 0.000000 
0.662111 0.634801 0.000000 
0.835640 0.771311 0.000000 
0.858782 0.771123 0.000000 
0.831560 0.663701 0.000000 
0.845845 0.645506 0.000000 
0.624848 0.760042 0.000000 
0.648185 0.821771 0.000000 
0.643256 0.844387 0.000000 
0.781571 0.808748 0.000000 
0.822628 0.728258 0.000000 
0.792171 0.756418 0.000000 
0.784748 0.633425 0.000000 
0.625631 0.778222 0.000000 
0.829813 0.711548 0.000000 
0.737959 0.638343 0.000000 
0.724907 0.651163 0.000000 
0.728480 0.621030 0.000000 
0.703753 0.642137 0.000000 
0.582031 0.663455 0.000000 
0.705279 0.622762 0.000000 
0.635941 0.710852 0.000000 
0.618724 0.703913 0.000000 
VECTORS X_EC float 
-0.369076 0.276306 0.000000 
0.418102 0.184947 0.000000 
0.871190 0.361625 0.000000 
0.299745 0.893105 0.000000 
0.741747 0.470448 0.000000 
-0.232575 -0.613440 0.000000 
0.454262 0.181507 0.000000 
-0.758850 0.277597 0.000000 
0.842254 -0.642043 0.000000 
0.566501 0.883357 0.000000 
-0.907501 0.000618 0.000000 
-0.141045 -0.834612 0.000000 
0.945295 -0.810149 0.000000 
-0.219844 -0.000495 0.000000 
-0.562608 0.747241 0.000000 
0.055159 -0.627404 0.000000 
-0.712083 -0.591786 0.000000 
-0.843117 -0.588562 0.000000 
0.103867 0.491539 0.000000 
-0.391049 -0.613842 0.000000 
0.004846 0.336078 0.000000 
-0.283638 -0.287799 0.000000 
0.758260 0.638153 0.000000 
0.330858 0.161866 0.000000 
0.879513 0.834404 0.000000 
0.420798 0.941739 0.000000 
-0.393853 0.839076 0.000000 
0.822610 -0.265618 0.000000 
-0.723469 0.844997 0.000000 
0.453424 0.940720 0.000000 
-0.908124 -0.873251 0.000000 
0.566294 0.243555 0.000000 
0.173733 0.682733 0.000000 
-0.844703 -0.285857 0.000000 
-0.737345 -0.259976 0.000000 
0.005849 0.790440 0.000000 
-0.437646 -0.329075 0.000000 
-0.218097 -0.876499 0.000000 
-0.980795 -0.025913 0.000000 
-0.116666 -0.044097 0.000000 
0.030450 -0.232945 0.000000 
-0.564244 0.378973 0.000000 
-0.162978 0.018971 0.000000 
0.186341 0.071819 0.000000 
0.391022 -0.185246 0.000000 
0.305759 0.377918 0.000000 
0.257909 -0.463545 0.000000 
-0.067433 -0.513255 0.000000 
0.425087 -0.754819 0.000000 
0.172682 -0.990095 0.000000 
0.731796 -0.154728 0.000000 
0.640341 0.449597 0.000000 
0.097050 0.602710 0.000000 
0.174707 0.922330 0.000000 
-0.228462 0.553984 0.000000 
-0.135969 -0.927702 0.000000 
0.934448 -0.434661 0.000000 
0.861675 0.174021 0.000000 
0.722592 0.744227 0.000000 
-0.382593 -0.590822 0.000000 
-0.206199 -0.284473 0.000000 
0.122143 -0.284467 0.000000 
-0.370883 -0.000245 0.000000 
0.258295 -0.563244 0.000000 
0.094447 -0.848925 0.000000 
0.598310 -0.619460 0.000000 
0.624943 -0.963762 0.000000 
0.310596 0.001330 0.000000 
-0.218393 0.306278 0.000000 
-0.686839 -0.028713 0.000000 
-0.939549 0.205503 0.000000 
-0.851668 -0.313787 0.000000 
0.749661 0.055967 0.000000 
0.655476 -0.014444 0.000000 
0.134740 0.307851 0.000000 
-0.452739 0.557874 0.000000 
0.470868 0.540228 0.000000 
0.848002 0.694544 0.000000 
0.768842 -0.963034 0.000000 
-0.971952 0.796241 0.000000 
0.954058 0.476206 0.000000 
-0.658429 0.893360 0.000000 
0.643314 0.410066 0.000000 
0.401680 0.633828 0.000000 
0.470616 0.111814 0.000000 
0.128946 0.162925 0.000000 
-0.809764 0.228766 0.000000 
-0.394251 0.676571 0.000000 
-0.615692 -0.792066 0.000000 
-0.331191 -0.597631 0.000000 
-0.856753 -0.567327 0.000000 
-0.407825 -0.261019 0.000000 
-0.902605 -0.103593 0.000000 