# vtk DataFile Version 3.0 
vtk output 
ASCII 
DATASET UNSTRUCTURED_GRID 
POINTS 616 float 
0.195743 0.400247 0.000000 
0.091050 0.060842 0.000000 
0.399931 0.238227 0.000000 
0.026575 0.266893 0.000000 
0.305390 0.044779 0.000000 
0.251239 0.393394 0.000000 
0.091050 0.359158 0.000000 
0.195743 0.019753 0.000000 
0.349852 0.339764 0.000000 
0.025966 0.153514 0.000000 
0.381887 0.127223 0.000000 
0.140217 0.388888 0.000000 
0.141321 0.034487 0.000000 
0.381887 0.292777 0.000000 
0.019219 0.210000 0.000000 
0.350489 0.079105 0.000000 
0.052370 0.317470 0.000000 
0.252453 0.024003 0.000000 
0.306487 0.376582 0.000000 
0.051094 0.101334 0.000000 
0.398650 0.181566 0.000000 
0.167547 0.395997 0.000000 
0.113717 0.043834 0.000000 
0.389973 0.265241 0.000000 
0.023605 0.237902 0.000000 
0.328950 0.060842 0.000000 
0.223875 0.401469 0.000000 
0.068699 0.340741 0.000000 
0.224118 0.018011 0.000000 
0.328950 0.359158 0.000000 
0.038113 0.127223 0.000000 
0.394034 0.153514 0.000000 
0.116096 0.373168 0.000000 
0.167547 0.024003 0.000000 
0.368906 0.318666 0.000000 
0.021350 0.181566 0.000000 
0.365400 0.103734 0.000000 
0.038113 0.292777 0.000000 
0.280581 0.030898 0.000000 
0.279700 0.387593 0.000000 
0.070148 0.080236 0.000000 
0.400781 0.210000 0.000000 
0.182877 0.389951 0.000000 
0.185510 0.372479 0.000000 
0.172660 0.362254 0.000000 
0.200803 0.366495 0.000000 
0.158756 0.368921 0.000000 
0.156276 0.385194 0.000000 
0.144198 0.360572 0.000000 
0.132444 0.373204 0.000000 
0.174178 0.345210 0.000000 
0.204376 0.349762 0.000000 
0.212045 0.376925 0.000000 
0.228019 0.373033 0.000000 
0.209618 0.393205 0.000000 
0.235528 0.388569 0.000000 
0.160189 0.335086 0.000000 
0.190601 0.338703 0.000000 
0.219098 0.345641 0.000000 
0.052398 0.300992 0.000000 
0.067699 0.292157 0.000000 
0.067682 0.275735 0.000000 
0.081913 0.300383 0.000000 
0.053744 0.268938 0.000000 
0.039476 0.277146 0.000000 
0.050919 0.251936 0.000000 
0.033714 0.250622 0.000000 
0.081954 0.266296 0.000000 
0.097223 0.292743 0.000000 
0.080512 0.316189 0.000000 
0.092235 0.328824 0.000000 
0.066271 0.324442 0.000000 
0.084771 0.344381 0.000000 
0.081147 0.249046 0.000000 
0.097281 0.275078 0.000000 
0.109812 0.304456 0.000000 
0.108972 0.358309 0.000000 
0.116681 0.339439 0.000000 
0.333780 0.343403 0.000000 
0.321762 0.330451 0.000000 
0.305756 0.334122 0.000000 
0.326619 0.314763 0.000000 
0.302435 0.349639 0.000000 
0.313611 0.361723 0.000000 
0.287509 0.358256 0.000000 
0.290056 0.375323 0.000000 
0.293377 0.322309 0.000000 
0.315764 0.301537 0.000000 
0.342341 0.312612 0.000000 
0.352050 0.298371 0.000000 
0.353556 0.324660 0.000000 
0.368878 0.302187 0.000000 
0.276739 0.326934 0.000000 
0.298529 0.305411 0.000000 
0.324382 0.286658 0.000000 
0.030780 0.223067 0.000000 
0.061539 0.222794 0.000000 
0.086220 0.076597 0.000000 
0.098238 0.089549 0.000000 
0.114244 0.085878 0.000000 
0.093381 0.105237 0.000000 
0.117769 0.070777 0.000000 
0.106593 0.058693 0.000000 
0.133716 0.064239 0.000000 
0.131169 0.047173 0.000000 
0.126623 0.097691 0.000000 
0.104236 0.118463 0.000000 
0.077659 0.107388 0.000000 
0.067950 0.121629 0.000000 
0.066444 0.095340 0.000000 
0.051122 0.117813 0.000000 
0.143261 0.093066 0.000000 
0.121471 0.114589 0.000000 
0.098380 0.134709 0.000000 
0.312515 0.059638 0.000000 
0.302562 0.074237 0.000000 
0.309702 0.089025 0.000000 
0.286187 0.072993 0.000000 
0.325123 0.089051 0.000000 
0.334417 0.075466 0.000000 
0.334616 0.102889 0.000000 
0.350687 0.096608 0.000000 
0.300940 0.103722 0.000000 
0.275707 0.086519 0.000000 
0.280590 0.058144 0.000000 
0.264547 0.051847 0.000000 
0.289841 0.044529 0.000000 
0.264522 0.034592 0.000000 
0.309152 0.118914 0.000000 
0.283320 0.102460 0.000000 
0.258566 0.084425 0.000000 
0.391474 0.196400 0.000000 
0.373855 0.197721 0.000000 
0.366745 0.212524 0.000000 
0.364618 0.184142 0.000000 
0.376340 0.224596 0.000000 
0.392756 0.223393 0.000000 
0.371439 0.240646 0.000000 
0.386370 0.249295 0.000000 
0.349791 0.214836 0.000000 
0.347509 0.184383 0.000000 
0.372738 0.170509 0.000000 
0.367658 0.154040 0.000000 
0.389150 0.169253 0.000000 
0.381133 0.143262 0.000000 
0.343034 0.230728 0.000000 
0.339792 0.200273 0.000000 
0.341250 0.168368 0.000000 
0.365372 0.120213 0.000000 
0.350239 0.133869 0.000000 
0.157380 0.038181 0.000000 
0.165905 0.069262 0.000000 
0.236984 0.028307 0.000000 
0.229475 0.043843 0.000000 
0.028526 0.196400 0.000000 
0.044705 0.198843 0.000000 
0.053942 0.185264 0.000000 
0.046960 0.215545 0.000000 
0.047262 0.170509 0.000000 
0.030850 0.169253 0.000000 
0.052342 0.154040 0.000000 
0.038867 0.143262 0.000000 
0.071051 0.185505 0.000000 
0.082169 0.168372 0.000000 
0.076393 0.206332 0.000000 
0.182877 0.030049 0.000000 
0.185510 0.047521 0.000000 
0.200803 0.053505 0.000000 
0.169728 0.053435 0.000000 
0.212288 0.042555 0.000000 
0.209861 0.026274 0.000000 
0.235753 0.060665 0.000000 
0.202813 0.071958 0.000000 
0.220576 0.077831 0.000000 
0.183696 0.081801 0.000000 
0.377072 0.275493 0.000000 
0.356959 0.272176 0.000000 
0.262427 0.381295 0.000000 
0.259466 0.358134 0.000000 
0.144113 0.343780 0.000000 
0.274192 0.347365 0.000000 
0.327407 0.118055 0.000000 
0.064049 0.241483 0.000000 
0.146829 0.074714 0.000000 
0.355087 0.244466 0.000000 
0.222534 0.328677 0.000000 
0.313261 0.273396 0.000000 
0.248111 0.098218 0.000000 
0.125216 0.296566 0.000000 
0.109501 0.147971 0.000000 
0.323947 0.168794 0.000000 
0.161906 0.317864 0.000000 
0.264345 0.314854 0.000000 
0.300132 0.133685 0.000000 
0.095682 0.239651 0.000000 
0.155655 0.105146 0.000000 
0.325862 0.232886 0.000000 
0.231499 0.358483 0.000000 
0.344946 0.285644 0.000000 
0.253001 0.064602 0.000000 
0.106224 0.324731 0.000000 
0.077816 0.135723 0.000000 
0.353279 0.151658 0.000000 
0.211174 0.315796 0.000000 
0.126553 0.144955 0.000000 
0.304125 0.151041 0.000000 
0.289967 0.163831 0.000000 
0.289988 0.180157 0.000000 
0.275839 0.155650 0.000000 
0.308397 0.184283 0.000000 
0.275796 0.189679 0.000000 
0.260497 0.163180 0.000000 
0.281470 0.137644 0.000000 
0.276693 0.206919 0.000000 
0.260433 0.180882 0.000000 
0.246015 0.153783 0.000000 
0.292496 0.218894 0.000000 
0.262211 0.216394 0.000000 
0.230568 0.161587 0.000000 
0.243545 0.134110 0.000000 
0.193964 0.321700 0.000000 
0.215547 0.299160 0.000000 
0.132668 0.127818 0.000000 
0.246762 0.208570 0.000000 
0.200842 0.289250 0.000000 
0.233472 0.298629 0.000000 
0.246536 0.314885 0.000000 
0.232257 0.218036 0.000000 
0.245882 0.190299 0.000000 
0.181764 0.295172 0.000000 
0.233203 0.235330 0.000000 
0.216807 0.210208 0.000000 
0.248654 0.243158 0.000000 
0.218699 0.244797 0.000000 
0.202302 0.219674 0.000000 
0.215928 0.190844 0.000000 
0.263157 0.233687 0.000000 
0.219740 0.263251 0.000000 
0.203248 0.236969 0.000000 
0.188744 0.246435 0.000000 
0.187302 0.263569 0.000000 
0.202847 0.272557 0.000000 
0.166761 0.274237 0.000000 
0.173293 0.238607 0.000000 
0.154807 0.248058 0.000000 
0.172347 0.221313 0.000000 
0.149717 0.266553 0.000000 
0.129174 0.276184 0.000000 
0.133473 0.239510 0.000000 
0.156896 0.213485 0.000000 
0.186852 0.211846 0.000000 
0.136508 0.222232 0.000000 
0.155950 0.196190 0.000000 
0.185906 0.194551 0.000000 
0.139030 0.181929 0.000000 
0.170455 0.186723 0.000000 
0.169509 0.169429 0.000000 
0.155725 0.157655 0.000000 
0.160073 0.137105 0.000000 
0.184013 0.159962 0.000000 
0.178376 0.139959 0.000000 
0.199531 0.165721 0.000000 
0.215051 0.154736 0.000000 
0.254803 0.119462 0.000000 
0.150778 0.303959 0.000000 
0.163228 0.289146 0.000000 
0.177015 0.099334 0.000000 
0.293447 0.275045 0.000000 
0.287332 0.292182 0.000000 
0.279952 0.262606 0.000000 
0.262362 0.268104 0.000000 
0.258311 0.285360 0.000000 
0.239805 0.286960 0.000000 
0.233871 0.270250 0.000000 
0.248281 0.259624 0.000000 
0.093440 0.215626 0.000000 
0.314782 0.246830 0.000000 
0.295231 0.239337 0.000000 
0.200477 0.183016 0.000000 
0.239971 0.328296 0.000000 
0.245761 0.348640 0.000000 
0.100965 0.165695 0.000000 
0.139751 0.160688 0.000000 
0.230498 0.180401 0.000000 
0.227369 0.095561 0.000000 
0.179258 0.310986 0.000000 
0.150214 0.123002 0.000000 
0.323836 0.259525 0.000000 
0.346969 0.259320 0.000000 
0.319696 0.151878 0.000000 
0.333958 0.133664 0.000000 
0.113036 0.248232 0.000000 
0.136386 0.309961 0.000000 
0.131439 0.332560 0.000000 
0.269786 0.296998 0.000000 
0.310809 0.216469 0.000000 
0.280374 0.244655 0.000000 
0.272870 0.121610 0.000000 
0.113828 0.266410 0.000000 
0.317983 0.199748 0.000000 
0.226082 0.126546 0.000000 
0.213035 0.139368 0.000000 
0.216597 0.109242 0.000000 
0.191878 0.130350 0.000000 
0.070140 0.151662 0.000000 
0.193393 0.110981 0.000000 
0.124108 0.199050 0.000000 
0.106894 0.192121 0.000000 
0.775743 0.980247 0.000000 
0.671050 0.640842 0.000000 
0.979931 0.818227 0.000000 
0.606575 0.846893 0.000000 
0.885390 0.624779 0.000000 
0.831239 0.973394 0.000000 
0.671050 0.939158 0.000000 
0.775743 0.599753 0.000000 
0.929852 0.919764 0.000000 
0.605966 0.733514 0.000000 
0.961887 0.707223 0.000000 
0.720217 0.968888 0.000000 
0.721321 0.614487 0.000000 
0.961887 0.872777 0.000000 
0.599219 0.790000 0.000000 
0.930489 0.659105 0.000000 
0.632370 0.897470 0.000000 
0.832453 0.604003 0.000000 
0.886487 0.956582 0.000000 
0.631094 0.681334 0.000000 
0.978650 0.761566 0.000000 
0.747547 0.975997 0.000000 
0.693717 0.623834 0.000000 
0.969973 0.845241 0.000000 
0.603605 0.817902 0.000000 
0.908950 0.640842 0.000000 
0.803875 0.981469 0.000000 
0.648699 0.920741 0.000000 
0.804118 0.598011 0.000000 
0.908950 0.939158 0.000000 
0.618113 0.707223 0.000000 
0.974034 0.733514 0.000000 
0.696096 0.953168 0.000000 
0.747547 0.604003 0.000000 
0.948906 0.898666 0.000000 
0.601350 0.761566 0.000000 
0.945400 0.683734 0.000000 
0.618113 0.872777 0.000000 
0.860581 0.610898 0.000000 
0.859700 0.967593 0.000000 
0.650148 0.660236 0.000000 
0.980781 0.790000 0.000000 
0.762877 0.969951 0.000000 
0.765510 0.952479 0.000000 
0.752660 0.942254 0.000000 
[...]
POINT_DATA 616 
VECTORS X_GC float 
0.195743 0.400247 0.000000 
0.091050 0.060842 0.000000 
0.399931 0.238227 0.000000 
0.026575 0.266893 0.000000 
0.305390 0.044779 0.000000 
0.251239 0.393394 0.000000 
0.091050 0.359158 0.000000 
0.195743 0.019753 0.000000 
0.349852 0.339764 0.000000 
0.025966 0.153514 0.000000 
0.381887 0.127223 0.000000 
0.140217 0.388888 0.000000 
0.141321 0.034487 0.000000 
0.381887 0.292777 0.000000 
0.019219 0.210000 0.000000 
0.350489 0.079105 0.000000 
0.052370 0.317470 0.000000 
0.252453 0.024003 0.000000 
0.306487 0.376582 0.000000 
0.051094 0.101334 0.000000 
0.398650 0.181566 0.000000 
0.167547 0.395997 0.000000 
0.113717 0.043834 0.000000 
0.389973 0.265241 0.000000 
0.023605 0.237902 0.000000 
0.328950 0.060842 0.000000 
0.223875 0.401469 0.000000 
0.068699 0.340741 0.000000 
0.224118 0.018011 0.000000 
0.328950 0.359158 0.000000 
0.038113 0.127223 0.000000 
0.394034 0.153514 0.000000 
0.116096 0.373168 0.000000 
0.167547 0.024003 0.000000 
0.368906 0.318666 0.000000 
0.021350 0.181566 0.000000 
0.365400 0.103734 0.000000 
0.038113 0.292777 0.000000 
0.280581 0.030898 0.000000 
0.279700 0.387593 0.000000 
0.070148 0.080236 0.000000 
0.400781 0.210000 0.000000 
0.182877 0.389951 0.000000 
0.185510 0.372479 0.000000 
0.172660 0.362254 0.000000 
0.200803 0.366495 0.000000 
0.158756 0.368921 0.000000 
0.156276 0.385194 0.000000 
0.144198 0.360572 0.000000 
0.132444 0.373204 0.000000 
0.174178 0.345210 0.000000 
0.204376 0.349762 0.000000 
0.212045 0.376925 0.000000 
0.228019 0.373033 0.000000 
0.209618 0.393205 0.000000 
0.235528 0.388569 0.000000 
0.160189 0.335086 0.000000 
0.190601 0.338703 0.000000 
0.219098 0.345641 0.000000 
0.052398 0.300992 0.000000 
0.067699 0.292157 0.000000 
0.067682 0.275735 0.000000 
0.081913 0.300383 0.000000 
0.053744 0.268938 0.000000 
0.039476 0.277146 0.000000 
0.050919 0.251936 0.000000 
0.033714 0.250622 0.000000 
0.081954 0.266296 0.000000 
0.097223 0.292743 0.000000 
0.080512 0.316189 0.000000 
0.092235 0.328824 0.000000 
0.066271 0.324442 0.000000 
0.084771 0.344381 0.000000 
0.081147 0.249046 0.000000 
0.097281 0.275078 0.000000 
0.109812 0.304456 0.000000 
0.108972 0.358309 0.000000 
0.116681 0.339439 0.000000 
0.333780 0.343403 0.000000 
0.321762 0.330451 0.000000 
0.305756 0.334122 0.000000 
0.326619 0.314763 0.000000 
0.302435 0.349639 0.000000 
0.313611 0.361723 0.000000 
0.287509 0.358256 0.000000 
0.290056 0.375323 0.000000 
0.293377 0.322309 0.000000 
0.315764 0.301537 0.000000 
0.342341 0.312612 0.000000 
0.352050 0.298371 0.000000 
0.353556 0.324660 0.000000 
0.368878 0.302187 0.000000 
0.276739 0.326934 0.000000 
0.298529 0.305411 0.000000 
0.324382 0.286658 0.000000 
0.030780 0.223067 0.000000 
0.061539 0.222794 0.000000 
0.086220 0.076597 0.000000 
0.098238 0.089549 0.000000 
0.114244 0.085878 0.000000 
0.093381 0.105237 0.000000 
0.117769 0.070777 0.000000 
0.106593 0.058693 0.000000 
0.133716 0.064239 0.000000 
0.131169 0.047173 0.000000 
0.126623 0.097691 0.000000 
0.104236 0.118463 0.000000 
0.077659 0.107388 0.000000 
0.067950 0.121629 0.000000 
0.066444 0.095340 0.000000 
0.051122 0.117813 0.000000 
0.143261 0.093066 0.000000 
0.121471 0.114589 0.000000 
0.098380 0.134709 0.000000 
0.312515 0.059638 0.000000 
0.302562 0.074237 0.000000 
0.309702 0.089025 0.000000 
0.286187 0.072993 0.000000 
0.325123 0.089051 0.000000 
0.334417 0.075466 0.000000 
0.334616 0.102889 0.000000 
0.350687 0.096608 0.000000 
0.300940 0.103722 0.000000 
0.275707 0.086519 0.000000 
0.280590 0.058144 0.000000 
0.264547 0.051847 0.000000 
0.289841 0.044529 0.000000 
0.264522 0.034592 0.000000 
0.309152 0.118914 0.000000 
0.283320 0.102460 0.000000 
0.258566 0.084425 0.000000 
0.391474 0.196400 0.000000 
0.373855 0.197721 0.000000 
0.366745 0.212524 0.000000 
0.364618 0.184142 0.000000 
0.376340 0.224596 0.000000 
0.392756 0.223393 0.000000 
0.371439 0.240646 0.000000 
0.386370 0.249295 0.000000 
0.349791 0.214836 0.000000 
0.347509 0.184383 0.000000 
0.372738 0.170509 0.000000 
0.367658 0.154040 0.000000 
0.389150 0.169253 0.000000 
0.381133 0.143262 0.000000 
0.343034 0.230728 0.000000 
0.339792 0.200273 0.000000 
0.341250 0.168368 0.000000 
0.365372 0.120213 0.000000 
0.350239 0.133869 0.000000 
0.157380 0.038181 0.000000 
0.165905 0.069262 0.000000 
0.236984 0.028307 0.000000 
0.229475 0.043843 0.000000 
0.028526 0.196400 0.000000 
0.044705 0.198843 0.000000 
0.053942 0.185264 0.000000 
0.046960 0.215545 0.000000 
0.047262 0.170509 0.000000 
0.030850 0.169253 0.000000 
0.052342 0.154040 0.000000 
0.038867 0.143262 0.000000 
0.071051 0.185505 0.000000 
0.082169 0.168372 0.000000 
0.076393 0.206332 0.000000 
0.182877 0.030049 0.000000 
0.185510 0.047521 0.000000 
0.200803 0.053505 0.000000 
0.169728 0.053435 0.000000 
0.212288 0.042555 0.000000 
0.209861 0.026274 0.000000 
0.235753 0.060665 0.000000 
0.202813 0.071958 0.000000 
0.220576 0.077831 0.000000 
0.183696 0.081801 0.000000 
0.377072 0.275493 0.000000 
0.356959 0.272176 0.000000 
0.262427 0.381295 0.000000 
0.259466 0.358134 0.000000 
0.144113 0.343780 0.000000 
0.274192 0.347365 0.000000 
0.327407 0.118055 0.000000 
0.064049 0.241483 0.000000 
0.146829 0.074714 0.000000 
0.355087 0.244466 0.000000 
0.222534 0.328677 0.000000 
0.313261 0.273396 0.000000 
0.248111 0.098218 0.000000 
0.125216 0.296566 0.000000 
0.109501 0.147971 0.000000 
0.323947 0.168794 0.000000 
0.161906 0.317864 0.000000 
0.264345 0.314854 0.000000 
0.300132 0.133685 0.000000 
0.095682 0.239651 0.000000 
0.155655 0.105146 0.000000 
0.325862 0.232886 0.000000 
0.231499 0.358483 0.000000 
0.344946 0.285644 0.000000 
0.253001 0.064602 0.000000 
0.106224 0.324731 0.000000 
0.077816 0.135723 0.000000 
0.353279 0.151658 0.000000 
0.211174 0.315796 0.000000 
0.126553 0.144955 0.000000 
0.304125 0.151041 0.000000 
0.289967 0.163831 0.000000 
0.289988 0.180157 0.000000 
0.275839 0.155650 0.000000 
0.308397 0.184283 0.000000 
0.275796 0.189679 0.000000 
0.260497 0.163180 0.000000 
0.281470 0.137644 0.000000 
0.276693 0.206919 0.000000 
0.260433 0.180882 0.000000 
0.246015 0.153783 0.000000 
0.292496 0.218894 0.000000 
0.262211 0.216394 0.000000 
0.230568 0.161587 0.000000 
0.243545 0.134110 0.000000 
0.193964 0.321700 0.000000 
0.215547 0.299160 0.000000 
0.132668 0.127818 0.000000 
0.246762 0.208570 0.000000 
0.200842 0.289250 0.000000 
0.233472 0.298629 0.000000 
0.246536 0.314885 0.000000 
0.232257 0.218036 0.000000 
0.245882 0.190299 0.000000 
0.181764 0.295172 0.000000 
0.233203 0.235330 0.000000 
0.216807 0.210208 0.000000 
0.248654 0.243158 0.000000 
0.218699 0.244797 0.000000 
0.202302 0.219674 0.000000 
0.215928 0.190844 0.000000 
0.263157 0.233687 0.000000 
0.219740 0.263251 0.000000 
0.203248 0.236969 0.000000 
0.188744 0.246435 0.000000 
0.187302 0.263569 0.000000 
0.202847 0.272557 0.000000 
0.166761 0.274237 0.000000 
0.173293 0.238607 0.000000 
0.154807 0.248058 0.000000 
0.172347 0.221313 0.000000 
0.149717 0.266553 0.000000 
0.129174 0.276184 0.000000 
0.133473 0.239510 0.000000 
0.156896 0.213485 0.000000 
0.186852 0.211846 0.000000 
0.136508 0.222232 0.000000 
0.155950 0.196190 0.000000 
0.185906 0.194551 0.000000 
0.139030 0.181929 0.000000 
0.170455 0.186723 0.000000 
0.169509 0.169429 0.000000 
0.155725 0.157655 0.000000 
0.160073 0.137105 0.000000 
0.184013 0.159962 0.000000 
0.178376 0.139959 0.000000 
0.199531 0.165721 0.000000 
0.215051 0.154736 0.000000 
0.254803 0.119462 0.000000 
0.150778 0.303959 0.000000 
0.163228 0.289146 0.000000 
0.177015 0.099334 0.000000 
0.293447 0.275045 0.000000 
0.287332 0.292182 0.000000 
0.279952 0.262606 0.000000 
0.262362 0.268104 0.000000 
0.258311 0.285360 0.000000 
0.239805 0.286960 0.000000 
0.233871 0.270250 0.000000 
0.248281 0.259624 0.000000 
0.093440 0.215626 0.000000 
0.314782 0.246830 0.000000 
0.295231 0.239337 0.000000 
0.200477 0.183016 0.000000 
0.239971 0.328296 0.000000 
0.245761 0.348640 0.000000 
0.100965 0.165695 0.000000 
0.139751 0.160688 0.000000 
0.230498 0.180401 0.000000 
0.227369 0.095561 0.000000 
0.179258 0.310986 0.000000 
0.150214 0.123002 0.000000 
0.323836 0.259525 0.000000 
0.346969 0.259320 0.000000 
0.319696 0.151878 0.000000 
0.333958 0.133664 0.000000 
0.113036 0.248232 0.000000 
0.136386 0.309961 0.000000 
0.131439 0.332560 0.000000 
0.269786 0.296998 0.000000 
0.310809 0.216469 0.000000 
0.280374 0.244655 0.000000 
0.272870 0.121610 0.000000 
0.113828 0.266410 0.000000 
0.317983 0.199748 0.000000 
0.226082 0.126546 0.000000 
0.213035 0.139368 0.000000 
0.216597 0.109242 0.000000 
0.191878 0.130350 0.000000 
0.070140 0.151662 0.000000 
0.193393 0.110981 0.000000 
0.124108 0.199050 0.000000 
0.106894 0.192121 0.000000 
0.775743 0.980247 0.000000 
0.671050 0.640842 0.000000 
0.979931 0.818227 0.000000 
0.606575 0.846893 0.000000 
0.885390 0.624779 0.000000 
0.831239 0.973394 0.000000 
0.671050 0.939158 0.000000 
0.775743 0.599753 0.000000 
0.929852 0.919764 0.000000 
0.605966 0.733514 0.000000 
0.961887 0.707223 0.000000 
0.720217 0.968888 0.000000 
0.721321 0.614487 0.000000 
0.961887 0.872777 0.000000 
0.599219 0.790000 0.000000 
0.930489 0.659105 0.000000 
0.632370 0.897470 0.000000 
0.832453 0.604003 0.000000 
0.886487 0.956582 0.000000 
0.631094 0.681334 0.000000 
0.978650 0.761566 0.000000 
0.747547 0.975997 0.000000 
0.693717 0.623834 0.000000 
0.969973 0.845241 0.000000 
0.603605 0.817902 0.000000 
0.908950 0.640842 0.000000 
0.803875 0.981469 0.000000 
0.648699 0.920741 0.000000 
0.804118 0.598011 0.000000 
0.908950 0.939158 0.000000 
0.618113 0.707223 0.000000 
0.974034 0.733514 0.000000 
0.696096 0.953168 0.000000 
0.747547 0.604003 0.000000 
0.948906 0.898666 0.000000 
0.601350 0.761566 0.000000 
0.945400 0.683734 0.000000 
0.618113 0.872777 0.000000 
0.860581 0.610898 0.000000 
0.859700 0.967593 0.000000 
0.650148 0.660236 0.000000 
0.980781 0.790000 0.000000 
0.762877 0.969951 0.000000 
0.765510 0.952479 0.000000 
0.752660 0.942254 0.000000 
0.780803 0.946495 0.000000 
0.738756 0.948921 0.000000 
0.736276 0.965194 0.000000 
0.724198 0.940572 0.000000 
0.712444 0.953204 0.000000 
0.754178 0.925210 0.000000 
0.784376 0.929762 0.000000 
0.792045 0.956925 0.000000 
0.808019 0.953033 0.000000 
0.789618 0.973205 0.000000 
0.815528 0.968569 0.000000 
0.740189 0.915086 0.000000 
0.770601 0.918703 0.000000 
0.799098 0.925641 0.000000 
0.632398 0.880992 0.000000 
0.647699 0.872157 0.000000 
0.647682 0.855735 0.000000 
0.661913 0.880383 0.000000 
0.633744 0.848938 0.000000 
0.619476 0.857146 0.000000 
0.630919 0.831936 0.000000 
0.613714 0.830622 0.000000 
0.661954 0.846296 0.000000 
0.677223 0.872743 0.000000 
0.660512 0.896189 0.000000 
0.672235 0.908824 0.000000 
0.646271 0.904442 0.000000 
0.664771 0.924381 0.000000 
0.661147 0.829046 0.000000 
0.677281 0.855078 0.000000 
0.689812 0.884456 0.000000 
0.688972 0.938309 0.000000 
0.696681 0.919439 0.000000 
0.913780 0.923403 0.000000 
0.901762 0.910451 0.000000 
0.885756 0.914122 0.000000 
0.906619 0.894763 0.000000 
0.882435 0.929639 0.000000 
0.893611 0.941723 0.000000 
0.867509 0.938256 0.000000 
0.870056 0.955323 0.000000 
0.873377 0.902309 0.000000 
0.895764 0.881537 0.000000 
0.922341 0.892612 0.000000 
0.932050 0.878371 0.000000 
0.933556 0.904660 0.000000 
0.948878 0.882187 0.000000 
0.856739 0.906934 0.000000 
0.878529 0.885411 0.000000 
0.904382 0.866658 0.000000 
0.610780 0.803067 0.000000 
0.641539 0.802794 0.000000 
0.666220 0.656597 0.000000 
0.678238 0.669549 0.000000 
0.694244 0.665878 0.000000 
0.673381 0.685237 0.000000 
0.697769 0.650777 0.000000 
0.686593 0.638693 0.000000 
0.713716 0.644239 0.000000 
0.711169 0.627173 0.000000 
0.706623 0.677691 0.000000 
0.684236 0.698463 0.000000 
0.657659 0.687388 0.000000 
0.647950 0.701629 0.000000 
0.646444 0.675340 0.000000 
0.631122 0.697813 0.000000 
0.723261 0.673066 0.000000 
0.701471 0.694589 0.000000 
0.678380 0.714709 0.000000 
0.892515 0.639638 0.000000 
0.882562 0.654237 0.000000 
0.889702 0.669025 0.000000 
0.866187 0.652993 0.000000 
0.905123 0.669051 0.000000 
0.914417 0.655466 0.000000 
0.914616 0.682889 0.000000 
0.930687 0.676608 0.000000 
0.880940 0.683722 0.000000 
0.855707 0.666519 0.000000 
0.860590 0.638144 0.000000 
0.844547 0.631847 0.000000 
0.869841 0.624529 0.000000 
0.844522 0.614592 0.000000 
0.889152 0.698914 0.000000 
0.863320 0.682460 0.000000 
0.838566 0.664425 0.000000 
0.971474 0.776400 0.000000 
0.953855 0.777721 0.000000 
0.946745 0.792524 0.000000 
0.944618 0.764142 0.000000 
0.956340 0.804596 0.000000 
0.972756 0.803393 0.000000 
0.951439 0.820646 0.000000 
0.966370 0.829295 0.000000 
0.929791 0.794836 0.000000 
0.927509 0.764383 0.000000 
0.952738 0.750509 0.000000 
0.947658 0.734040 0.000000 
0.969150 0.749253 0.000000 
0.961133 0.723262 0.000000 
0.923034 0.810728 0.000000 
0.919792 0.780273 0.000000 
0.921250 0.748368 0.000000 
0.945372 0.700213 0.000000 
0.930239 0.713869 0.000000 
0.737380 0.618181 0.000000 
0.745905 0.649262 0.000000 
0.816984 0.608307 0.000000 
0.809475 0.623843 0.000000 
0.608526 0.776400 0.000000 
0.624705 0.778843 0.000000 
0.633942 0.765264 0.000000 
0.626960 0.795545 0.000000 
0.627262 0.750509 0.000000 
0.610850 0.749253 0.000000 
0.632342 0.734040 0.000000 
0.618867 0.723262 0.000000 
0.651051 0.765505 0.000000 
0.662169 0.748372 0.000000 
0.656393 0.786332 0.000000 
0.762877 0.610049 0.000000 
0.765510 0.627521 0.000000 
0.780803 0.633505 0.000000 
0.749728 0.633435 0.000000 
0.792288 0.622555 0.000000 
0.789861 0.606274 0.000000 
0.815753 0.640665 0.000000 
0.782813 0.651958 0.000000 
0.800576 0.657831 0.000000 
0.763696 0.661801 0.000000 
0.957072 0.855493 0.000000 
0.936959 0.852176 0.000000 
0.842427 0.961295 0.000000 
0.839466 0.938134 0.000000 
0.724113 0.923780 0.000000 
0.854192 0.927365 0.000000 
0.907407 0.698055 0.000000 
0.644049 0.821483 0.000000 
0.726829 0.654714 0.000000 
0.935087 0.824466 0.000000 
0.802534 0.908677 0.000000 
0.893261 0.853396 0.000000 
0.828111 0.678218 0.000000 
0.705216 0.876566 0.000000 
0.689501 0.727971 0.000000 
0.903947 0.748794 0.000000 
0.741906 0.897864 0.000000 
0.844345 0.894854 0.000000 
0.880132 0.713685 0.000000 
0.675682 0.819651 0.000000 
0.735655 0.685146 0.000000 
0.905862 0.812886 0.000000 
0.811499 0.938483 0.000000 
0.924946 0.865644 0.000000 
0.833001 0.644602 0.000000 
0.686224 0.904731 0.000000 
0.657816 0.715723 0.000000 
0.933279 0.731658 0.000000 
0.791174 0.895796 0.000000 
0.706553 0.724955 0.000000 
0.884125 0.731041 0.000000 
0.869967 0.743831 0.000000 
0.869988 0.760157 0.000000 
0.855839 0.735650 0.000000 
0.888397 0.764283 0.000000 
0.855796 0.769679 0.000000 
0.840497 0.743180 0.000000 
0.861470 0.717644 0.000000 
0.856693 0.786919 0.000000 
0.840433 0.760882 0.000000 
0.826015 0.733783 0.000000 
0.872496 0.798894 0.000000 
0.842211 0.796394 0.000000 
0.810568 0.741587 0.000000 
0.823545 0.714110 0.000000 
0.773964 0.901700 0.000000 
0.795547 0.879160 0.000000 
0.712668 0.707818 0.000000 
0.826762 0.788570 0.000000 
0.780842 0.869250 0.000000 
0.813472 0.878629 0.000000 
0.826536 0.894885 0.000000 
0.812257 0.798036 0.000000 
0.825882 0.770299 0.000000 
0.761764 0.875172 0.000000 
0.813203 0.815330 0.000000 
0.796807 0.790208 0.000000 
0.828654 0.823158 0.000000 
0.798699 0.824797 0.000000 
0.782302 0.799674 0.000000 
0.795928 0.770844 0.000000 
0.843157 0.813687 0.000000 
0.799740 0.843251 0.000000 
0.783248 0.816969 0.000000 
0.768744 0.826435 0.000000 
0.767302 0.843569 0.000000 
0.782847 0.852557 0.000000 
0.746761 0.854237 0.000000 
0.753293 0.818607 0.000000 
0.734807 0.828058 0.000000 
0.752347 0.801313 0.000000 
0.729717 0.846553 0.000000 
0.709174 0.856184 0.000000 
0.713473 0.819510 0.000000 
0.736896 0.793485 0.000000 
0.766852 0.791846 0.000000 
0.716508 0.802232 0.000000 
0.735950 0.776190 0.000000 
0.765906 0.774551 0.000000 
0.719030 0.761929 0.000000 
0.750455 0.766723 0.000000 
0.749509 0.749429 0.000000 
0.735725 0.737655 0.000000 
0.740073 0.717105 0.000000 
0.764013 0.739962 0.000000 
0.758376 0.719959 0.000000 
0.779531 0.745721 0.000000 
0.795051 0.734736 0.000000 
0.834803 0.699462 0.000000 
0.730778 0.883959 0.000000 
0.743228 0.869146 0.000000 
0.757015 0.679334 0.000000 
0.873447 0.855045 0.000000 
0.867332 0.872182 0.000000 
0.859952 0.842606 0.000000 
0.842362 0.848104 0.000000 
0.838311 0.865360 0.000000 
0.819805 0.866960 0.000000 
0.813871 0.850250 0.000000 
0.828281 0.839624 0.000000 
0.673440 0.795626 0.000000 
0.894782 0.826830 0.000000 
0.875231 0.819337 0.000000 
0.780477 0.763016 0.000000 
0.819971 0.908296 0.000000 
0.825761 0.928640 0.000000 
0.680965 0.745695 0.000000 
0.719751 0.740688 0.000000 
0.810498 0.760401 0.000000 
0.807369 0.675561 0.000000 
0.759258 0.890986 0.000000 
0.730214 0.703002 0.000000 
0.903836 0.839525 0.000000 
0.926969 0.839320 0.000000 
0.899696 0.731878 0.000000 
0.913958 0.713664 0.000000 
0.693036 0.828232 0.000000 
0.716386 0.889961 0.000000 
0.711439 0.912560 0.000000 
0.849786 0.876998 0.000000 
0.890809 0.796469 0.000000 
0.860374 0.824655 0.000000 
0.852870 0.701610 0.000000 
0.693828 0.846410 0.000000 
0.897983 0.779748 0.000000 
0.806082 0.706546 0.000000 
0.793035 0.719368 0.000000 
0.796597 0.689242 0.000000 
0.771878 0.710350 0.000000 
0.650140 0.731662 0.000000 
0.773393 0.690981 0.000000 
0.704108 0.779050 0.000000 
0.686894 0.772121 0.000000 
VECTORS X_EC float 
0.995059 0.914859 0.000000 
-0.216836 0.821006 0.000000 
0.235455 0.998624 0.000000 
-0.337864 -0.468498 0.000000 
0.104415 -0.892195 0.000000 
-0.867875 0.024779 0.000000 
-0.183164 0.821006 0.000000 
0.604941 0.914859 0.000000 
0.204726 -0.002960 0.000000 
-0.070289 -0.480687 0.000000 
0.455531 0.637746 0.000000 
-0.777762 -0.195664 0.000000 
0.310264 -0.173583 0.000000 
-0.855531 0.637746 0.000000 
0.800000 -0.615610 0.000000 
-0.582104 0.009782 0.000000 
0.650590 0.047395 0.000000 
0.519945 0.049053 0.000000 
-0.531640 -0.870264 0.000000 
0.973314 0.021885 0.000000 
-0.631313 0.972993 0.000000 
-0.919945 0.350947 0.000000 
0.123323 -0.725653 0.000000 
-0.304818 0.799455 0.000000 
0.241963 -0.527905 0.000000 
-0.216836 -0.421006 0.000000 
0.970625 -0.522498 0.000000 
0.185175 0.373979 0.000000 
0.639789 -0.517643 0.000000 
-0.183164 -0.421006 0.000000 
0.455531 -0.237746 0.000000 
-0.070289 0.880687 0.000000 
-0.463364 -0.678072 0.000000 
0.519945 0.350947 0.000000 
0.626686 0.378115 0.000000 
-0.631313 -0.572993 0.000000 
0.925324 0.308005 0.000000 
-0.855531 -0.237746 0.000000 
0.382041 0.611627 0.000000 
-0.751851 0.593999 0.000000 
-0.604726 0.402960 0.000000 
0.800000 -0.984390 0.000000 
-0.799014 0.657536 0.000000 
-0.449589 0.710203 0.000000 
-0.245071 0.453202 0.000000 
-0.329909 -0.983931 0.000000 
-0.378428 0.175113 0.000000 
-0.703876 0.125524 0.000000 
-0.211441 -0.116031 0.000000 
-0.464085 -0.351124 0.000000 
0.095794 0.483569 0.000000 
0.004762 -0.912477 0.000000 
-0.538494 -0.759096 0.000000 
-0.460665 -0.439629 0.000000 
-0.864101 -0.807638 0.000000 
-0.771379 -0.289448 0.000000 
0.298274 0.203770 0.000000 
0.225947 0.812024 0.000000 
0.087186 -0.618034 0.000000 
0.980167 0.047957 0.000000 
-0.843147 0.353986 0.000000 
-0.514701 0.353647 0.000000 
0.992336 0.638259 0.000000 
-0.378768 0.074889 0.000000 
-0.542912 -0.210475 0.000000 
-0.038727 0.018373 0.000000 
-0.012444 -0.325729 0.000000 
-0.325917 0.639079 0.000000 
-0.854865 0.944467 0.000000 
0.676214 0.610248 0.000000 
0.423528 0.844707 0.000000 
0.511154 0.325413 0.000000 
0.112385 0.695417 0.000000 
0.019083 0.622932 0.000000 
-0.501564 0.945625 0.000000 
0.910875 -0.803768 0.000000 
-0.166182 -0.820564 0.000000 
0.211228 -0.666377 0.000000 
0.131936 -0.324398 0.000000 
0.390976 -0.564752 0.000000 
0.317560 -0.884888 0.000000 
0.704730 -0.467617 0.000000 
0.007225 -0.951301 0.000000 
-0.234458 -0.727772 0.000000 
-0.165127 0.750176 0.000000 
-0.506451 0.801123 0.000000 
0.553827 0.867546 0.000000 
0.969260 -0.684723 0.000000 
0.747766 -0.153188 0.000000 
-0.967426 0.040991 0.000000 
0.506801 0.071116 0.000000 
0.956263 0.377553 0.000000 
0.461315 0.534789 0.000000 