# vtk DataFile Version 3.0 
vtk output 
ASCII 
DATASET UNSTRUCTURED_GRID 
POINTS 616 float 
0.210743 0.415247 0.000000 
0.106050 0.075842 0.000000 
0.414931 0.253227 0.000000 
0.041575 0.281893 0.000000 
0.320390 0.059779 0.000000 
0.266239 0.408394 0.000000 
0.106050 0.374158 0.000000 
0.210743 0.034753 0.000000 
0.364852 0.354764 0.000000 
0.040966 0.168514 0.000000 
0.396887 0.142223 0.000000 
0.155217 0.403888 0.000000 
0.156321 0.049487 0.000000 
0.396887 0.307777 0.000000 
0.034219 0.225000 0.000000 
0.365489 0.094105 0.000000 
0.067370 0.332470 0.000000 
0.267453 0.039003 0.000000 
0.321487 0.391582 0.000000 
0.066094 0.116334 0.000000 
0.413650 0.196566 0.000000 
0.182547 0.410997 0.000000 
0.128717 0.058834 0.000000 
0.404973 0.280241 0.000000 
0.038605 0.252902 0.000000 
0.343950 0.075842 0.000000 
0.238875 0.416469 0.000000 
0.083699 0.355741 0.000000 
0.239118 0.033011 0.000000 
0.343950 0.374158 0.000000 
0.053113 0.142223 0.000000 
0.409034 0.168514 0.000000 
0.131096 0.388168 0.000000 
0.182547 0.039003 0.000000 
0.383906 0.333666 0.000000 
0.036350 0.196566 0.000000 
0.380400 0.118734 0.000000 
0.053113 0.307777 0.000000 
0.295581 0.045898 0.000000 
0.294700 0.402593 0.000000 
0.085148 0.095236 0.000000 
0.415781 0.225000 0.000000 
0.197877 0.404951 0.000000 
0.200510 0.387479 0.000000 
0.187660 0.377254 0.000000 
0.215803 0.381495 0.000000 
0.173756 0.383921 0.000000 
0.171276 0.400194 0.000000 
0.159198 0.375572 0.000000 
0.147444 0.388204 0.000000 
0.189178 0.360210 0.000000 
0.219376 0.364762 0.000000 
0.227045 0.391925 0.000000 
0.243019 0.388033 0.000000 
0.224618 0.408205 0.000000 
0.250528 0.403569 0.000000 
0.175189 0.350086 0.000000 
0.205601 0.353703 0.000000 
0.234098 0.360641 0.000000 
0.067398 0.315992 0.000000 
0.082699 0.307157 0.000000 
0.082682 0.290735 0.000000 
0.096913 0.315383 0.000000 
0.068744 0.283938 0.000000 
0.054476 0.292146 0.000000 
0.065919 0.266936 0.000000 
0.048714 0.265622 0.000000 
0.096954 0.281296 0.000000 
0.112223 0.307743 0.000000 
0.095512 0.331189 0.000000 
0.107235 0.343824 0.000000 
0.081271 0.339442 0.000000 
0.099771 0.359381 0.000000 
0.096147 0.264046 0.000000 
0.112281 0.290078 0.000000 
0.124812 0.319456 0.000000 
0.123972 0.373309 0.000000 
0.131681 0.354439 0.000000 
0.348780 0.358403 0.000000 
0.336762 0.345451 0.000000 
0.320756 0.349122 0.000000 
0.341619 0.329763 0.000000 
0.317435 0.364639 0.000000 
0.328611 0.376723 0.000000 
0.302509 0.373256 0.000000 
0.305056 0.390323 0.000000 
0.308377 0.337309 0.000000 
0.330764 0.316537 0.000000 
0.357341 0.327612 0.000000 
0.367050 0.313371 0.000000 
0.368556 0.339660 0.000000 
0.383878 0.317187 0.000000 
0.291739 0.341934 0.000000 
0.313529 0.320411 0.000000 
0.339382 0.301658 0.000000 
0.045780 0.238067 0.000000 
0.076539 0.237794 0.000000 
0.101220 0.091597 0.000000 
0.113238 0.104549 0.000000 
0.129244 0.100878 0.000000 
0.108381 0.120237 0.000000 
0.132769 0.085777 0.000000 
0.121593 0.073693 0.000000 
0.148716 0.079239 0.000000 
0.146169 0.062173 0.000000 
0.141623 0.112691 0.000000 
0.119236 0.133463 0.000000 
0.092659 0.122388 0.000000 
0.082950 0.136629 0.000000 
0.081444 0.110340 0.000000 
0.066122 0.132813 0.000000 
0.158261 0.108066 0.000000 
0.136471 0.129589 0.000000 
0.113380 0.149709 0.000000 
0.327515 0.074638 0.000000 
0.317562 0.089237 0.000000 
0.324702 0.104025 0.000000 
0.301187 0.087993 0.000000 
0.340123 0.104051 0.000000 
0.349417 0.090466 0.000000 
0.349616 0.117889 0.000000 
0.365687 0.111608 0.000000 
0.315940 0.118722 0.000000 
0.290707 0.101519 0.000000 
0.295590 0.073144 0.000000 
0.279547 0.066847 0.000000 
0.304841 0.059529 0.000000 
0.279522 0.049592 0.000000 
0.324152 0.133914 0.000000 
0.298320 0.117460 0.000000 
0.273566 0.099425 0.000000 
0.406474 0.211400 0.000000 
0.388855 0.212721 0.000000 
0.381745 0.227524 0.000000 
0.379618 0.199142 0.000000 
0.391340 0.239596 0.000000 
0.407756 0.238393 0.000000 
0.386439 0.255646 0.000000 
0.401370 0.264295 0.000000 
0.364791 0.229836 0.000000 
0.362509 0.199383 0.000000 
0.387738 0.185509 0.000000 
0.382658 0.169040 0.000000 
0.404150 0.184253 0.000000 
0.396133 0.158262 0.000000 
0.358034 0.245728 0.000000 
0.354792 0.215273 0.000000 
0.356250 0.183368 0.000000 
0.380372 0.135213 0.000000 
0.365239 0.148869 0.000000 
0.172380 0.053181 0.000000 
0.180905 0.084262 0.000000 
0.251984 0.043307 0.000000 
0.244475 0.058843 0.000000 
0.043526 0.211400 0.000000 
0.059705 0.213843 0.000000 
0.068942 0.200264 0.000000 
0.061960 0.230545 0.000000 
0.062262 0.185509 0.000000 
0.045850 0.184253 0.000000 
0.067342 0.169040 0.000000 
0.053867 0.158262 0.000000 
0.086051 0.200505 0.000000 
0.097169 0.183372 0.000000 
0.091393 0.221332 0.000000 
0.197877 0.045049 0.000000 
0.200510 0.062521 0.000000 
0.215803 0.068505 0.000000 
0.184728 0.068435 0.000000 
0.227288 0.057555 0.000000 
0.224861 0.041274 0.000000 
0.250753 0.075665 0.000000 
0.217813 0.086958 0.000000 
0.235576 0.092831 0.000000 
0.198696 0.096801 0.000000 
0.392072 0.290493 0.000000 
0.371959 0.287176 0.000000 
0.277427 0.396295 0.000000 
0.274466 0.373134 0.000000 
0.159113 0.358780 0.000000 
0.289192 0.362365 0.000000 
0.342407 0.133055 0.000000 
0.079049 0.256483 0.000000 
0.161829 0.089714 0.000000 
0.370087 0.259466 0.000000 
0.237534 0.343677 0.000000 
0.328261 0.288396 0.000000 
0.263111 0.113218 0.000000 
0.140216 0.311566 0.000000 
0.124501 0.162971 0.000000 
0.338947 0.183794 0.000000 
0.176906 0.332864 0.000000 
0.279345 0.329854 0.000000 
0.315132 0.148685 0.000000 
0.110682 0.254651 0.000000 
0.170655 0.120146 0.000000 
0.340862 0.247886 0.000000 
0.246499 0.373483 0.000000 
0.359946 0.300644 0.000000 
0.268001 0.079602 0.000000 
0.121224 0.339731 0.000000 
0.092816 0.150723 0.000000 
0.368279 0.166658 0.000000 
0.226174 0.330796 0.000000 
0.141553 0.159955 0.000000 
0.319125 0.166041 0.000000 
0.304967 0.178831 0.000000 
0.304988 0.195157 0.000000 
0.290839 0.170650 0.000000 
0.323397 0.199283 0.000000 
0.290796 0.204679 0.000000 
0.275497 0.178180 0.000000 
0.296470 0.152644 0.000000 
0.291693 0.221919 0.000000 
0.275433 0.195882 0.000000 
0.261015 0.168783 0.000000 
0.307496 0.233894 0.000000 
0.277211 0.231394 0.000000 
0.245568 0.176587 0.000000 
0.258545 0.149110 0.000000 
0.208964 0.336700 0.000000 
0.230547 0.314160 0.000000 
0.147668 0.142818 0.000000 
0.261762 0.223570 0.000000 
0.215842 0.304250 0.000000 
0.248472 0.313629 0.000000 
0.261536 0.329885 0.000000 
0.247257 0.233036 0.000000 
0.260882 0.205299 0.000000 
0.196764 0.310172 0.000000 
0.248203 0.250330 0.000000 
0.231807 0.225208 0.000000 
0.263654 0.258158 0.000000 
0.233699 0.259797 0.000000 
0.217302 0.234674 0.000000 
0.230928 0.205844 0.000000 
0.278157 0.248687 0.000000 
0.234740 0.278251 0.000000 
0.218248 0.251969 0.000000 
0.203744 0.261435 0.000000 
0.202302 0.278569 0.000000 
0.217847 0.287557 0.000000 
0.181761 0.289237 0.000000 
0.188293 0.253607 0.000000 
0.169807 0.263058 0.000000 
0.187347 0.236313 0.000000 
0.164717 0.281553 0.000000 
0.144174 0.291184 0.000000 
0.148473 0.254510 0.000000 
0.171896 0.228485 0.000000 
0.201852 0.226846 0.000000 
0.151508 0.237232 0.000000 
0.170950 0.211190 0.000000 
0.200906 0.209551 0.000000 
0.154030 0.196929 0.000000 
0.185455 0.201723 0.000000 
0.184509 0.184429 0.000000 
0.170725 0.172655 0.000000 
0.175073 0.152105 0.000000 
0.199013 0.174962 0.000000 
0.193376 0.154959 0.000000 
0.214531 0.180721 0.000000 
0.230051 0.169736 0.000000 
0.269803 0.134462 0.000000 
0.165778 0.318959 0.000000 
0.178228 0.304146 0.000000 
0.192015 0.114334 0.000000 
0.308447 0.290045 0.000000 
0.302332 0.307182 0.000000 
0.294952 0.277606 0.000000 
0.277362 0.283104 0.000000 
0.273311 0.300360 0.000000 
0.254805 0.301960 0.000000 
0.248871 0.285250 0.000000 
0.263281 0.274624 0.000000 
0.108440 0.230626 0.000000 
0.329782 0.261830 0.000000 
0.310231 0.254337 0.000000 
0.215477 0.198016 0.000000 
0.254971 0.343296 0.000000 
0.260761 0.363640 0.000000 
0.115965 0.180695 0.000000 
0.154751 0.175688 0.000000 
0.245498 0.195401 0.000000 
0.242369 0.110561 0.000000 
0.194258 0.325986 0.000000 
0.165214 0.138002 0.000000 
0.338836 0.274525 0.000000 
0.361969 0.274320 0.000000 
0.334696 0.166878 0.000000 
0.348958 0.148664 0.000000 
0.128036 0.263232 0.000000 
0.151386 0.324961 0.000000 
0.146439 0.347560 0.000000 
0.284786 0.311998 0.000000 
0.325809 0.231469 0.000000 
0.295374 0.259655 0.000000 
0.287870 0.136610 0.000000 
0.128828 0.281410 0.000000 
0.332983 0.214748 0.000000 
0.241082 0.141546 0.000000 
0.228035 0.154368 0.000000 
0.231597 0.124242 0.000000 
0.206878 0.145350 0.000000 
0.085140 0.166662 0.000000 
0.208393 0.125981 0.000000 
0.139108 0.214050 0.000000 
0.121894 0.207121 0.000000 
0.760743 0.965247 0.000000 
0.656050 0.625842 0.000000 
0.964931 0.803227 0.000000 
0.591575 0.831893 0.000000 
0.870390 0.609779 0.000000 
0.816239 0.958394 0.000000 
0.656050 0.924158 0.000000 
0.760743 0.584753 0.000000 
0.914852 0.904764 0.000000 
0.590966 0.718514 0.000000 
0.946887 0.692223 0.000000 
0.705217 0.953888 0.000000 
0.706321 0.599487 0.000000 
0.946887 0.857777 0.000000 
0.584219 0.775000 0.000000 
0.915489 0.644105 0.000000 
0.617370 0.882470 0.000000 
0.817453 0.589003 0.000000 
0.871487 0.941582 0.000000 
0.616094 0.666334 0.000000 
0.963650 0.746566 0.000000 
0.732547 0.960997 0.000000 
0.678717 0.608834 0.000000 
0.954973 0.830241 0.000000 
0.588605 0.802902 0.000000 
0.893950 0.625842 0.000000 
0.788875 0.966469 0.000000 
0.633699 0.905741 0.000000 
0.789118 0.583011 0.000000 
0.893950 0.924158 0.000000 
0.603113 0.692223 0.000000 
0.959034 0.718514 0.000000 
0.681096 0.938168 0.000000 
0.732547 0.589003 0.000000 
0.933906 0.883666 0.000000 
0.586350 0.746566 0.000000 
0.930400 0.668734 0.000000 
0.603113 0.857777 0.000000 
0.845581 0.595898 0.000000 
0.844700 0.952593 0.000000 
0.635148 0.645236 0.000000 
0.965781 0.775000 0.000000 
0.747877 0.954951 0.000000 
0.750510 0.937479 0.000000 
0.737660 0.927254 0.000000 
[...]
POINT_DATA 616 
VECTORS X_GC float 
0.210743 0.415247 0.000000 
0.106050 0.075842 0.000000 
0.414931 0.253227 0.000000 
0.041575 0.281893 0.000000 
0.320390 0.059779 0.000000 
0.266239 0.408394 0.000000 
0.106050 0.374158 0.000000 
0.210743 0.034753 0.000000 
0.364852 0.354764 0.000000 
0.040966 0.168514 0.000000 
0.396887 0.142223 0.000000 
0.155217 0.403888 0.000000 
0.156321 0.049487 0.000000 
0.396887 0.307777 0.000000 
0.034219 0.225000 0.000000 
0.365489 0.094105 0.000000 
0.067370 0.332470 0.000000 
0.267453 0.039003 0.000000 
0.321487 0.391582 0.000000 
0.066094 0.116334 0.000000 
0.413650 0.196566 0.000000 
0.182547 0.410997 0.000000 
0.128717 0.058834 0.000000 
0.404973 0.280241 0.000000 
0.038605 0.252902 0.000000 
0.343950 0.075842 0.000000 
0.238875 0.416469 0.000000 
0.083699 0.355741 0.000000 
0.239118 0.033011 0.000000 
0.343950 0.374158 0.000000 
0.053113 0.142223 0.000000 
0.409034 0.168514 0.000000 
0.131096 0.388168 0.000000 
0.182547 0.039003 0.000000 
0.383906 0.333666 0.000000 
0.036350 0.196566 0.000000 
0.380400 0.118734 0.000000 
0.053113 0.307777 0.000000 
0.295581 0.045898 0.000000 
0.294700 0.402593 0.000000 
0.085148 0.095236 0.000000 
0.415781 0.225000 0.000000 
0.197877 0.404951 0.000000 
0.200510 0.387479 0.000000 
0.187660 0.377254 0.000000 
0.215803 0.381495 0.000000 
0.173756 0.383921 0.000000 
0.171276 0.400194 0.000000 
0.159198 0.375572 0.000000 
0.147444 0.388204 0.000000 
0.189178 0.360210 0.000000 
0.219376 0.364762 0.000000 
0.227045 0.391925 0.000000 
0.243019 0.388033 0.000000 
0.224618 0.408205 0.000000 
0.250528 0.403569 0.000000 
0.175189 0.350086 0.000000 
0.205601 0.353703 0.000000 
0.234098 0.360641 0.000000 
0.067398 0.315992 0.000000 
0.082699 0.307157 0.000000 
0.082682 0.290735 0.000000 
0.096913 0.315383 0.000000 
0.068744 0.283938 0.000000 
0.054476 0.292146 0.000000 
0.065919 0.266936 0.000000 
0.048714 0.265622 0.000000 
0.096954 0.281296 0.000000 
0.112223 0.307743 0.000000 
0.095512 0.331189 0.000000 
0.107235 0.343824 0.000000 
0.081271 0.339442 0.000000 
0.099771 0.359381 0.000000 
0.096147 0.264046 0.000000 
0.112281 0.290078 0.000000 
0.124812 0.319456 0.000000 
0.123972 0.373309 0.000000 
0.131681 0.354439 0.000000 
0.348780 0.358403 0.000000 
0.336762 0.345451 0.000000 
0.320756 0.349122 0.000000 
0.341619 0.329763 0.000000 
0.317435 0.364639 0.000000 
0.328611 0.376723 0.000000 
0.302509 0.373256 0.000000 
0.305056 0.390323 0.000000 
0.308377 0.337309 0.000000 
0.330764 0.316537 0.000000 
0.357341 0.327612 0.000000 
0.367050 0.313371 0.000000 
0.368556 0.339660 0.000000 
0.383878 0.317187 0.000000 
0.291739 0.341934 0.000000 
0.313529 0.320411 0.000000 
0.339382 0.301658 0.000000 
0.045780 0.238067 0.000000 
0.076539 0.237794 0.000000 
0.101220 0.091597 0.000000 
0.113238 0.104549 0.000000 
0.129244 0.100878 0.000000 
0.108381 0.120237 0.000000 
0.132769 0.085777 0.000000 
0.121593 0.073693 0.000000 
0.148716 0.079239 0.000000 
0.146169 0.062173 0.000000 
0.141623 0.112691 0.000000 
0.119236 0.133463 0.000000 
0.092659 0.122388 0.000000 
0.082950 0.136629 0.000000 
0.081444 0.110340 0.000000 
0.066122 0.132813 0.000000 
0.158261 0.108066 0.000000 
0.136471 0.129589 0.000000 
0.113380 0.149709 0.000000 
0.327515 0.074638 0.000000 
0.317562 0.089237 0.000000 
0.324702 0.104025 0.000000 
0.301187 0.087993 0.000000 
0.340123 0.104051 0.000000 
0.349417 0.090466 0.000000 
0.349616 0.117889 0.000000 
0.365687 0.111608 0.000000 
0.315940 0.118722 0.000000 
0.290707 0.101519 0.000000 
0.295590 0.073144 0.000000 
0.279547 0.066847 0.000000 
0.304841 0.059529 0.000000 
0.279522 0.049592 0.000000 
0.324152 0.133914 0.000000 
0.298320 0.117460 0.000000 
0.273566 0.099425 0.000000 
0.406474 0.211400 0.000000 
0.388855 0.212721 0.000000 
0.381745 0.227524 0.000000 
0.379618 0.199142 0.000000 
0.391340 0.239596 0.000000 
0.407756 0.238393 0.000000 
0.386439 0.255646 0.000000 
0.401370 0.264295 0.000000 
0.364791 0.229836 0.000000 
0.362509 0.199383 0.000000 
0.387738 0.185509 0.000000 
0.382658 0.169040 0.000000 
0.404150 0.184253 0.000000 
0.396133 0.158262 0.000000 
0.358034 0.245728 0.000000 
0.354792 0.215273 0.000000 
0.356250 0.183368 0.000000 
0.380372 0.135213 0.000000 
0.365239 0.148869 0.000000 
0.172380 0.053181 0.000000 
0.180905 0.084262 0.000000 
0.251984 0.043307 0.000000 
0.244475 0.058843 0.000000 
0.043526 0.211400 0.000000 
0.059705 0.213843 0.000000 
0.068942 0.200264 0.000000 
0.061960 0.230545 0.000000 
0.062262 0.185509 0.000000 
0.045850 0.184253 0.000000 
0.067342 0.169040 0.000000 
0.053867 0.158262 0.000000 
0.086051 0.200505 0.000000 
0.097169 0.183372 0.000000 
0.091393 0.221332 0.000000 
0.197877 0.045049 0.000000 
0.200510 0.062521 0.000000 
0.215803 0.068505 0.000000 
0.184728 0.068435 0.000000 
0.227288 0.057555 0.000000 
0.224861 0.041274 0.000000 
0.250753 0.075665 0.000000 
0.217813 0.086958 0.000000 
0.235576 0.092831 0.000000 
0.198696 0.096801 0.000000 
0.392072 0.290493 0.000000 
0.371959 0.287176 0.000000 
0.277427 0.396295 0.000000 
0.274466 0.373134 0.000000 
0.159113 0.358780 0.000000 
0.289192 0.362365 0.000000 
0.342407 0.133055 0.000000 
0.079049 0.256483 0.000000 
0.161829 0.089714 0.000000 
0.370087 0.259466 0.000000 
0.237534 0.343677 0.000000 
0.328261 0.288396 0.000000 
0.263111 0.113218 0.000000 
0.140216 0.311566 0.000000 
0.124501 0.162971 0.000000 
0.338947 0.183794 0.000000 
0.176906 0.332864 0.000000 
0.279345 0.329854 0.000000 
0.315132 0.148685 0.000000 
0.110682 0.254651 0.000000 
0.170655 0.120146 0.000000 
0.340862 0.247886 0.000000 
0.246499 0.373483 0.000000 
0.359946 0.300644 0.000000 
0.268001 0.079602 0.000000 
0.121224 0.339731 0.000000 
0.092816 0.150723 0.000000 
0.368279 0.166658 0.000000 
0.226174 0.330796 0.000000 
0.141553 0.159955 0.000000 
0.319125 0.166041 0.000000 
0.304967 0.178831 0.000000 
0.304988 0.195157 0.000000 
0.290839 0.170650 0.000000 
0.323397 0.199283 0.000000 
0.290796 0.204679 0.000000 
0.275497 0.178180 0.000000 
0.296470 0.152644 0.000000 
0.291693 0.221919 0.000000 
0.275433 0.195882 0.000000 
0.261015 0.168783 0.000000 
0.307496 0.233894 0.000000 
0.277211 0.231394 0.000000 
0.245568 0.176587 0.000000 
0.258545 0.149110 0.000000 
0.208964 0.336700 0.000000 
0.230547 0.314160 0.000000 
0.147668 0.142818 0.000000 
0.261762 0.223570 0.000000 
0.215842 0.304250 0.000000 
0.248472 0.313629 0.000000 
0.261536 0.329885 0.000000 
0.247257 0.233036 0.000000 
0.260882 0.205299 0.000000 
0.196764 0.310172 0.000000 
0.248203 0.250330 0.000000 
0.231807 0.225208 0.000000 
0.263654 0.258158 0.000000 
0.233699 0.259797 0.000000 
0.217302 0.234674 0.000000 
0.230928 0.205844 0.000000 
0.278157 0.248687 0.000000 
0.234740 0.278251 0.000000 
0.218248 0.251969 0.000000 
0.203744 0.261435 0.000000 
0.202302 0.278569 0.000000 
0.217847 0.287557 0.000000 
0.181761 0.289237 0.000000 
0.188293 0.253607 0.000000 
0.169807 0.263058 0.000000 
0.187347 0.236313 0.000000 
0.164717 0.281553 0.000000 
0.144174 0.291184 0.000000 
0.148473 0.254510 0.000000 
0.171896 0.228485 0.000000 
0.201852 0.226846 0.000000 
0.151508 0.237232 0.000000 
0.170950 0.211190 0.000000 
0.200906 0.209551 0.000000 
0.154030 0.196929 0.000000 
0.185455 0.201723 0.000000 
0.184509 0.184429 0.000000 
0.170725 0.172655 0.000000 
0.175073 0.152105 0.000000 
0.199013 0.174962 0.000000 
0.193376 0.154959 0.000000 
0.214531 0.180721 0.000000 
0.230051 0.169736 0.000000 
0.269803 0.134462 0.000000 
0.165778 0.318959 0.000000 
0.178228 0.304146 0.000000 
0.192015 0.114334 0.000000 
0.308447 0.290045 0.000000 
0.302332 0.307182 0.000000 
0.294952 0.277606 0.000000 
0.277362 0.283104 0.000000 
0.273311 0.300360 0.000000 
0.254805 0.301960 0.000000 
0.248871 0.285250 0.000000 
0.263281 0.274624 0.000000 
0.108440 0.230626 0.000000 
0.329782 0.261830 0.000000 
0.310231 0.254337 0.000000 
0.215477 0.198016 0.000000 
0.254971 0.343296 0.000000 
0.260761 0.363640 0.000000 
0.115965 0.180695 0.000000 
0.154751 0.175688 0.000000 
0.245498 0.195401 0.000000 
0.242369 0.110561 0.000000 
0.194258 0.325986 0.000000 
0.165214 0.138002 0.000000 
0.338836 0.274525 0.000000 
0.361969 0.274320 0.000000 
0.334696 0.166878 0.000000 
0.348958 0.148664 0.000000 
0.128036 0.263232 0.000000 
0.151386 0.324961 0.000000 
0.146439 0.347560 0.000000 
0.284786 0.311998 0.000000 
0.325809 0.231469 0.000000 
0.295374 0.259655 0.000000 
0.287870 0.136610 0.000000 
0.128828 0.281410 0.000000 
0.332983 0.214748 0.000000 
0.241082 0.141546 0.000000 
0.228035 0.154368 0.000000 
0.231597 0.124242 0.000000 
0.206878 0.145350 0.000000 
0.085140 0.166662 0.000000 
0.208393 0.125981 0.000000 
0.139108 0.214050 0.000000 
0.121894 0.207121 0.000000 
0.760743 0.965247 0.000000 
0.656050 0.625842 0.000000 
0.964931 0.803227 0.000000 
0.591575 0.831893 0.000000 
0.870390 0.609779 0.000000 
0.816239 0.958394 0.000000 
0.656050 0.924158 0.000000 
0.760743 0.584753 0.000000 
0.914852 0.904764 0.000000 
0.590966 0.718514 0.000000 
0.946887 0.692223 0.000000 
0.705217 0.953888 0.000000 
0.706321 0.599487 0.000000 
0.946887 0.857777 0.000000 
0.584219 0.775000 0.000000 
0.915489 0.644105 0.000000 
0.617370 0.882470 0.000000 
0.817453 0.589003 0.000000 
0.871487 0.941582 0.000000 
0.616094 0.666334 0.000000 
0.963650 0.746566 0.000000 
0.732547 0.960997 0.000000 
0.678717 0.608834 0.000000 
0.954973 0.830241 0.000000 
0.588605 0.802902 0.000000 
0.893950 0.625842 0.000000 
0.788875 0.966469 0.000000 
0.633699 0.905741 0.000000 
0.789118 0.583011 0.000000 
0.893950 0.924158 0.000000 
0.603113 0.692223 0.000000 
0.959034 0.718514 0.000000 
0.681096 0.938168 0.000000 
0.732547 0.589003 0.000000 
0.933906 0.883666 0.000000 
0.586350 0.746566 0.000000 
0.930400 0.668734 0.000000 
0.603113 0.857777 0.000000 
0.845581 0.595898 0.000000 
0.844700 0.952593 0.000000 
0.635148 0.645236 0.000000 
0.965781 0.775000 0.000000 
0.747877 0.954951 0.000000 
0.750510 0.937479 0.000000 
0.737660 0.927254 0.000000 
0.765803 0.931495 0.000000 
0.723756 0.933921 0.000000 
0.721276 0.950194 0.000000 
0.709198 0.925572 0.000000 
0.697444 0.938204 0.000000 
0.739178 0.910210 0.000000 
0.769376 0.914762 0.000000 
0.777045 0.941925 0.000000 
0.793019 0.938033 0.000000 
0.774618 0.958205 0.000000 
0.800528 0.953569 0.000000 
0.725189 0.900086 0.000000 
0.755601 0.903703 0.000000 
0.784098 0.910641 0.000000 
0.617398 0.865992 0.000000 
0.632699 0.857157 0.000000 
0.632682 0.840735 0.000000 
0.646913 0.865383 0.000000 
0.618744 0.833938 0.000000 
0.604476 0.842146 0.000000 
0.615919 0.816936 0.000000 
0.598714 0.815622 0.000000 
0.646954 0.831296 0.000000 
0.662223 0.857743 0.000000 
0.645512 0.881189 0.000000 
0.657235 0.893824 0.000000 
0.631271 0.889442 0.000000 
0.649771 0.909381 0.000000 
0.646147 0.814046 0.000000 
0.662281 0.840078 0.000000 
0.674812 0.869456 0.000000 
0.673972 0.923309 0.000000 
0.681681 0.904439 0.000000 
0.898780 0.908403 0.000000 
0.886762 0.895451 0.000000 
0.870756 0.899122 0.000000 
0.891619 0.879763 0.000000 
0.867435 0.914639 0.000000 
0.878611 0.926723 0.000000 
0.852509 0.923256 0.000000 
0.855056 0.940323 0.000000 
0.858377 0.887309 0.000000 
0.880764 0.866537 0.000000 
0.907341 0.877612 0.000000 
0.917050 0.863371 0.000000 
0.918556 0.889660 0.000000 
0.933878 0.867187 0.000000 
0.841739 0.891934 0.000000 
0.863529 0.870411 0.000000 
0.889382 0.851658 0.000000 
0.595780 0.788067 0.000000 
0.626539 0.787794 0.000000 
0.651220 0.641597 0.000000 
0.663238 0.654549 0.000000 
0.679244 0.650878 0.000000 
0.658381 0.670237 0.000000 
0.682769 0.635777 0.000000 
0.671593 0.623693 0.000000 
0.698716 0.629239 0.000000 
0.696169 0.612173 0.000000 
0.691623 0.662691 0.000000 
0.669236 0.683463 0.000000 
0.642659 0.672388 0.000000 
0.632950 0.686629 0.000000 
0.631444 0.660340 0.000000 
0.616122 0.682813 0.000000 
0.708261 0.658066 0.000000 
0.686471 0.679589 0.000000 
0.663380 0.699709 0.000000 
0.877515 0.624638 0.000000 
0.867562 0.639237 0.000000 
0.874702 0.654025 0.000000 
0.851187 0.637993 0.000000 
0.890123 0.654051 0.000000 
0.899417 0.640466 0.000000 
0.899616 0.667889 0.000000 
0.915687 0.661608 0.000000 
0.865940 0.668722 0.000000 
0.840707 0.651519 0.000000 
0.845590 0.623144 0.000000 
0.829547 0.616847 0.000000 
0.854841 0.609529 0.000000 
0.829522 0.599592 0.000000 
0.874152 0.683914 0.000000 
0.848320 0.667460 0.000000 
0.823566 0.649425 0.000000 
0.956474 0.761400 0.000000 
0.938855 0.762721 0.000000 
0.931745 0.777524 0.000000 
0.929618 0.749142 0.000000 
0.941340 0.789596 0.000000 
0.957756 0.788393 0.000000 
0.936439 0.805646 0.000000 
0.951370 0.814295 0.000000 
0.914791 0.779836 0.000000 
0.912509 0.749383 0.000000 
0.937738 0.735509 0.000000 
0.932658 0.719040 0.000000 
0.954150 0.734253 0.000000 
0.946133 0.708262 0.000000 
0.908034 0.795728 0.000000 
0.904792 0.765273 0.000000 
0.906250 0.733368 0.000000 
0.930372 0.685213 0.000000 
0.915239 0.698869 0.000000 
0.722380 0.603181 0.000000 
0.730905 0.634262 0.000000 
0.801984 0.593307 0.000000 
0.794475 0.608843 0.000000 
0.593526 0.761400 0.000000 
0.609705 0.763843 0.000000 
0.618942 0.750264 0.000000 
0.611960 0.780545 0.000000 
0.612262 0.735509 0.000000 
0.595850 0.734253 0.000000 
0.617342 0.719040 0.000000 
0.603867 0.708262 0.000000 
0.636051 0.750505 0.000000 
0.647169 0.733372 0.000000 
0.641393 0.771332 0.000000 
0.747877 0.595049 0.000000 
0.750510 0.612521 0.000000 
0.765803 0.618505 0.000000 
0.734728 0.618435 0.000000 
0.777288 0.607555 0.000000 
0.774861 0.591274 0.000000 
0.800753 0.625665 0.000000 
0.767813 0.636958 0.000000 
0.785576 0.642831 0.000000 
0.748696 0.646801 0.000000 
0.942072 0.840493 0.000000 
0.921959 0.837176 0.000000 
0.827427 0.946295 0.000000 
0.824466 0.923134 0.000000 
0.709113 0.908780 0.000000 
0.839192 0.912365 0.000000 
0.892407 0.683055 0.000000 
0.629049 0.806483 0.000000 
0.711829 0.639714 0.000000 
0.920087 0.809466 0.000000 
0.787534 0.893677 0.000000 
0.878261 0.838396 0.000000 
0.813111 0.663218 0.000000 
0.690216 0.861566 0.000000 
0.674501 0.712971 0.000000 
0.888947 0.733794 0.000000 
0.726906 0.882864 0.000000 
0.829345 0.879854 0.000000 
0.865132 0.698685 0.000000 
0.660682 0.804651 0.000000 
0.720655 0.670146 0.000000 
0.890862 0.797886 0.000000 
0.796499 0.923483 0.000000 
0.909946 0.850644 0.000000 
0.818001 0.629602 0.000000 
0.671224 0.889731 0.000000 
0.642816 0.700723 0.000000 
0.918279 0.716658 0.000000 
0.776174 0.880796 0.000000 
0.691553 0.709955 0.000000 
0.869125 0.716041 0.000000 
0.854967 0.728831 0.000000 
0.854988 0.745157 0.000000 
0.840839 0.720650 0.000000 
0.873397 0.749283 0.000000 
0.840796 0.754679 0.000000 
0.825497 0.728180 0.000000 
0.846470 0.702644 0.000000 
0.841693 0.771919 0.000000 
0.825433 0.745882 0.000000 
0.811015 0.718783 0.000000 
0.857496 0.783894 0.000000 
0.827211 0.781394 0.000000 
0.795568 0.726587 0.000000 
0.808545 0.699110 0.000000 
0.758964 0.886700 0.000000 
0.780547 0.864160 0.000000 
0.697668 0.692818 0.000000 
0.811762 0.773570 0.000000 
0.765842 0.854250 0.000000 
0.798472 0.863629 0.000000 
0.811536 0.879885 0.000000 
0.797257 0.783036 0.000000 
0.810882 0.755299 0.000000 
0.746764 0.860172 0.000000 
0.798203 0.800330 0.000000 
0.781807 0.775208 0.000000 
0.813654 0.808158 0.000000 
0.783699 0.809797 0.000000 
0.767302 0.784674 0.000000 
0.780928 0.755844 0.000000 
0.828157 0.798687 0.000000 
0.784740 0.828251 0.000000 
0.768248 0.801969 0.000000 
0.753744 0.811435 0.000000 
0.752302 0.828569 0.000000 
0.767847 0.837557 0.000000 
0.731761 0.839237 0.000000 
0.738293 0.803607 0.000000 
0.719807 0.813058 0.000000 
0.737347 0.786313 0.000000 
0.714717 0.831553 0.000000 
0.694174 0.841184 0.000000 
0.698473 0.804510 0.000000 
0.721896 0.778485 0.000000 
0.751852 0.776846 0.000000 
0.701508 0.787232 0.000000 
0.720950 0.761190 0.000000 
0.750906 0.759551 0.000000 
0.704030 0.746929 0.000000 
0.735455 0.751723 0.000000 
0.734509 0.734429 0.000000 
0.720725 0.722655 0.000000 
0.725073 0.702105 0.000000 
0.749013 0.724962 0.000000 
0.743376 0.704959 0.000000 
0.764531 0.730721 0.000000 
0.780051 0.719736 0.000000 
0.819803 0.684462 0.000000 
0.715778 0.868959 0.000000 
0.728228 0.854146 0.000000 
0.742015 0.664334 0.000000 
0.858447 0.840045 0.000000 
0.852332 0.857182 0.000000 
0.844952 0.827606 0.000000 
0.827362 0.833104 0.000000 
0.823311 0.850360 0.000000 
0.804805 0.851960 0.000000 
0.798871 0.835250 0.000000 
0.813281 0.824624 0.000000 
0.658440 0.780626 0.000000 
0.879782 0.811830 0.000000 
0.860231 0.804337 0.000000 
0.765477 0.748016 0.000000 
0.804971 0.893296 0.000000 
0.810761 0.913640 0.000000 
0.665965 0.730695 0.000000 
0.704751 0.725688 0.000000 
0.795498 0.745401 0.000000 
0.792369 0.660561 0.000000 
0.744258 0.875986 0.000000 
0.715214 0.688002 0.000000 
0.888836 0.824525 0.000000 
0.911969 0.824320 0.000000 
0.884696 0.716878 0.000000 
0.898958 0.698664 0.000000 
0.678036 0.813232 0.000000 
0.701386 0.874961 0.000000 
0.696439 0.897560 0.000000 
0.834786 0.861998 0.000000 
0.875809 0.781469 0.000000 
0.845374 0.809655 0.000000 
0.837870 0.686610 0.000000 
0.678828 0.831410 0.000000 
0.882983 0.764748 0.000000 
0.791082 0.691546 0.000000 
0.778035 0.704368 0.000000 
0.781597 0.674242 0.000000 
0.756878 0.695350 0.000000 
0.635140 0.716662 0.000000 
0.758393 0.675981 0.000000 
0.689108 0.764050 0.000000 
0.671894 0.757121 0.000000 
VECTORS X_EC float 
0.695059 -0.785141 0.000000 
-0.516836 -0.878994 0.000000 
-0.064545 -0.701376 0.000000 
-0.637864 -0.168498 0.000000 
-0.195585 -0.592195 0.000000 
0.832125 0.324779 0.000000 
-0.483164 -0.878994 0.000000 
0.304941 -0.785141 0.000000 
-0.095274 0.297040 0.000000 
-0.370289 -0.180687 0.000000 
0.155531 0.937746 0.000000 
0.922238 0.104336 0.000000 
0.010264 0.126417 0.000000 
0.844469 0.937746 0.000000 
0.500000 -0.315610 0.000000 
-0.882104 0.309782 0.000000 
0.350590 0.347395 0.000000 
0.219945 0.349053 0.000000 
-0.831640 -0.570264 0.000000 
0.673314 0.321885 0.000000 
-0.931313 -0.727007 0.000000 
0.780055 0.650947 0.000000 
-0.176677 -0.425653 0.000000 
-0.604818 -0.900545 0.000000 
-0.058037 -0.227905 0.000000 
-0.516836 -0.121006 0.000000 
0.670625 -0.222498 0.000000 
-0.114825 0.673979 0.000000 
0.339789 -0.217643 0.000000 
-0.483164 -0.121006 0.000000 
0.155531 0.062254 0.000000 
-0.370289 -0.819313 0.000000 
-0.763364 -0.378072 0.000000 
0.219945 0.650947 0.000000 
0.326686 0.678115 0.000000 
-0.931313 -0.272993 0.000000 
0.625324 0.608005 0.000000 
0.844469 0.062254 0.000000 
0.082041 0.911627 0.000000 
0.948149 0.893999 0.000000 
-0.904726 0.702960 0.000000 
0.500000 -0.684390 0.000000 
0.900986 0.957536 0.000000 
-0.749589 -0.989797 0.000000 
-0.545071 0.753202 0.000000 
-0.629909 -0.683931 0.000000 
-0.678428 0.475113 0.000000 
0.996124 0.425524 0.000000 
-0.511441 0.183969 0.000000 
-0.764085 -0.051124 0.000000 
-0.204206 0.783569 0.000000 
-0.295238 -0.612477 0.000000 
-0.838494 -0.459096 0.000000 
-0.760665 -0.139629 0.000000 
0.835899 -0.507638 0.000000 
0.928621 0.010552 0.000000 
-0.001726 0.503770 0.000000 
-0.074053 -0.887976 0.000000 
-0.212814 -0.318034 0.000000 
0.680167 0.347957 0.000000 
0.856853 0.653986 0.000000 
-0.814701 0.653647 0.000000 
0.692336 0.938259 0.000000 
-0.678768 0.374889 0.000000 
-0.842912 0.089525 0.000000 
-0.338727 0.318373 0.000000 
-0.312444 -0.025729 0.000000 
-0.625917 0.939079 0.000000 
0.845136 -0.755533 0.000000 
0.376214 0.910248 0.000000 
0.123528 -0.855293 0.000000 
0.211154 0.625413 0.000000 
-0.187615 0.995417 0.000000 
-0.280917 0.922932 0.000000 
-0.801564 -0.754375 0.000000 
0.610875 -0.503768 0.000000 
-0.466182 -0.520564 0.000000 
-0.088772 -0.366377 0.000000 
-0.168064 -0.024398 0.000000 
0.090976 -0.264752 0.000000 
0.017560 -0.584888 0.000000 
0.404730 -0.167617 0.000000 
-0.292775 -0.651301 0.000000 
-0.534458 -0.427772 0.000000 
-0.465127 -0.949824 0.000000 
-0.806451 -0.898877 0.000000 
0.253827 -0.832454 0.000000 
0.669260 -0.384723 0.000000 
0.447766 0.146812 0.000000 
0.732574 0.340991 0.000000 
0.206801 0.371116 0.000000 
0.656263 0.677553 0.000000 