# vtk DataFile Version 3.0 
vtk output 
ASCII 
DATASET UNSTRUCTURED_GRID 
POINTS 616 float 
0.275675 0.480159 0.000000 
0.170930 0.140727 0.000000 
0.479850 0.318155 0.000000 
0.106486 0.346820 0.000000 
0.385305 0.124673 0.000000 
0.331209 0.473303 0.000000 
0.170969 0.439085 0.000000 
0.275645 0.099643 0.000000 
0.429198 0.419076 0.000000 
0.105855 0.233423 0.000000 
0.461820 0.207113 0.000000 
0.220138 0.468818 0.000000 
0.221213 0.114374 0.000000 
0.461825 0.372711 0.000000 
0.099119 0.289920 0.000000 
0.430413 0.158995 0.000000 
0.132288 0.397400 0.000000 
0.332361 0.103895 0.000000 
0.386433 0.456435 0.000000 
0.130973 0.181227 0.000000 
0.478563 0.261465 0.000000 
0.247473 0.475919 0.000000 
0.193603 0.123720 0.000000 
0.469917 0.345186 0.000000 
0.103510 0.317826 0.000000 
0.408869 0.140734 0.000000 
0.303814 0.481370 0.000000 
0.148618 0.420668 0.000000 
0.304023 0.097901 0.000000 
0.408632 0.438763 0.000000 
0.117997 0.207124 0.000000 
0.473959 0.233408 0.000000 
0.196015 0.453098 0.000000 
0.247445 0.103892 0.000000 
0.448766 0.398520 0.000000 
0.101245 0.261481 0.000000 
0.445329 0.183623 0.000000 
0.118027 0.372705 0.000000 
0.360493 0.110792 0.000000 
0.359690 0.467499 0.000000 
0.150026 0.160124 0.000000 
0.480681 0.289905 0.000000 
0.262802 0.469867 0.000000 
0.265426 0.452395 0.000000 
0.252572 0.442171 0.000000 
0.280716 0.446407 0.000000 
0.238671 0.448843 0.000000 
0.236197 0.465118 0.000000 
0.224113 0.440495 0.000000 
0.212361 0.453133 0.000000 
0.254083 0.425127 0.000000 
0.284277 0.429673 0.000000 
0.291964 0.456833 0.000000 
0.307933 0.452933 0.000000 
0.289548 0.473112 0.000000 
0.315465 0.468467 0.000000 
0.240092 0.415003 0.000000 
0.270498 0.418616 0.000000 
0.298994 0.425550 0.000000 
0.132312 0.380919 0.000000 
0.147609 0.372080 0.000000 
0.147588 0.355654 0.000000 
0.161823 0.380304 0.000000 
0.133651 0.348860 0.000000 
0.119387 0.357071 0.000000 
0.130822 0.331856 0.000000 
0.113620 0.330545 0.000000 
0.161855 0.346210 0.000000 
0.177129 0.372660 0.000000 
0.160427 0.396114 0.000000 
0.172150 0.408748 0.000000 
0.146188 0.404371 0.000000 
0.164689 0.424307 0.000000 
0.161044 0.328957 0.000000 
0.177182 0.354991 0.000000 
0.189719 0.384373 0.000000 
0.188889 0.438236 0.000000 
0.196596 0.419362 0.000000 
0.413325 0.422896 0.000000 
0.401349 0.410007 0.000000 
0.385413 0.413752 0.000000 
0.406213 0.394333 0.000000 
0.382203 0.429357 0.000000 
0.393450 0.441485 0.000000 
0.367349 0.438046 0.000000 
0.369989 0.455180 0.000000 
0.373033 0.401959 0.000000 
0.395416 0.381161 0.000000 
0.422031 0.392280 0.000000 
0.431829 0.378130 0.000000 
0.433275 0.404364 0.000000 
0.448746 0.382046 0.000000 
0.356455 0.406651 0.000000 
0.378211 0.385077 0.000000 
0.404075 0.366313 0.000000 
0.110681 0.302987 0.000000 
0.141433 0.302706 0.000000 
0.166099 0.156483 0.000000 
0.178118 0.169434 0.000000 
0.194126 0.165761 0.000000 
0.173260 0.185123 0.000000 
0.197652 0.150661 0.000000 
0.186475 0.138578 0.000000 
0.213602 0.144123 0.000000 
0.211057 0.127058 0.000000 
0.206503 0.177572 0.000000 
0.184114 0.198347 0.000000 
0.157539 0.187277 0.000000 
0.147831 0.201521 0.000000 
0.146323 0.175230 0.000000 
0.131004 0.197709 0.000000 
0.223144 0.172946 0.000000 
0.201349 0.194469 0.000000 
0.178259 0.214595 0.000000 
0.392431 0.139531 0.000000 
0.382476 0.154126 0.000000 
0.389619 0.168914 0.000000 
0.366098 0.152881 0.000000 
0.405043 0.168940 0.000000 
0.414338 0.155357 0.000000 
0.414538 0.182778 0.000000 
0.430612 0.176498 0.000000 
0.380854 0.183608 0.000000 
0.355616 0.166404 0.000000 
0.360501 0.138034 0.000000 
0.344455 0.131737 0.000000 
0.369754 0.124422 0.000000 
0.344431 0.114484 0.000000 
0.389068 0.198798 0.000000 
0.363229 0.182344 0.000000 
0.338471 0.164309 0.000000 
0.471382 0.276298 0.000000 
0.453766 0.277609 0.000000 
0.446653 0.292407 0.000000 
0.444534 0.264026 0.000000 
0.456242 0.304485 0.000000 
0.472654 0.303294 0.000000 
0.451340 0.320529 0.000000 
0.466291 0.329212 0.000000 
0.429704 0.294707 0.000000 
0.427427 0.264259 0.000000 
0.452657 0.250397 0.000000 
0.447581 0.233927 0.000000 
0.469069 0.249147 0.000000 
0.461060 0.223152 0.000000 
0.422936 0.310582 0.000000 
0.419709 0.280141 0.000000 
0.421169 0.248245 0.000000 
0.445302 0.200102 0.000000 
0.430164 0.213756 0.000000 
0.237274 0.118068 0.000000 
0.245795 0.149145 0.000000 
0.316890 0.108198 0.000000 
0.309379 0.123731 0.000000 
0.108422 0.276316 0.000000 
0.124600 0.278754 0.000000 
0.133833 0.265171 0.000000 
0.126856 0.295460 0.000000 
0.127151 0.250416 0.000000 
0.110741 0.249163 0.000000 
0.132228 0.233942 0.000000 
0.118753 0.223166 0.000000 
0.150939 0.265407 0.000000 
0.162053 0.248268 0.000000 
0.156283 0.286236 0.000000 
0.262775 0.109938 0.000000 
0.265407 0.127407 0.000000 
0.280701 0.133390 0.000000 
0.249621 0.133320 0.000000 
0.292189 0.122442 0.000000 
0.289764 0.106164 0.000000 
0.315656 0.140551 0.000000 
0.282708 0.151841 0.000000 
0.300473 0.157713 0.000000 
0.263588 0.161683 0.000000 
0.456982 0.355396 0.000000 
0.436802 0.351996 0.000000 
0.342373 0.461184 0.000000 
0.339334 0.437976 0.000000 
0.224023 0.423701 0.000000 
0.353997 0.427147 0.000000 
0.407328 0.197942 0.000000 
0.143948 0.321397 0.000000 
0.226716 0.154597 0.000000 
0.434969 0.324315 0.000000 
0.302414 0.408586 0.000000 
0.393012 0.353106 0.000000 
0.328012 0.178098 0.000000 
0.205118 0.376477 0.000000 
0.189380 0.227857 0.000000 
0.403866 0.248663 0.000000 
0.241801 0.397775 0.000000 
0.344103 0.394618 0.000000 
0.380044 0.213564 0.000000 
0.175574 0.319556 0.000000 
0.235538 0.185025 0.000000 
0.405753 0.312716 0.000000 
0.311397 0.438377 0.000000 
0.424718 0.365387 0.000000 
0.332907 0.144488 0.000000 
0.186137 0.404652 0.000000 
0.157697 0.215615 0.000000 
0.433201 0.231542 0.000000 
0.291050 0.395698 0.000000 
0.206430 0.224836 0.000000 
0.384036 0.230913 0.000000 
0.369869 0.243695 0.000000 
0.369885 0.260014 0.000000 
0.355735 0.235516 0.000000 
0.388306 0.264142 0.000000 
0.355681 0.269529 0.000000 
0.340383 0.243039 0.000000 
0.361375 0.217519 0.000000 
0.356574 0.286761 0.000000 
0.340312 0.260733 0.000000 
0.325898 0.233644 0.000000 
0.372386 0.298735 0.000000 
0.342076 0.296228 0.000000 
0.310440 0.241442 0.000000 
0.323439 0.213981 0.000000 
0.273849 0.401609 0.000000 
0.295414 0.379048 0.000000 
0.212545 0.207696 0.000000 
0.326618 0.288404 0.000000 
0.280711 0.369135 0.000000 
0.313317 0.378492 0.000000 
0.326345 0.394711 0.000000 
0.312096 0.297861 0.000000 
0.325746 0.270142 0.000000 
0.261643 0.375067 0.000000 
0.313038 0.315155 0.000000 
0.296649 0.290042 0.000000 
0.328493 0.322981 0.000000 
0.298539 0.324638 0.000000 
0.282146 0.299514 0.000000 
0.295781 0.270688 0.000000 
0.343009 0.313511 0.000000 
0.299588 0.343107 0.000000 
0.283093 0.316814 0.000000 
0.268600 0.326296 0.000000 
0.267166 0.343442 0.000000 
0.282708 0.352428 0.000000 
0.246639 0.354125 0.000000 
0.253154 0.318474 0.000000 
0.234681 0.327940 0.000000 
0.252205 0.301173 0.000000 
0.229600 0.346447 0.000000 
0.209069 0.356089 0.000000 
0.213355 0.319404 0.000000 
0.236763 0.293357 0.000000 
0.266706 0.291699 0.000000 
0.216384 0.302119 0.000000 
0.235820 0.276063 0.000000 
0.265766 0.274409 0.000000 
0.218906 0.261810 0.000000 
0.250322 0.266590 0.000000 
0.249381 0.249299 0.000000 
0.235601 0.237530 0.000000 
0.239952 0.216980 0.000000 
0.263887 0.239829 0.000000 
0.258256 0.219831 0.000000 
0.279401 0.245582 0.000000 
0.294925 0.234596 0.000000 
0.334704 0.199340 0.000000 
0.230673 0.383867 0.000000 
0.243113 0.369044 0.000000 
0.256903 0.179213 0.000000 
0.373216 0.354786 0.000000 
0.367071 0.371905 0.000000 
0.359760 0.342389 0.000000 
0.342176 0.347905 0.000000 
0.338113 0.365159 0.000000 
0.319638 0.366801 0.000000 
0.313711 0.350095 0.000000 
0.328112 0.339446 0.000000 
0.173327 0.295527 0.000000 
0.394620 0.326614 0.000000 
0.375087 0.319148 0.000000 
0.280339 0.262870 0.000000 
0.319807 0.408154 0.000000 
0.325623 0.428498 0.000000 
0.180847 0.245586 0.000000 
0.219628 0.240567 0.000000 
0.310359 0.260246 0.000000 
0.307265 0.175440 0.000000 
0.259145 0.390890 0.000000 
0.230093 0.202879 0.000000 
0.403628 0.339267 0.000000 
0.426808 0.339123 0.000000 
0.399613 0.231752 0.000000 
0.413880 0.213548 0.000000 
0.192927 0.328135 0.000000 
0.216289 0.389874 0.000000 
0.211349 0.412479 0.000000 
0.349553 0.376761 0.000000 
0.390716 0.296316 0.000000 
0.360216 0.324463 0.000000 
0.352776 0.201490 0.000000 
0.193724 0.346317 0.000000 
0.397897 0.279603 0.000000 
0.305974 0.206420 0.000000 
0.292918 0.219236 0.000000 
0.296490 0.189118 0.000000 
0.271762 0.210224 0.000000 
0.150024 0.231559 0.000000 
0.273282 0.190858 0.000000 
0.203988 0.278940 0.000000 
0.186777 0.272015 0.000000 
0.695837 0.900353 0.000000 
0.591358 0.561226 0.000000 
0.900040 0.738314 0.000000 
0.526655 0.767006 0.000000 
0.805473 0.544855 0.000000 
0.751342 0.893505 0.000000 
0.591135 0.859265 0.000000 
0.695810 0.519859 0.000000 
0.849976 0.839879 0.000000 
0.526003 0.653559 0.000000 
0.881976 0.627297 0.000000 
0.640307 0.888993 0.000000 
0.641340 0.534585 0.000000 
0.882008 0.792879 0.000000 
0.519324 0.710109 0.000000 
0.850573 0.579182 0.000000 
0.552446 0.817582 0.000000 
0.752530 0.524088 0.000000 
0.806603 0.876699 0.000000 
0.551219 0.601475 0.000000 
0.898747 0.681643 0.000000 
0.667639 0.896102 0.000000 
0.613768 0.543975 0.000000 
0.890087 0.765336 0.000000 
0.523696 0.738013 0.000000 
0.829033 0.560921 0.000000 
0.723972 0.901577 0.000000 
0.568780 0.840851 0.000000 
0.724189 0.518106 0.000000 
0.829071 0.859276 0.000000 
0.538165 0.627289 0.000000 
0.894127 0.653589 0.000000 
0.616184 0.873274 0.000000 
0.667569 0.524091 0.000000 
0.869030 0.818776 0.000000 
0.521433 0.681652 0.000000 
0.865485 0.603807 0.000000 
0.538185 0.792890 0.000000 
0.780663 0.530974 0.000000 
0.779809 0.887706 0.000000 
0.570790 0.580916 0.000000 
0.900884 0.710082 0.000000 
0.682970 0.890057 0.000000 
0.685605 0.872589 0.000000 
0.672755 0.862364 0.000000 
[...]
POINT_DATA 616 
VECTORS X_GC float 
0.275675 0.480159 0.000000 
0.170930 0.140727 0.000000 
0.479850 0.318155 0.000000 
0.106486 0.346820 0.000000 
0.385305 0.124673 0.000000 
0.331209 0.473303 0.000000 
0.170969 0.439085 0.000000 
0.275645 0.099643 0.000000 
0.429198 0.419076 0.000000 
0.105855 0.233423 0.000000 
0.461820 0.207113 0.000000 
0.220138 0.468818 0.000000 
0.221213 0.114374 0.000000 
0.461825 0.372711 0.000000 
0.099119 0.289920 0.000000 
0.430413 0.158995 0.000000 
0.132288 0.397400 0.000000 
0.332361 0.103895 0.000000 
0.386433 0.456435 0.000000 
0.130973 0.181227 0.000000 
0.478563 0.261465 0.000000 
0.247473 0.475919 0.000000 
0.193603 0.123720 0.000000 
0.469917 0.345186 0.000000 
0.103510 0.317826 0.000000 
0.408869 0.140734 0.000000 
0.303814 0.481370 0.000000 
0.148618 0.420668 0.000000 
0.304023 0.097901 0.000000 
0.408632 0.438763 0.000000 
0.117997 0.207124 0.000000 
0.473959 0.233408 0.000000 
0.196015 0.453098 0.000000 
0.247445 0.103892 0.000000 
0.448766 0.398520 0.000000 
0.101245 0.261481 0.000000 
0.445329 0.183623 0.000000 
0.118027 0.372705 0.000000 
0.360493 0.110792 0.000000 
0.359690 0.467499 0.000000 
0.150026 0.160124 0.000000 
0.480681 0.289905 0.000000 
0.262802 0.469867 0.000000 
0.265426 0.452395 0.000000 
0.252572 0.442171 0.000000 
0.280716 0.446407 0.000000 
0.238671 0.448843 0.000000 
0.236197 0.465118 0.000000 
0.224113 0.440495 0.000000 
0.212361 0.453133 0.000000 
0.254083 0.425127 0.000000 
0.284277 0.429673 0.000000 
0.291964 0.456833 0.000000 
0.307933 0.452933 0.000000 
0.289548 0.473112 0.000000 
0.315465 0.468467 0.000000 
0.240092 0.415003 0.000000 
0.270498 0.418616 0.000000 
0.298994 0.425550 0.000000 
0.132312 0.380919 0.000000 
0.147609 0.372080 0.000000 
0.147588 0.355654 0.000000 
0.161823 0.380304 0.000000 
0.133651 0.348860 0.000000 
0.119387 0.357071 0.000000 
0.130822 0.331856 0.000000 
0.113620 0.330545 0.000000 
0.161855 0.346210 0.000000 
0.177129 0.372660 0.000000 
0.160427 0.396114 0.000000 
0.172150 0.408748 0.000000 
0.146188 0.404371 0.000000 
0.164689 0.424307 0.000000 
0.161044 0.328957 0.000000 
0.177182 0.354991 0.000000 
0.189719 0.384373 0.000000 
0.188889 0.438236 0.000000 
0.196596 0.419362 0.000000 
0.413325 0.422896 0.000000 
0.401349 0.410007 0.000000 
0.385413 0.413752 0.000000 
0.406213 0.394333 0.000000 
0.382203 0.429357 0.000000 
0.393450 0.441485 0.000000 
0.367349 0.438046 0.000000 
0.369989 0.455180 0.000000 
0.373033 0.401959 0.000000 
0.395416 0.381161 0.000000 
0.422031 0.392280 0.000000 
0.431829 0.378130 0.000000 
0.433275 0.404364 0.000000 
0.448746 0.382046 0.000000 
0.356455 0.406651 0.000000 
0.378211 0.385077 0.000000 
0.404075 0.366313 0.000000 
0.110681 0.302987 0.000000 
0.141433 0.302706 0.000000 
0.166099 0.156483 0.000000 
0.178118 0.169434 0.000000 
0.194126 0.165761 0.000000 
0.173260 0.185123 0.000000 
0.197652 0.150661 0.000000 
0.186475 0.138578 0.000000 
0.213602 0.144123 0.000000 
0.211057 0.127058 0.000000 
0.206503 0.177572 0.000000 
0.184114 0.198347 0.000000 
0.157539 0.187277 0.000000 
0.147831 0.201521 0.000000 
0.146323 0.175230 0.000000 
0.131004 0.197709 0.000000 
0.223144 0.172946 0.000000 
0.201349 0.194469 0.000000 
0.178259 0.214595 0.000000 
0.392431 0.139531 0.000000 
0.382476 0.154126 0.000000 
0.389619 0.168914 0.000000 
0.366098 0.152881 0.000000 
0.405043 0.168940 0.000000 
0.414338 0.155357 0.000000 
0.414538 0.182778 0.000000 
0.430612 0.176498 0.000000 
0.380854 0.183608 0.000000 
0.355616 0.166404 0.000000 
0.360501 0.138034 0.000000 
0.344455 0.131737 0.000000 
0.369754 0.124422 0.000000 
0.344431 0.114484 0.000000 
0.389068 0.198798 0.000000 
0.363229 0.182344 0.000000 
0.338471 0.164309 0.000000 
0.471382 0.276298 0.000000 
0.453766 0.277609 0.000000 
0.446653 0.292407 0.000000 
0.444534 0.264026 0.000000 
0.456242 0.304485 0.000000 
0.472654 0.303294 0.000000 
0.451340 0.320529 0.000000 
0.466291 0.329212 0.000000 
0.429704 0.294707 0.000000 
0.427427 0.264259 0.000000 
0.452657 0.250397 0.000000 
0.447581 0.233927 0.000000 
0.469069 0.249147 0.000000 
0.461060 0.223152 0.000000 
0.422936 0.310582 0.000000 
0.419709 0.280141 0.000000 
0.421169 0.248245 0.000000 
0.445302 0.200102 0.000000 
0.430164 0.213756 0.000000 
0.237274 0.118068 0.000000 
0.245795 0.149145 0.000000 
0.316890 0.108198 0.000000 
0.309379 0.123731 0.000000 
0.108422 0.276316 0.000000 
0.124600 0.278754 0.000000 
0.133833 0.265171 0.000000 
0.126856 0.295460 0.000000 
0.127151 0.250416 0.000000 
0.110741 0.249163 0.000000 
0.132228 0.233942 0.000000 
0.118753 0.223166 0.000000 
0.150939 0.265407 0.000000 
0.162053 0.248268 0.000000 
0.156283 0.286236 0.000000 
0.262775 0.109938 0.000000 
0.265407 0.127407 0.000000 
0.280701 0.133390 0.000000 
0.249621 0.133320 0.000000 
0.292189 0.122442 0.000000 
0.289764 0.106164 0.000000 
0.315656 0.140551 0.000000 
0.282708 0.151841 0.000000 
0.300473 0.157713 0.000000 
0.263588 0.161683 0.000000 
0.456982 0.355396 0.000000 
0.436802 0.351996 0.000000 
0.342373 0.461184 0.000000 
0.339334 0.437976 0.000000 
0.224023 0.423701 0.000000 
0.353997 0.427147 0.000000 
0.407328 0.197942 0.000000 
0.143948 0.321397 0.000000 
0.226716 0.154597 0.000000 
0.434969 0.324315 0.000000 
0.302414 0.408586 0.000000 
0.393012 0.353106 0.000000 
0.328012 0.178098 0.000000 
0.205118 0.376477 0.000000 
0.189380 0.227857 0.000000 
0.403866 0.248663 0.000000 
0.241801 0.397775 0.000000 
0.344103 0.394618 0.000000 
0.380044 0.213564 0.000000 
0.175574 0.319556 0.000000 
0.235538 0.185025 0.000000 
0.405753 0.312716 0.000000 
0.311397 0.438377 0.000000 
0.424718 0.365387 0.000000 
0.332907 0.144488 0.000000 
0.186137 0.404652 0.000000 
0.157697 0.215615 0.000000 
0.433201 0.231542 0.000000 
0.291050 0.395698 0.000000 
0.206430 0.224836 0.000000 
0.384036 0.230913 0.000000 
0.369869 0.243695 0.000000 
0.369885 0.260014 0.000000 
0.355735 0.235516 0.000000 
0.388306 0.264142 0.000000 
0.355681 0.269529 0.000000 
0.340383 0.243039 0.000000 
0.361375 0.217519 0.000000 
0.356574 0.286761 0.000000 
0.340312 0.260733 0.000000 
0.325898 0.233644 0.000000 
0.372386 0.298735 0.000000 
0.342076 0.296228 0.000000 
0.310440 0.241442 0.000000 
0.323439 0.213981 0.000000 
0.273849 0.401609 0.000000 
0.295414 0.379048 0.000000 
0.212545 0.207696 0.000000 
0.326618 0.288404 0.000000 
0.280711 0.369135 0.000000 
0.313317 0.378492 0.000000 
0.326345 0.394711 0.000000 
0.312096 0.297861 0.000000 
0.325746 0.270142 0.000000 
0.261643 0.375067 0.000000 
0.313038 0.315155 0.000000 
0.296649 0.290042 0.000000 
0.328493 0.322981 0.000000 
0.298539 0.324638 0.000000 
0.282146 0.299514 0.000000 
0.295781 0.270688 0.000000 
0.343009 0.313511 0.000000 
0.299588 0.343107 0.000000 
0.283093 0.316814 0.000000 
0.268600 0.326296 0.000000 
0.267166 0.343442 0.000000 
0.282708 0.352428 0.000000 
0.246639 0.354125 0.000000 
0.253154 0.318474 0.000000 
0.234681 0.327940 0.000000 
0.252205 0.301173 0.000000 
0.229600 0.346447 0.000000 
0.209069 0.356089 0.000000 
0.213355 0.319404 0.000000 
0.236763 0.293357 0.000000 
0.266706 0.291699 0.000000 
0.216384 0.302119 0.000000 
0.235820 0.276063 0.000000 
0.265766 0.274409 0.000000 
0.218906 0.261810 0.000000 
0.250322 0.266590 0.000000 
0.249381 0.249299 0.000000 
0.235601 0.237530 0.000000 
0.239952 0.216980 0.000000 
0.263887 0.239829 0.000000 
0.258256 0.219831 0.000000 
0.279401 0.245582 0.000000 
0.294925 0.234596 0.000000 
0.334704 0.199340 0.000000 
0.230673 0.383867 0.000000 
0.243113 0.369044 0.000000 
0.256903 0.179213 0.000000 
0.373216 0.354786 0.000000 
0.367071 0.371905 0.000000 
0.359760 0.342389 0.000000 
0.342176 0.347905 0.000000 
0.338113 0.365159 0.000000 
0.319638 0.366801 0.000000 
0.313711 0.350095 0.000000 
0.328112 0.339446 0.000000 
0.173327 0.295527 0.000000 
0.394620 0.326614 0.000000 
0.375087 0.319148 0.000000 
0.280339 0.262870 0.000000 
0.319807 0.408154 0.000000 
0.325623 0.428498 0.000000 
0.180847 0.245586 0.000000 
0.219628 0.240567 0.000000 
0.310359 0.260246 0.000000 
0.307265 0.175440 0.000000 
0.259145 0.390890 0.000000 
0.230093 0.202879 0.000000 
0.403628 0.339267 0.000000 
0.426808 0.339123 0.000000 
0.399613 0.231752 0.000000 
0.413880 0.213548 0.000000 
0.192927 0.328135 0.000000 
0.216289 0.389874 0.000000 
0.211349 0.412479 0.000000 
0.349553 0.376761 0.000000 
0.390716 0.296316 0.000000 
0.360216 0.324463 0.000000 
0.352776 0.201490 0.000000 
0.193724 0.346317 0.000000 
0.397897 0.279603 0.000000 
0.305974 0.206420 0.000000 
0.292918 0.219236 0.000000 
0.296490 0.189118 0.000000 
0.271762 0.210224 0.000000 
0.150024 0.231559 0.000000 
0.273282 0.190858 0.000000 
0.203988 0.278940 0.000000 
0.186777 0.272015 0.000000 
0.695837 0.900353 0.000000 
0.591358 0.561226 0.000000 
0.900040 0.738314 0.000000 
0.526655 0.767006 0.000000 
0.805473 0.544855 0.000000 
0.751342 0.893505 0.000000 
0.591135 0.859265 0.000000 
0.695810 0.519859 0.000000 
0.849976 0.839879 0.000000 
0.526003 0.653559 0.000000 
0.881976 0.627297 0.000000 
0.640307 0.888993 0.000000 
0.641340 0.534585 0.000000 
0.882008 0.792879 0.000000 
0.519324 0.710109 0.000000 
0.850573 0.579182 0.000000 
0.552446 0.817582 0.000000 
0.752530 0.524088 0.000000 
0.806603 0.876699 0.000000 
0.551219 0.601475 0.000000 
0.898747 0.681643 0.000000 
0.667639 0.896102 0.000000 
0.613768 0.543975 0.000000 
0.890087 0.765336 0.000000 
0.523696 0.738013 0.000000 
0.829033 0.560921 0.000000 
0.723972 0.901577 0.000000 
0.568780 0.840851 0.000000 
0.724189 0.518106 0.000000 
0.829071 0.859276 0.000000 
0.538165 0.627289 0.000000 
0.894127 0.653589 0.000000 
0.616184 0.873274 0.000000 
0.667569 0.524091 0.000000 
0.869030 0.818776 0.000000 
0.521433 0.681652 0.000000 
0.865485 0.603807 0.000000 
0.538185 0.792890 0.000000 
0.780663 0.530974 0.000000 
0.779809 0.887706 0.000000 
0.570790 0.580916 0.000000 
0.900884 0.710082 0.000000 
0.682970 0.890057 0.000000 
0.685605 0.872589 0.000000 
0.672755 0.862364 0.000000 
0.700901 0.866607 0.000000 
0.658848 0.869030 0.000000 
0.656368 0.885300 0.000000 
0.644290 0.860681 0.000000 
0.632533 0.873310 0.000000 
0.674275 0.845323 0.000000 
0.704477 0.849876 0.000000 
0.712144 0.877035 0.000000 
0.728121 0.873145 0.000000 
0.709714 0.893313 0.000000 
0.735629 0.888679 0.000000 
0.660283 0.835199 0.000000 
0.690701 0.838818 0.000000 
0.719203 0.845756 0.000000 
0.552472 0.801104 0.000000 
0.567777 0.792270 0.000000 
0.567761 0.775848 0.000000 
0.581993 0.800494 0.000000 
0.553824 0.769052 0.000000 
0.539553 0.777259 0.000000 
0.551001 0.752051 0.000000 
0.533799 0.750735 0.000000 
0.582033 0.766410 0.000000 
0.597307 0.792855 0.000000 
0.580593 0.816299 0.000000 
0.592319 0.828932 0.000000 
0.566350 0.824553 0.000000 
0.584854 0.844489 0.000000 
0.581226 0.749163 0.000000 
0.597363 0.775193 0.000000 
0.609898 0.804568 0.000000 
0.609059 0.858416 0.000000 
0.616769 0.839548 0.000000 
0.833903 0.843520 0.000000 
0.821886 0.830569 0.000000 
0.805878 0.834242 0.000000 
0.826744 0.814881 0.000000 
0.802554 0.849758 0.000000 
0.813730 0.861841 0.000000 
0.787624 0.858374 0.000000 
0.790169 0.875438 0.000000 
0.793500 0.822431 0.000000 
0.815890 0.801657 0.000000 
0.842465 0.812726 0.000000 
0.852173 0.798483 0.000000 
0.853680 0.824774 0.000000 
0.869000 0.802295 0.000000 
0.776858 0.827055 0.000000 
0.798655 0.805535 0.000000 
0.824507 0.786775 0.000000 
0.530875 0.723179 0.000000 
0.561624 0.722911 0.000000 
0.586664 0.577094 0.000000 
0.598639 0.589979 0.000000 
0.614578 0.586238 0.000000 
0.593773 0.605652 0.000000 
0.617996 0.571052 0.000000 
0.606750 0.558923 0.000000 
0.633883 0.564451 0.000000 
0.631246 0.547320 0.000000 
0.626956 0.598032 0.000000 
0.604572 0.618823 0.000000 
0.577956 0.607709 0.000000 
0.568159 0.621861 0.000000 
0.566712 0.595628 0.000000 
0.551242 0.617950 0.000000 
0.643537 0.593345 0.000000 
0.621779 0.614912 0.000000 
0.598669 0.635031 0.000000 
0.812599 0.559717 0.000000 
0.802648 0.574318 0.000000 
0.809790 0.589108 0.000000 
0.786275 0.573076 0.000000 
0.825209 0.589131 0.000000 
0.834502 0.575544 0.000000 
0.834704 0.602969 0.000000 
0.850772 0.596684 0.000000 
0.801031 0.603809 0.000000 
0.775801 0.586606 0.000000 
0.780677 0.558226 0.000000 
0.764633 0.551932 0.000000 
0.789925 0.544605 0.000000 
0.764603 0.534674 0.000000 
0.809247 0.619001 0.000000 
0.783416 0.602550 0.000000 
0.758663 0.584514 0.000000 
0.891576 0.696482 0.000000 
0.873961 0.697807 0.000000 
0.866854 0.712615 0.000000 
0.864722 0.684229 0.000000 
0.876449 0.724687 0.000000 
0.892862 0.723479 0.000000 
0.871552 0.740741 0.000000 
0.886482 0.749388 0.000000 
0.849904 0.714932 0.000000 
0.847616 0.684474 0.000000 
0.872837 0.670592 0.000000 
0.867754 0.654121 0.000000 
0.889247 0.669331 0.000000 
0.881225 0.643338 0.000000 
0.843150 0.730829 0.000000 
0.839905 0.700369 0.000000 
0.841354 0.668458 0.000000 
0.865461 0.620289 0.000000 
0.850333 0.633951 0.000000 
0.657431 0.538291 0.000000 
0.666049 0.569423 0.000000 
0.737062 0.528398 0.000000 
0.729560 0.543936 0.000000 
0.528630 0.696510 0.000000 
0.544802 0.698957 0.000000 
0.554038 0.685386 0.000000 
0.547051 0.715660 0.000000 
0.547357 0.670625 0.000000 
0.530921 0.669334 0.000000 
0.552452 0.654171 0.000000 
0.538933 0.643342 0.000000 
0.571149 0.685641 0.000000 
0.582318 0.668563 0.000000 
0.576474 0.706453 0.000000 
0.682938 0.530155 0.000000 
0.685597 0.547632 0.000000 
0.700895 0.553605 0.000000 
0.669827 0.553566 0.000000 
0.712372 0.542653 0.000000 
0.709935 0.526375 0.000000 
0.735846 0.560757 0.000000 
0.702916 0.572057 0.000000 
0.720679 0.577926 0.000000 
0.683832 0.581929 0.000000 
0.877189 0.775594 0.000000 
0.857078 0.772282 0.000000 
0.762534 0.881408 0.000000 
0.759576 0.858250 0.000000 
0.644205 0.843891 0.000000 
0.774306 0.847484 0.000000 
0.827500 0.618139 0.000000 
0.564132 0.741599 0.000000 
0.647026 0.574933 0.000000 
0.855203 0.744566 0.000000 
0.722641 0.828796 0.000000 
0.813386 0.773513 0.000000 
0.748217 0.598312 0.000000 
0.625306 0.796680 0.000000 
0.609732 0.648235 0.000000 
0.824055 0.668888 0.000000 
0.662002 0.817980 0.000000 
0.764464 0.814976 0.000000 
0.800233 0.633778 0.000000 
0.595760 0.739771 0.000000 
0.655891 0.605379 0.000000 
0.825980 0.732992 0.000000 
0.731604 0.858597 0.000000 
0.845069 0.785755 0.000000 
0.753093 0.564690 0.000000 
0.606310 0.824840 0.000000 
0.578041 0.635979 0.000000 
0.853377 0.651742 0.000000 
0.711281 0.815916 0.000000 
0.626776 0.645202 0.000000 
0.804230 0.651137 0.000000 
0.790080 0.663934 0.000000 
0.790106 0.680264 0.000000 
0.775956 0.655759 0.000000 
0.808512 0.684384 0.000000 
0.775925 0.689799 0.000000 
0.760625 0.663301 0.000000 
0.781579 0.637745 0.000000 
0.776823 0.707041 0.000000 
0.760569 0.681012 0.000000 
0.746146 0.653908 0.000000 
0.792619 0.719007 0.000000 
0.762346 0.716526 0.000000 
0.730711 0.661726 0.000000 
0.743669 0.634225 0.000000 
0.694066 0.821818 0.000000 
0.715657 0.799283 0.000000 
0.632921 0.628086 0.000000 
0.746906 0.708714 0.000000 
0.700953 0.789377 0.000000 
0.733586 0.798753 0.000000 
0.746650 0.815006 0.000000 
0.732405 0.718187 0.000000 
0.746029 0.690444 0.000000 
0.681867 0.795294 0.000000 
0.733343 0.735475 0.000000 
0.716965 0.710372 0.000000 
0.748787 0.743293 0.000000 
0.718837 0.744944 0.000000 
0.702461 0.719843 0.000000 
0.716093 0.691014 0.000000 
0.763289 0.733817 0.000000 
0.719868 0.763389 0.000000 
0.703395 0.737127 0.000000 
0.688881 0.746589 0.000000 
0.687427 0.763711 0.000000 
0.702970 0.772693 0.000000 
0.666870 0.774367 0.000000 
0.673425 0.738760 0.000000 
0.654922 0.748198 0.000000 
0.672488 0.721474 0.000000 
0.649822 0.766683 0.000000 
0.629268 0.776305 0.000000 
0.633576 0.739646 0.000000 
0.657027 0.713642 0.000000 
0.687011 0.712021 0.000000 
0.636618 0.722376 0.000000 
0.656088 0.696356 0.000000 
0.686075 0.694735 0.000000 
0.639172 0.682103 0.000000 
0.670613 0.686901 0.000000 
0.669674 0.669608 0.000000 
0.655903 0.657849 0.000000 
0.660268 0.637306 0.000000 
0.684178 0.660130 0.000000 
0.678545 0.640126 0.000000 
0.699692 0.665883 0.000000 
0.715199 0.654879 0.000000 
0.754915 0.619566 0.000000 
0.650873 0.804076 0.000000 
0.663329 0.789268 0.000000 
0.677192 0.599496 0.000000 
0.793573 0.775167 0.000000 
0.787459 0.792307 0.000000 
0.780078 0.762729 0.000000 
0.762488 0.768231 0.000000 
0.758433 0.785486 0.000000 
0.739924 0.787086 0.000000 
0.733996 0.770382 0.000000 
0.748410 0.759756 0.000000 
0.593515 0.715749 0.000000 
0.814904 0.746941 0.000000 
0.795355 0.739452 0.000000 
0.700648 0.683193 0.000000 
0.740082 0.828416 0.000000 
0.745870 0.848757 0.000000 
0.601142 0.665915 0.000000 
0.639932 0.660893 0.000000 
0.730650 0.680553 0.000000 
0.727480 0.595657 0.000000 
0.679359 0.811104 0.000000 
0.650441 0.623235 0.000000 
0.823958 0.759636 0.000000 
0.847088 0.759425 0.000000 
0.819799 0.651970 0.000000 
0.834054 0.633749 0.000000 
0.613125 0.748357 0.000000 
0.636478 0.810075 0.000000 
0.631529 0.832671 0.000000 
0.769909 0.797123 0.000000 
0.810929 0.716575 0.000000 
0.780501 0.744777 0.000000 
0.772977 0.621709 0.000000 
0.613916 0.766530 0.000000 
0.818099 0.699849 0.000000 
0.726210 0.626664 0.000000 
0.713175 0.639500 0.000000 
0.716720 0.609350 0.000000 
0.692026 0.630489 0.000000 
0.570302 0.651855 0.000000 
0.693530 0.611101 0.000000 
0.624210 0.699195 0.000000 
0.606987 0.692264 0.000000 
VECTORS X_EC float 
-0.603180 0.513508 0.000000 
0.185458 0.418608 0.000000 
0.636909 0.596998 0.000000 
0.063596 -0.870287 0.000000 
0.506545 0.706105 0.000000 
-0.466070 -0.375811 0.000000 
0.218296 0.419383 0.000000 
-0.992861 0.512898 0.000000 
0.618476 -0.416034 0.000000 
0.331532 -0.882895 0.000000 
0.857735 0.236397 0.000000 
-0.376359 -0.597247 0.000000 
0.712519 -0.575749 0.000000 
-0.454229 0.236492 0.000000 
-0.798399 0.982390 0.000000 
-0.179908 -0.391747 0.000000 
-0.948002 -0.354248 0.000000 
0.922091 -0.352774 0.000000 
-0.128702 0.728664 0.000000 
-0.624548 -0.380531 0.000000 
-0.229297 0.571253 0.000000 
-0.518381 -0.050531 0.000000 
0.525605 0.872054 0.000000 
0.096270 0.398347 0.000000 
0.643490 -0.929800 0.000000 
0.185318 -0.822617 0.000000 
-0.627403 -0.923720 0.000000 
0.586631 -0.027648 0.000000 
-0.958029 -0.919532 0.000000 
0.224731 -0.827354 0.000000 
0.857511 -0.640066 0.000000 
0.331840 0.479181 0.000000 
-0.061969 0.920304 0.000000 
0.922163 -0.051106 0.000000 
-0.970400 -0.024676 0.000000 
-0.229619 -0.975095 0.000000 
-0.672462 -0.093425 0.000000 
-0.454099 -0.639460 0.000000 
0.784167 0.209863 0.000000 
-0.349988 0.193794 0.000000 
-0.202480 0.000521 0.000000 
-0.798104 0.613617 0.000000 
-0.397341 0.256038 0.000000 
-0.047891 0.308527 0.000000 
0.156576 0.051441 0.000000 
0.071861 0.614310 0.000000 
0.023144 -0.226577 0.000000 
-0.302362 -0.276055 0.000000 
0.190091 -0.517749 0.000000 
-0.062661 -0.752773 0.000000 
0.497470 0.081651 0.000000 
0.406530 0.685542 0.000000 
-0.136655 0.839278 0.000000 
-0.058663 -0.841335 0.000000 
-0.462250 0.790959 0.000000 
-0.369350 -0.690698 0.000000 
0.699934 -0.198162 0.000000 
0.627670 0.409966 0.000000 
0.488992 0.979871 0.000000 
-0.618371 -0.353760 0.000000 
-0.441596 -0.047814 0.000000 
-0.113090 -0.048232 0.000000 
-0.606089 0.236461 0.000000 
0.022806 -0.326977 0.000000 
-0.141427 -0.612259 0.000000 
0.362890 -0.383559 0.000000 
0.389093 -0.727605 0.000000 
0.075793 0.237107 0.000000 
-0.453199 0.542587 0.000000 
-0.922278 0.208534 0.000000 
0.825043 0.443008 0.000000 
0.912586 -0.076240 0.000000 
0.513862 0.293772 0.000000 
0.420857 0.220876 0.000000 
-0.099823 0.543650 0.000000 
-0.687464 0.794383 0.000000 
0.235276 0.777785 0.000000 
0.612764 0.931913 0.000000 
0.542078 -0.733506 0.000000 
0.799858 -0.973014 0.000000 
0.724968 0.708255 0.000000 
-0.886665 -0.875734 0.000000 
0.412855 0.644051 0.000000 
0.170307 0.868996 0.000000 
0.239070 0.346973 0.000000 
-0.103596 0.399788 0.000000 
0.960824 0.460670 0.000000 
-0.623222 0.908316 0.000000 
-0.845602 -0.559384 0.000000 
-0.562607 -0.363419 0.000000 
0.912724 -0.334508 0.000000 
-0.640919 -0.025080 0.000000 
0.866986 0.129107 0.000000 