# vtk DataFile Version 3.0 
vtk output 
ASCII 
DATASET UNSTRUCTURED_GRID 
POINTS 616 float 
0.229366 0.433490 0.000000 
0.124137 0.094149 0.000000 
0.433307 0.271149 0.000000 
0.060021 0.300373 0.000000 
0.338500 0.077856 0.000000 
0.284855 0.426554 0.000000 
0.124629 0.392512 0.000000 
0.228800 0.052927 0.000000 
0.383274 0.372681 0.000000 
0.059157 0.187002 0.000000 
0.415113 0.160148 0.000000 
0.173838 0.422185 0.000000 
0.174392 0.067727 0.000000 
0.415261 0.325732 0.000000 
0.052550 0.243503 0.000000 
0.383630 0.112070 0.000000 
0.085899 0.350881 0.000000 
0.285539 0.057149 0.000000 
0.340058 0.409612 0.000000 
0.084217 0.134737 0.000000 
0.431972 0.214493 0.000000 
0.201163 0.429272 0.000000 
0.146797 0.077111 0.000000 
0.423355 0.298157 0.000000 
0.057009 0.271390 0.000000 
0.362068 0.093855 0.000000 
0.257498 0.434673 0.000000 
0.102263 0.374131 0.000000 
0.257191 0.051160 0.000000 
0.362426 0.392100 0.000000 
0.071281 0.160680 0.000000 
0.427307 0.186428 0.000000 
0.149701 0.406484 0.000000 
0.200610 0.057215 0.000000 
0.402318 0.351603 0.000000 
0.054604 0.215064 0.000000 
0.398582 0.136687 0.000000 
0.071604 0.326228 0.000000 
0.313687 0.064026 0.000000 
0.313310 0.420695 0.000000 
0.103252 0.113581 0.000000 
0.434143 0.242932 0.000000 
0.216486 0.423205 0.000000 
0.219098 0.405724 0.000000 
0.206236 0.395512 0.000000 
0.234386 0.399723 0.000000 
0.192336 0.402190 0.000000 
0.189878 0.418473 0.000000 
0.177768 0.393852 0.000000 
0.166038 0.406499 0.000000 
0.207730 0.378464 0.000000 
0.237938 0.382987 0.000000 
0.245639 0.410143 0.000000 
0.261606 0.406230 0.000000 
0.243233 0.426429 0.000000 
0.269133 0.421755 0.000000 
0.193721 0.368353 0.000000 
0.224143 0.371943 0.000000 
0.252658 0.378849 0.000000 
0.085903 0.334406 0.000000 
0.101191 0.325554 0.000000 
0.101145 0.309132 0.000000 
0.115413 0.333760 0.000000 
0.087196 0.302359 0.000000 
0.072944 0.310598 0.000000 
0.084334 0.285360 0.000000 
0.067132 0.284083 0.000000 
0.115396 0.299674 0.000000 
0.130704 0.326098 0.000000 
0.114035 0.349566 0.000000 
0.125771 0.362180 0.000000 
0.099818 0.357841 0.000000 
0.118334 0.377745 0.000000 
0.114552 0.282420 0.000000 
0.130733 0.308435 0.000000 
0.143305 0.337792 0.000000 
0.142548 0.391639 0.000000 
0.150222 0.372756 0.000000 
0.367212 0.376336 0.000000 
0.355168 0.363406 0.000000 
0.339180 0.367133 0.000000 
0.360002 0.347718 0.000000 
0.335906 0.382664 0.000000 
0.347098 0.394719 0.000000 
0.321020 0.391327 0.000000 
0.323622 0.408397 0.000000 
0.326799 0.355347 0.000000 
0.349149 0.334527 0.000000 
0.375720 0.345544 0.000000 
0.385417 0.331302 0.000000 
0.386962 0.357581 0.000000 
0.402249 0.335120 0.000000 
0.310199 0.360020 0.000000 
0.331937 0.338441 0.000000 
0.357761 0.319623 0.000000 
0.064139 0.256538 0.000000 
0.094894 0.256194 0.000000 
0.119325 0.109915 0.000000 
0.131365 0.122851 0.000000 
0.147372 0.119153 0.000000 
0.126528 0.138552 0.000000 
0.150879 0.104049 0.000000 
0.139687 0.091976 0.000000 
0.166819 0.097487 0.000000 
0.164251 0.080431 0.000000 
0.159768 0.130952 0.000000 
0.137409 0.151761 0.000000 
0.110807 0.140728 0.000000 
0.101116 0.154989 0.000000 
0.099569 0.128695 0.000000 
0.084276 0.151221 0.000000 
0.176403 0.126304 0.000000 
0.154638 0.147859 0.000000 
0.131571 0.168022 0.000000 
0.345637 0.092688 0.000000 
0.335707 0.107294 0.000000 
0.342870 0.122071 0.000000 
0.319331 0.106075 0.000000 
0.358289 0.122069 0.000000 
0.367559 0.108469 0.000000 
0.367800 0.135892 0.000000 
0.383858 0.129577 0.000000 
0.334127 0.136778 0.000000 
0.308871 0.119616 0.000000 
0.313715 0.091240 0.000000 
0.297664 0.084968 0.000000 
0.322951 0.077626 0.000000 
0.297621 0.067725 0.000000 
0.342361 0.151954 0.000000 
0.316505 0.135543 0.000000 
0.291723 0.117545 0.000000 
0.424814 0.229339 0.000000 
0.407191 0.230676 0.000000 
0.400101 0.245481 0.000000 
0.397930 0.217111 0.000000 
0.409709 0.257538 0.000000 
0.426126 0.256324 0.000000 
0.404818 0.273582 0.000000 
0.419745 0.282222 0.000000 
0.383153 0.247808 0.000000 
0.380823 0.217371 0.000000 
0.406033 0.203471 0.000000 
0.400918 0.186999 0.000000 
0.422451 0.202191 0.000000 
0.414384 0.176192 0.000000 
0.376412 0.263700 0.000000 
0.373131 0.233262 0.000000 
0.374535 0.201367 0.000000 
0.398581 0.153165 0.000000 
0.383465 0.166843 0.000000 
0.190458 0.071400 0.000000 
0.199018 0.102465 0.000000 
0.270067 0.061451 0.000000 
0.262573 0.076989 0.000000 
0.061818 0.229878 0.000000 
0.078005 0.232279 0.000000 
0.087215 0.218677 0.000000 
0.080298 0.248976 0.000000 
0.080500 0.203938 0.000000 
0.064077 0.202727 0.000000 
0.085553 0.187454 0.000000 
0.072054 0.176711 0.000000 
0.104326 0.218876 0.000000 
0.115409 0.201721 0.000000 
0.109713 0.239701 0.000000 
0.215947 0.063237 0.000000 
0.218604 0.080706 0.000000 
0.233906 0.086677 0.000000 
0.202825 0.086636 0.000000 
0.245382 0.075718 0.000000 
0.242934 0.059441 0.000000 
0.268876 0.093805 0.000000 
0.235938 0.105127 0.000000 
0.253711 0.110982 0.000000 
0.216830 0.114988 0.000000 
0.410449 0.308420 0.000000 
0.390335 0.305108 0.000000 
0.296012 0.414434 0.000000 
0.293017 0.391272 0.000000 
0.177654 0.377054 0.000000 
0.307700 0.380465 0.000000 
0.360616 0.151065 0.000000 
0.097442 0.274879 0.000000 
0.179948 0.107944 0.000000 
0.388472 0.277415 0.000000 
0.256060 0.361882 0.000000 
0.346645 0.306388 0.000000 
0.281282 0.131346 0.000000 
0.158691 0.329879 0.000000 
0.142713 0.181269 0.000000 
0.357234 0.201816 0.000000 
0.195408 0.351130 0.000000 
0.297805 0.347969 0.000000 
0.333356 0.166737 0.000000 
0.129067 0.273003 0.000000 
0.188813 0.138365 0.000000 
0.359240 0.265877 0.000000 
0.265070 0.391673 0.000000 
0.378321 0.318584 0.000000 
0.286131 0.097727 0.000000 
0.139751 0.358069 0.000000 
0.111003 0.169071 0.000000 
0.386535 0.184635 0.000000 
0.244682 0.349013 0.000000 
0.159766 0.178223 0.000000 
0.337377 0.184088 0.000000 
0.323236 0.196899 0.000000 
0.323281 0.213220 0.000000 
0.309091 0.188740 0.000000 
0.341703 0.217315 0.000000 
0.309100 0.222762 0.000000 
0.293756 0.196290 0.000000 
0.314700 0.170727 0.000000 
0.310023 0.239997 0.000000 
0.293719 0.213989 0.000000 
0.279253 0.186914 0.000000 
0.325850 0.251943 0.000000 
0.295549 0.249495 0.000000 
0.263813 0.194734 0.000000 
0.276756 0.167243 0.000000 
0.227478 0.354936 0.000000 
0.249022 0.332363 0.000000 
0.165861 0.161074 0.000000 
0.280083 0.241695 0.000000 
0.234300 0.322470 0.000000 
0.266937 0.331806 0.000000 
0.280019 0.348040 0.000000 
0.265592 0.251184 0.000000 
0.279174 0.223427 0.000000 
0.215232 0.328417 0.000000 
0.266565 0.268480 0.000000 
0.250123 0.243372 0.000000 
0.282026 0.276282 0.000000 
0.252078 0.277973 0.000000 
0.235636 0.252863 0.000000 
0.249214 0.224009 0.000000 
0.296519 0.266786 0.000000 
0.253147 0.296434 0.000000 
0.236611 0.270163 0.000000 
0.222127 0.279657 0.000000 
0.220716 0.296800 0.000000 
0.236276 0.305770 0.000000 
0.200196 0.307499 0.000000 
0.206664 0.271846 0.000000 
0.188199 0.281329 0.000000 
0.205685 0.254544 0.000000 
0.183142 0.299837 0.000000 
0.162617 0.309494 0.000000 
0.166850 0.272806 0.000000 
0.190225 0.246733 0.000000 
0.220171 0.245051 0.000000 
0.169854 0.255516 0.000000 
0.189246 0.229430 0.000000 
0.219197 0.227752 0.000000 
0.172301 0.215189 0.000000 
0.203731 0.219939 0.000000 
0.202754 0.202636 0.000000 
0.188953 0.190877 0.000000 
0.193274 0.170318 0.000000 
0.217246 0.193153 0.000000 
0.211584 0.173153 0.000000 
0.232774 0.198897 0.000000 
0.248282 0.187898 0.000000 
0.288003 0.152585 0.000000 
0.184259 0.337238 0.000000 
0.196687 0.322414 0.000000 
0.210169 0.132528 0.000000 
0.326842 0.308084 0.000000 
0.320742 0.325237 0.000000 
0.313340 0.295673 0.000000 
0.295761 0.301208 0.000000 
0.291737 0.318481 0.000000 
0.273247 0.320119 0.000000 
0.267288 0.303413 0.000000 
0.281672 0.292751 0.000000 
0.126780 0.248974 0.000000 
0.348165 0.279832 0.000000 
0.328607 0.272378 0.000000 
0.233749 0.216196 0.000000 
0.273487 0.361472 0.000000 
0.279309 0.381807 0.000000 
0.134203 0.199011 0.000000 
0.172985 0.193938 0.000000 
0.263772 0.213548 0.000000 
0.260529 0.128708 0.000000 
0.212755 0.344237 0.000000 
0.183395 0.156228 0.000000 
0.357218 0.292500 0.000000 
0.380352 0.292267 0.000000 
0.352950 0.184901 0.000000 
0.367183 0.166663 0.000000 
0.146436 0.281563 0.000000 
0.169880 0.343255 0.000000 
0.164966 0.365850 0.000000 
0.303217 0.330098 0.000000 
0.344167 0.249487 0.000000 
0.313753 0.277723 0.000000 
0.306077 0.154708 0.000000 
0.147261 0.299743 0.000000 
0.351315 0.232760 0.000000 
0.259281 0.159693 0.000000 
0.246246 0.172530 0.000000 
0.249774 0.142401 0.000000 
0.225076 0.163533 0.000000 
0.103351 0.185027 0.000000 
0.226565 0.144160 0.000000 
0.157412 0.232342 0.000000 
0.140185 0.225440 0.000000 
0.742684 0.947094 0.000000 
0.637566 0.607860 0.000000 
0.946638 0.784771 0.000000 
0.573295 0.813962 0.000000 
0.851813 0.591475 0.000000 
0.798181 0.940180 0.000000 
0.637964 0.906171 0.000000 
0.742157 0.566591 0.000000 
0.896726 0.886432 0.000000 
0.572594 0.700584 0.000000 
0.928429 0.673789 0.000000 
0.687143 0.935800 0.000000 
0.687769 0.581406 0.000000 
0.928665 0.839351 0.000000 
0.565857 0.757047 0.000000 
0.896942 0.625731 0.000000 
0.599209 0.864518 0.000000 
0.798854 0.570738 0.000000 
0.853399 0.923312 0.000000 
0.597661 0.648377 0.000000 
0.945263 0.728093 0.000000 
0.714475 0.942865 0.000000 
0.660192 0.590793 0.000000 
0.936713 0.811802 0.000000 
0.570269 0.784950 0.000000 
0.875398 0.607501 0.000000 
0.770828 0.948293 0.000000 
0.615595 0.887798 0.000000 
0.770520 0.564785 0.000000 
0.875849 0.905860 0.000000 
0.584740 0.674275 0.000000 
0.940627 0.700053 0.000000 
0.663007 0.920117 0.000000 
0.713972 0.570884 0.000000 
0.915731 0.865284 0.000000 
0.567984 0.728622 0.000000 
0.911894 0.650339 0.000000 
0.584896 0.839839 0.000000 
0.826981 0.577606 0.000000 
0.826629 0.934348 0.000000 
0.616710 0.627270 0.000000 
0.947438 0.756531 0.000000 
0.729807 0.936812 0.000000 
0.732415 0.919335 0.000000 
0.719547 0.909121 0.000000 
[...]
POINT_DATA 616 
VECTORS X_GC float 
0.229366 0.433490 0.000000 
0.124137 0.094149 0.000000 
0.433307 0.271149 0.000000 
0.060021 0.300373 0.000000 
0.338500 0.077856 0.000000 
0.284855 0.426554 0.000000 
0.124629 0.392512 0.000000 
0.228800 0.052927 0.000000 
0.383274 0.372681 0.000000 
0.059157 0.187002 0.000000 
0.415113 0.160148 0.000000 
0.173838 0.422185 0.000000 
0.174392 0.067727 0.000000 
0.415261 0.325732 0.000000 
0.052550 0.243503 0.000000 
0.383630 0.112070 0.000000 
0.085899 0.350881 0.000000 
0.285539 0.057149 0.000000 
0.340058 0.409612 0.000000 
0.084217 0.134737 0.000000 
0.431972 0.214493 0.000000 
0.201163 0.429272 0.000000 
0.146797 0.077111 0.000000 
0.423355 0.298157 0.000000 
0.057009 0.271390 0.000000 
0.362068 0.093855 0.000000 
0.257498 0.434673 0.000000 
0.102263 0.374131 0.000000 
0.257191 0.051160 0.000000 
0.362426 0.392100 0.000000 
0.071281 0.160680 0.000000 
0.427307 0.186428 0.000000 
0.149701 0.406484 0.000000 
0.200610 0.057215 0.000000 
0.402318 0.351603 0.000000 
0.054604 0.215064 0.000000 
0.398582 0.136687 0.000000 
0.071604 0.326228 0.000000 
0.313687 0.064026 0.000000 
0.313310 0.420695 0.000000 
0.103252 0.113581 0.000000 
0.434143 0.242932 0.000000 
0.216486 0.423205 0.000000 
0.219098 0.405724 0.000000 
0.206236 0.395512 0.000000 
0.234386 0.399723 0.000000 
0.192336 0.402190 0.000000 
0.189878 0.418473 0.000000 
0.177768 0.393852 0.000000 
0.166038 0.406499 0.000000 
0.207730 0.378464 0.000000 
0.237938 0.382987 0.000000 
0.245639 0.410143 0.000000 
0.261606 0.406230 0.000000 
0.243233 0.426429 0.000000 
0.269133 0.421755 0.000000 
0.193721 0.368353 0.000000 
0.224143 0.371943 0.000000 
0.252658 0.378849 0.000000 
0.085903 0.334406 0.000000 
0.101191 0.325554 0.000000 
0.101145 0.309132 0.000000 
0.115413 0.333760 0.000000 
0.087196 0.302359 0.000000 
0.072944 0.310598 0.000000 
0.084334 0.285360 0.000000 
0.067132 0.284083 0.000000 
0.115396 0.299674 0.000000 
0.130704 0.326098 0.000000 
0.114035 0.349566 0.000000 
0.125771 0.362180 0.000000 
0.099818 0.357841 0.000000 
0.118334 0.377745 0.000000 
0.114552 0.282420 0.000000 
0.130733 0.308435 0.000000 
0.143305 0.337792 0.000000 
0.142548 0.391639 0.000000 
0.150222 0.372756 0.000000 
0.367212 0.376336 0.000000 
0.355168 0.363406 0.000000 
0.339180 0.367133 0.000000 
0.360002 0.347718 0.000000 
0.335906 0.382664 0.000000 
0.347098 0.394719 0.000000 
0.321020 0.391327 0.000000 
0.323622 0.408397 0.000000 
0.326799 0.355347 0.000000 
0.349149 0.334527 0.000000 
0.375720 0.345544 0.000000 
0.385417 0.331302 0.000000 
0.386962 0.357581 0.000000 
0.402249 0.335120 0.000000 
0.310199 0.360020 0.000000 
0.331937 0.338441 0.000000 
0.357761 0.319623 0.000000 
0.064139 0.256538 0.000000 
0.094894 0.256194 0.000000 
0.119325 0.109915 0.000000 
0.131365 0.122851 0.000000 
0.147372 0.119153 0.000000 
0.126528 0.138552 0.000000 
0.150879 0.104049 0.000000 
0.139687 0.091976 0.000000 
0.166819 0.097487 0.000000 
0.164251 0.080431 0.000000 
0.159768 0.130952 0.000000 
0.137409 0.151761 0.000000 
0.110807 0.140728 0.000000 
0.101116 0.154989 0.000000 
0.099569 0.128695 0.000000 
0.084276 0.151221 0.000000 
0.176403 0.126304 0.000000 
0.154638 0.147859 0.000000 
0.131571 0.168022 0.000000 
0.345637 0.092688 0.000000 
0.335707 0.107294 0.000000 
0.342870 0.122071 0.000000 
0.319331 0.106075 0.000000 
0.358289 0.122069 0.000000 
0.367559 0.108469 0.000000 
0.367800 0.135892 0.000000 
0.383858 0.129577 0.000000 
0.334127 0.136778 0.000000 
0.308871 0.119616 0.000000 
0.313715 0.091240 0.000000 
0.297664 0.084968 0.000000 
0.322951 0.077626 0.000000 
0.297621 0.067725 0.000000 
0.342361 0.151954 0.000000 
0.316505 0.135543 0.000000 
0.291723 0.117545 0.000000 
0.424814 0.229339 0.000000 
0.407191 0.230676 0.000000 
0.400101 0.245481 0.000000 
0.397930 0.217111 0.000000 
0.409709 0.257538 0.000000 
0.426126 0.256324 0.000000 
0.404818 0.273582 0.000000 
0.419745 0.282222 0.000000 
0.383153 0.247808 0.000000 
0.380823 0.217371 0.000000 
0.406033 0.203471 0.000000 
0.400918 0.186999 0.000000 
0.422451 0.202191 0.000000 
0.414384 0.176192 0.000000 
0.376412 0.263700 0.000000 
0.373131 0.233262 0.000000 
0.374535 0.201367 0.000000 
0.398581 0.153165 0.000000 
0.383465 0.166843 0.000000 
0.190458 0.071400 0.000000 
0.199018 0.102465 0.000000 
0.270067 0.061451 0.000000 
0.262573 0.076989 0.000000 
0.061818 0.229878 0.000000 
0.078005 0.232279 0.000000 
0.087215 0.218677 0.000000 
0.080298 0.248976 0.000000 
0.080500 0.203938 0.000000 
0.064077 0.202727 0.000000 
0.085553 0.187454 0.000000 
0.072054 0.176711 0.000000 
0.104326 0.218876 0.000000 
0.115409 0.201721 0.000000 
0.109713 0.239701 0.000000 
0.215947 0.063237 0.000000 
0.218604 0.080706 0.000000 
0.233906 0.086677 0.000000 
0.202825 0.086636 0.000000 
0.245382 0.075718 0.000000 
0.242934 0.059441 0.000000 
0.268876 0.093805 0.000000 
0.235938 0.105127 0.000000 
0.253711 0.110982 0.000000 
0.216830 0.114988 0.000000 
0.410449 0.308420 0.000000 
0.390335 0.305108 0.000000 
0.296012 0.414434 0.000000 
0.293017 0.391272 0.000000 
0.177654 0.377054 0.000000 
0.307700 0.380465 0.000000 
0.360616 0.151065 0.000000 
0.097442 0.274879 0.000000 
0.179948 0.107944 0.000000 
0.388472 0.277415 0.000000 
0.256060 0.361882 0.000000 
0.346645 0.306388 0.000000 
0.281282 0.131346 0.000000 
0.158691 0.329879 0.000000 
0.142713 0.181269 0.000000 
0.357234 0.201816 0.000000 
0.195408 0.351130 0.000000 
0.297805 0.347969 0.000000 
0.333356 0.166737 0.000000 
0.129067 0.273003 0.000000 
0.188813 0.138365 0.000000 
0.359240 0.265877 0.000000 
0.265070 0.391673 0.000000 
0.378321 0.318584 0.000000 
0.286131 0.097727 0.000000 
0.139751 0.358069 0.000000 
0.111003 0.169071 0.000000 
0.386535 0.184635 0.000000 
0.244682 0.349013 0.000000 
0.159766 0.178223 0.000000 
0.337377 0.184088 0.000000 
0.323236 0.196899 0.000000 
0.323281 0.213220 0.000000 
0.309091 0.188740 0.000000 
0.341703 0.217315 0.000000 
0.309100 0.222762 0.000000 
0.293756 0.196290 0.000000 
0.314700 0.170727 0.000000 
0.310023 0.239997 0.000000 
0.293719 0.213989 0.000000 
0.279253 0.186914 0.000000 
0.325850 0.251943 0.000000 
0.295549 0.249495 0.000000 
0.263813 0.194734 0.000000 
0.276756 0.167243 0.000000 
0.227478 0.354936 0.000000 
0.249022 0.332363 0.000000 
0.165861 0.161074 0.000000 
0.280083 0.241695 0.000000 
0.234300 0.322470 0.000000 
0.266937 0.331806 0.000000 
0.280019 0.348040 0.000000 
0.265592 0.251184 0.000000 
0.279174 0.223427 0.000000 
0.215232 0.328417 0.000000 
0.266565 0.268480 0.000000 
0.250123 0.243372 0.000000 
0.282026 0.276282 0.000000 
0.252078 0.277973 0.000000 
0.235636 0.252863 0.000000 
0.249214 0.224009 0.000000 
0.296519 0.266786 0.000000 
0.253147 0.296434 0.000000 
0.236611 0.270163 0.000000 
0.222127 0.279657 0.000000 
0.220716 0.296800 0.000000 
0.236276 0.305770 0.000000 
0.200196 0.307499 0.000000 
0.206664 0.271846 0.000000 
0.188199 0.281329 0.000000 
0.205685 0.254544 0.000000 
0.183142 0.299837 0.000000 
0.162617 0.309494 0.000000 
0.166850 0.272806 0.000000 
0.190225 0.246733 0.000000 
0.220171 0.245051 0.000000 
0.169854 0.255516 0.000000 
0.189246 0.229430 0.000000 
0.219197 0.227752 0.000000 
0.172301 0.215189 0.000000 
0.203731 0.219939 0.000000 
0.202754 0.202636 0.000000 
0.188953 0.190877 0.000000 
0.193274 0.170318 0.000000 
0.217246 0.193153 0.000000 
0.211584 0.173153 0.000000 
0.232774 0.198897 0.000000 
0.248282 0.187898 0.000000 
0.288003 0.152585 0.000000 
0.184259 0.337238 0.000000 
0.196687 0.322414 0.000000 
0.210169 0.132528 0.000000 
0.326842 0.308084 0.000000 
0.320742 0.325237 0.000000 
0.313340 0.295673 0.000000 
0.295761 0.301208 0.000000 
0.291737 0.318481 0.000000 
0.273247 0.320119 0.000000 
0.267288 0.303413 0.000000 
0.281672 0.292751 0.000000 
0.126780 0.248974 0.000000 
0.348165 0.279832 0.000000 
0.328607 0.272378 0.000000 
0.233749 0.216196 0.000000 
0.273487 0.361472 0.000000 
0.279309 0.381807 0.000000 
0.134203 0.199011 0.000000 
0.172985 0.193938 0.000000 
0.263772 0.213548 0.000000 
0.260529 0.128708 0.000000 
0.212755 0.344237 0.000000 
0.183395 0.156228 0.000000 
0.357218 0.292500 0.000000 
0.380352 0.292267 0.000000 
0.352950 0.184901 0.000000 
0.367183 0.166663 0.000000 
0.146436 0.281563 0.000000 
0.169880 0.343255 0.000000 
0.164966 0.365850 0.000000 
0.303217 0.330098 0.000000 
0.344167 0.249487 0.000000 
0.313753 0.277723 0.000000 
0.306077 0.154708 0.000000 
0.147261 0.299743 0.000000 
0.351315 0.232760 0.000000 
0.259281 0.159693 0.000000 
0.246246 0.172530 0.000000 
0.249774 0.142401 0.000000 
0.225076 0.163533 0.000000 
0.103351 0.185027 0.000000 
0.226565 0.144160 0.000000 
0.157412 0.232342 0.000000 
0.140185 0.225440 0.000000 
0.742684 0.947094 0.000000 
0.637566 0.607860 0.000000 
0.946638 0.784771 0.000000 
0.573295 0.813962 0.000000 
0.851813 0.591475 0.000000 
0.798181 0.940180 0.000000 
0.637964 0.906171 0.000000 
0.742157 0.566591 0.000000 
0.896726 0.886432 0.000000 
0.572594 0.700584 0.000000 
0.928429 0.673789 0.000000 
0.687143 0.935800 0.000000 
0.687769 0.581406 0.000000 
0.928665 0.839351 0.000000 
0.565857 0.757047 0.000000 
0.896942 0.625731 0.000000 
0.599209 0.864518 0.000000 
0.798854 0.570738 0.000000 
0.853399 0.923312 0.000000 
0.597661 0.648377 0.000000 
0.945263 0.728093 0.000000 
0.714475 0.942865 0.000000 
0.660192 0.590793 0.000000 
0.936713 0.811802 0.000000 
0.570269 0.784950 0.000000 
0.875398 0.607501 0.000000 
0.770828 0.948293 0.000000 
0.615595 0.887798 0.000000 
0.770520 0.564785 0.000000 
0.875849 0.905860 0.000000 
0.584740 0.674275 0.000000 
0.940627 0.700053 0.000000 
0.663007 0.920117 0.000000 
0.713972 0.570884 0.000000 
0.915731 0.865284 0.000000 
0.567984 0.728622 0.000000 
0.911894 0.650339 0.000000 
0.584896 0.839839 0.000000 
0.826981 0.577606 0.000000 
0.826629 0.934348 0.000000 
0.616710 0.627270 0.000000 
0.947438 0.756531 0.000000 
0.729807 0.936812 0.000000 
0.732415 0.919335 0.000000 
0.719547 0.909121 0.000000 
0.747705 0.913336 0.000000 
0.705651 0.915804 0.000000 
0.703194 0.932083 0.000000 
0.691083 0.907477 0.000000 
0.679349 0.920126 0.000000 
0.721038 0.892075 0.000000 
0.751248 0.896598 0.000000 
0.758963 0.923754 0.000000 
0.774930 0.919847 0.000000 
0.756557 0.940035 0.000000 
0.782463 0.935372 0.000000 
0.707028 0.881969 0.000000 
0.737452 0.885551 0.000000 
0.765965 0.892462 0.000000 
0.599198 0.848031 0.000000 
0.614481 0.839179 0.000000 
0.614428 0.822740 0.000000 
0.628705 0.847383 0.000000 
0.600479 0.815952 0.000000 
0.586220 0.824193 0.000000 
0.597612 0.798941 0.000000 
0.580396 0.797657 0.000000 
0.628679 0.813278 0.000000 
0.643997 0.839718 0.000000 
0.627338 0.863199 0.000000 
0.639086 0.875824 0.000000 
0.613125 0.871488 0.000000 
0.631657 0.891396 0.000000 
0.627839 0.796023 0.000000 
0.644023 0.822047 0.000000 
0.656608 0.851418 0.000000 
0.655868 0.905276 0.000000 
0.663540 0.886395 0.000000 
0.880656 0.890095 0.000000 
0.868613 0.877154 0.000000 
0.852609 0.880849 0.000000 
0.873444 0.861453 0.000000 
0.849312 0.896372 0.000000 
0.860507 0.908443 0.000000 
0.834396 0.905007 0.000000 
0.836970 0.922064 0.000000 
0.840213 0.869045 0.000000 
0.862564 0.848238 0.000000 
0.889162 0.859278 0.000000 
0.898846 0.845019 0.000000 
0.900402 0.871316 0.000000 
0.915671 0.848799 0.000000 
0.823581 0.873690 0.000000 
0.845339 0.852136 0.000000 
0.871160 0.833340 0.000000 
0.577433 0.770102 0.000000 
0.608202 0.769794 0.000000 
0.632780 0.623620 0.000000 
0.644819 0.636563 0.000000 
0.660818 0.632854 0.000000 
0.639983 0.652251 0.000000 
0.664316 0.617742 0.000000 
0.653113 0.605680 0.000000 
0.680238 0.611178 0.000000 
0.677655 0.594108 0.000000 
0.673203 0.644651 0.000000 
0.650839 0.665447 0.000000 
0.624263 0.654421 0.000000 
0.614573 0.668663 0.000000 
0.613018 0.642372 0.000000 
0.597743 0.664861 0.000000 
0.689824 0.639998 0.000000 
0.668061 0.661549 0.000000 
0.644993 0.681708 0.000000 
0.858966 0.606315 0.000000 
0.849035 0.620923 0.000000 
0.856191 0.635700 0.000000 
0.832665 0.619697 0.000000 
0.871606 0.635706 0.000000 
0.880876 0.622113 0.000000 
0.881113 0.649531 0.000000 
0.897167 0.643230 0.000000 
0.847451 0.650404 0.000000 
0.822205 0.633235 0.000000 
0.827048 0.604852 0.000000 
0.810997 0.598578 0.000000 
0.836268 0.591233 0.000000 
0.810940 0.581317 0.000000 
0.855676 0.665581 0.000000 
0.829835 0.649163 0.000000 
0.805064 0.631159 0.000000 
0.938112 0.742944 0.000000 
0.920498 0.744300 0.000000 
0.913409 0.759122 0.000000 
0.911242 0.730738 0.000000 
0.923020 0.771178 0.000000 
0.939434 0.769939 0.000000 
0.918141 0.787237 0.000000 
0.933086 0.795858 0.000000 
0.896456 0.761464 0.000000 
0.894130 0.731005 0.000000 
0.919344 0.717089 0.000000 
0.914237 0.700628 0.000000 
0.935754 0.715803 0.000000 
0.927699 0.689825 0.000000 
0.889723 0.777369 0.000000 
0.886438 0.746910 0.000000 
0.887847 0.714995 0.000000 
0.911893 0.666814 0.000000 
0.896780 0.680485 0.000000 
0.703838 0.585083 0.000000 
0.712416 0.616151 0.000000 
0.783398 0.575069 0.000000 
0.775920 0.590622 0.000000 
0.575161 0.743446 0.000000 
0.591345 0.745870 0.000000 
0.600580 0.732293 0.000000 
0.593613 0.762562 0.000000 
0.593896 0.717553 0.000000 
0.577484 0.716306 0.000000 
0.598973 0.701097 0.000000 
0.585495 0.690321 0.000000 
0.617684 0.732515 0.000000 
0.628794 0.715382 0.000000 
0.623038 0.753325 0.000000 
0.729314 0.576909 0.000000 
0.731982 0.594382 0.000000 
0.747279 0.600339 0.000000 
0.716216 0.600322 0.000000 
0.758736 0.589364 0.000000 
0.756280 0.573085 0.000000 
0.782222 0.607435 0.000000 
0.749309 0.618785 0.000000 
0.767074 0.624625 0.000000 
0.730217 0.628659 0.000000 
0.923821 0.822082 0.000000 
0.903708 0.818804 0.000000 
0.809353 0.928067 0.000000 
0.806350 0.904918 0.000000 
0.690970 0.890687 0.000000 
0.821063 0.894131 0.000000 
0.873926 0.664701 0.000000 
0.610733 0.788476 0.000000 
0.693361 0.621639 0.000000 
0.901794 0.791093 0.000000 
0.769373 0.875493 0.000000 
0.860020 0.820088 0.000000 
0.794627 0.644967 0.000000 
0.671994 0.843505 0.000000 
0.656113 0.694950 0.000000 
0.870544 0.715442 0.000000 
0.708715 0.864748 0.000000 
0.811169 0.861620 0.000000 
0.846680 0.680362 0.000000 
0.642365 0.786618 0.000000 
0.702220 0.652055 0.000000 
0.872556 0.779550 0.000000 
0.778384 0.905293 0.000000 
0.891721 0.832296 0.000000 
0.799472 0.611345 0.000000 
0.653059 0.871701 0.000000 
0.624436 0.682751 0.000000 
0.899849 0.698267 0.000000 
0.757991 0.862623 0.000000 
0.673159 0.691902 0.000000 
0.850695 0.697711 0.000000 
0.836555 0.710520 0.000000 
0.836600 0.726851 0.000000 
0.822416 0.702356 0.000000 
0.855018 0.730956 0.000000 
0.822426 0.736393 0.000000 
0.807084 0.709906 0.000000 
0.828025 0.684345 0.000000 
0.823352 0.753638 0.000000 
0.807049 0.727615 0.000000 
0.792593 0.700531 0.000000 
0.839173 0.765596 0.000000 
0.808888 0.763134 0.000000 
0.777161 0.708361 0.000000 
0.790103 0.680863 0.000000 
0.740786 0.868546 0.000000 
0.762338 0.845979 0.000000 
0.679260 0.674757 0.000000 
0.793427 0.755331 0.000000 
0.747611 0.836085 0.000000 
0.780267 0.845427 0.000000 
0.793358 0.861670 0.000000 
0.778935 0.764820 0.000000 
0.792515 0.737055 0.000000 
0.728539 0.842037 0.000000 
0.779908 0.782117 0.000000 
0.763473 0.757015 0.000000 
0.795375 0.789923 0.000000 
0.765413 0.791608 0.000000 
0.748976 0.766506 0.000000 
0.762565 0.737650 0.000000 
0.809863 0.780431 0.000000 
0.766481 0.810063 0.000000 
0.749945 0.783802 0.000000 
0.735449 0.793293 0.000000 
0.734031 0.810428 0.000000 
0.749594 0.819392 0.000000 
0.713502 0.821127 0.000000 
0.719986 0.785490 0.000000 
0.701504 0.794971 0.000000 
0.719020 0.768196 0.000000 
0.696440 0.813470 0.000000 
0.675916 0.823121 0.000000 
0.680160 0.786446 0.000000 
0.703557 0.760392 0.000000 
0.733512 0.758701 0.000000 
0.683177 0.769165 0.000000 
0.702592 0.743094 0.000000 
0.732546 0.741407 0.000000 
0.685659 0.728854 0.000000 
0.717089 0.733603 0.000000 
0.716131 0.716308 0.000000 
0.702337 0.704552 0.000000 
0.706662 0.683997 0.000000 
0.730619 0.706813 0.000000 
0.724960 0.686818 0.000000 
0.746136 0.712547 0.000000 
0.761640 0.701534 0.000000 
0.801340 0.666199 0.000000 
0.697562 0.850863 0.000000 
0.709987 0.836034 0.000000 
0.723560 0.646201 0.000000 
0.840210 0.821765 0.000000 
0.834120 0.838916 0.000000 
0.826700 0.809337 0.000000 
0.809122 0.814859 0.000000 
0.805094 0.832125 0.000000 
0.786586 0.833747 0.000000 
0.780627 0.817043 0.000000 
0.795028 0.806393 0.000000 
0.640095 0.762599 0.000000 
0.861499 0.793513 0.000000 
0.841941 0.786046 0.000000 
0.747104 0.729845 0.000000 
0.786812 0.875093 0.000000 
0.792633 0.895436 0.000000 
0.647586 0.712680 0.000000 
0.686364 0.707611 0.000000 
0.777118 0.727180 0.000000 
0.773887 0.642341 0.000000 
0.726059 0.857850 0.000000 
0.696795 0.669913 0.000000 
0.870571 0.806199 0.000000 
0.893698 0.805961 0.000000 
0.866266 0.698528 0.000000 
0.880500 0.680299 0.000000 
0.659732 0.795187 0.000000 
0.683185 0.856884 0.000000 
0.678280 0.879490 0.000000 
0.816587 0.843754 0.000000 
0.857482 0.763147 0.000000 
0.827095 0.791381 0.000000 
0.819408 0.668323 0.000000 
0.660554 0.813364 0.000000 
0.864629 0.746412 0.000000 
0.772638 0.673329 0.000000 
0.759609 0.686171 0.000000 
0.763133 0.656039 0.000000 
0.738447 0.677188 0.000000 
0.616767 0.698699 0.000000 
0.739943 0.657819 0.000000 
0.670750 0.745998 0.000000 
0.653525 0.739086 0.000000 
VECTORS X_EC float 
0.330198 -0.412676 0.000000 
-0.882987 -0.517254 0.000000 
-0.422980 -0.333864 0.000000 
0.992545 0.200412 0.000000 
-0.557123 -0.229995 0.000000 
0.468911 0.697098 0.000000 
-0.850247 -0.507427 0.000000 
-0.058532 -0.424007 0.000000 
-0.453628 0.665478 0.000000 
-0.740042 0.183136 0.000000 
-0.202967 -0.697742 0.000000 
0.556300 0.476751 0.000000 
-0.354542 0.487832 0.000000 
0.485365 -0.694784 0.000000 
0.129942 0.051003 0.000000 
0.758594 0.672598 0.000000 
-0.017610 0.717980 0.000000 
-0.142972 0.710782 0.000000 
0.807769 -0.198843 0.000000 
0.305260 0.684348 0.000000 
0.710137 -0.360559 0.000000 
0.414562 -0.976741 0.000000 
-0.542226 -0.064059 0.000000 
-0.963136 -0.532899 0.000000 
-0.427806 0.140189 0.000000 
-0.877105 0.241364 0.000000 
0.306543 0.149963 0.000000 
-0.482616 -0.954747 0.000000 
-0.023196 0.143819 0.000000 
-0.842010 0.248510 0.000000 
-0.213600 0.425629 0.000000 
-0.728559 -0.453851 0.000000 
0.870316 -0.005990 0.000000 
-0.144304 -0.987790 0.000000 
-0.032053 -0.953633 0.000000 
0.698723 0.092089 0.000000 
0.266259 0.971637 0.000000 
0.475447 0.432079 0.000000 
-0.280511 -0.726270 0.000000 
0.586100 -0.733793 0.000000 
0.728390 -0.934967 0.000000 
0.141351 -0.317149 0.000000 
0.535897 -0.670274 0.000000 
0.885511 -0.618032 0.000000 
-0.910238 -0.875277 0.000000 
-0.994466 -0.312279 0.000000 
0.956206 0.846729 0.000000 
0.630539 0.797570 0.000000 
-0.877045 0.555354 0.000000 
0.870025 0.320762 0.000000 
-0.569273 -0.845396 0.000000 
-0.659748 -0.241237 0.000000 
0.797146 -0.087216 0.000000 
0.875409 0.232123 0.000000 
0.471421 -0.135338 0.000000 
0.564899 0.382652 0.000000 
-0.367052 0.874417 0.000000 
-0.438858 -0.517136 0.000000 
-0.576977 0.053151 0.000000 
0.311879 0.718067 0.000000 
0.488913 -0.976182 0.000000 
0.817356 -0.977104 0.000000 
0.324810 -0.691742 0.000000 
0.952822 0.743917 0.000000 
0.788033 0.458889 0.000000 
-0.707191 0.686682 0.000000 
-0.681657 0.342644 0.000000 
-0.993476 -0.692087 0.000000 
0.478038 -0.385920 0.000000 
0.008683 -0.719295 0.000000 
-0.243609 -0.484581 0.000000 
-0.156817 0.996352 0.000000 
-0.554905 -0.633314 0.000000 
-0.648403 -0.708954 0.000000 
0.831308 -0.385339 0.000000 
0.244160 -0.133891 0.000000 
-0.832787 -0.149046 0.000000 
-0.455127 0.004443 0.000000 
-0.526714 0.344239 0.000000 
-0.268128 0.103369 0.000000 
-0.342669 -0.216396 0.000000 
0.045630 0.200032 0.000000 
-0.653282 -0.281885 0.000000 
-0.894387 -0.058033 0.000000 
-0.826541 -0.579603 0.000000 
0.832061 -0.527554 0.000000 
-0.106939 -0.464016 0.000000 
0.309461 -0.017024 0.000000 
0.089115 0.514392 0.000000 
0.373963 0.708344 0.000000 
-0.151630 0.739231 0.000000 
0.297607 -0.955017 0.000000 