# vtk DataFile Version 3.0 
vtk output 
ASCII 
DATASET UNSTRUCTURED_GRID 
POINTS 616 float 
0.234263 0.438450 0.000000 
0.129157 0.099166 0.000000 
0.438307 0.276184 0.000000 
0.064925 0.305293 0.000000 
0.343477 0.082839 0.000000 
0.289787 0.431579 0.000000 
0.129508 0.397455 0.000000 
0.233792 0.057952 0.000000 
0.388274 0.377721 0.000000 
0.064179 0.191917 0.000000 
0.420060 0.165172 0.000000 
0.178712 0.427102 0.000000 
0.179402 0.072766 0.000000 
0.420282 0.330757 0.000000 
0.057518 0.248404 0.000000 
0.388602 0.117091 0.000000 
0.090783 0.355830 0.000000 
0.290516 0.062125 0.000000 
0.344996 0.414654 0.000000 
0.089239 0.139718 0.000000 
0.436928 0.219503 0.000000 
0.206049 0.434203 0.000000 
0.151812 0.082137 0.000000 
0.428376 0.303214 0.000000 
0.061945 0.276303 0.000000 
0.367042 0.098864 0.000000 
0.262409 0.439666 0.000000 
0.107138 0.379074 0.000000 
0.262174 0.056160 0.000000 
0.367415 0.397129 0.000000 
0.076305 0.165630 0.000000 
0.432248 0.191439 0.000000 
0.154578 0.411416 0.000000 
0.205613 0.062265 0.000000 
0.407330 0.356638 0.000000 
0.059605 0.219965 0.000000 
0.403554 0.141706 0.000000 
0.076500 0.331170 0.000000 
0.318661 0.068995 0.000000 
0.318239 0.425738 0.000000 
0.108269 0.118591 0.000000 
0.439120 0.247955 0.000000 
0.221386 0.428158 0.000000 
0.224016 0.410693 0.000000 
0.211155 0.400475 0.000000 
0.239318 0.404707 0.000000 
0.197244 0.407143 0.000000 
0.194768 0.423406 0.000000 
0.182673 0.398805 0.000000 
0.170926 0.411437 0.000000 
0.212654 0.383432 0.000000 
0.242876 0.387973 0.000000 
0.250567 0.415130 0.000000 
0.266546 0.411231 0.000000 
0.248144 0.431408 0.000000 
0.274061 0.426762 0.000000 
0.198641 0.373316 0.000000 
0.229077 0.376922 0.000000 
0.257604 0.383844 0.000000 
0.090793 0.339356 0.000000 
0.106084 0.330511 0.000000 
0.106045 0.314094 0.000000 
0.120309 0.338717 0.000000 
0.092097 0.307310 0.000000 
0.077845 0.315536 0.000000 
0.089250 0.290311 0.000000 
0.072051 0.289011 0.000000 
0.120305 0.304641 0.000000 
0.135609 0.331061 0.000000 
0.118925 0.354518 0.000000 
0.130662 0.367132 0.000000 
0.104698 0.362788 0.000000 
0.123216 0.382690 0.000000 
0.119476 0.287395 0.000000 
0.135645 0.313402 0.000000 
0.148212 0.342754 0.000000 
0.147436 0.396585 0.000000 
0.155121 0.377709 0.000000 
0.372206 0.381370 0.000000 
0.360161 0.368441 0.000000 
0.344166 0.372162 0.000000 
0.364999 0.352759 0.000000 
0.340888 0.387691 0.000000 
0.352082 0.399746 0.000000 
0.325995 0.396351 0.000000 
0.328571 0.413433 0.000000 
0.331783 0.360373 0.000000 
0.354144 0.339565 0.000000 
0.380723 0.350593 0.000000 
0.390427 0.336362 0.000000 
0.391966 0.362629 0.000000 
0.407263 0.340170 0.000000 
0.315175 0.365040 0.000000 
0.336925 0.343469 0.000000 
0.362762 0.324670 0.000000 
0.069089 0.261461 0.000000 
0.099839 0.261169 0.000000 
0.124344 0.114931 0.000000 
0.136385 0.127871 0.000000 
0.152394 0.124178 0.000000 
0.131545 0.143569 0.000000 
0.155903 0.109076 0.000000 
0.144708 0.096998 0.000000 
0.171845 0.102518 0.000000 
0.169268 0.085463 0.000000 
0.164791 0.135982 0.000000 
0.142427 0.156783 0.000000 
0.115822 0.145739 0.000000 
0.106128 0.159996 0.000000 
0.104584 0.133703 0.000000 
0.089295 0.156200 0.000000 
0.181429 0.131340 0.000000 
0.159658 0.152887 0.000000 
0.136586 0.173040 0.000000 
0.350612 0.097689 0.000000 
0.340684 0.112297 0.000000 
0.347847 0.127077 0.000000 
0.324309 0.111071 0.000000 
0.363264 0.127080 0.000000 
0.372532 0.113484 0.000000 
0.372775 0.140903 0.000000 
0.388830 0.134593 0.000000 
0.339107 0.141781 0.000000 
0.313851 0.124611 0.000000 
0.318691 0.096227 0.000000 
0.302640 0.089946 0.000000 
0.327927 0.082606 0.000000 
0.302595 0.072695 0.000000 
0.347340 0.156959 0.000000 
0.321487 0.140543 0.000000 
0.296709 0.122538 0.000000 
0.429786 0.234357 0.000000 
0.412174 0.235700 0.000000 
0.405096 0.250519 0.000000 
0.402912 0.222125 0.000000 
0.414707 0.262582 0.000000 
0.431118 0.261356 0.000000 
0.409826 0.278641 0.000000 
0.424756 0.287274 0.000000 
0.388149 0.252844 0.000000 
0.385806 0.222383 0.000000 
0.411002 0.208473 0.000000 
0.405888 0.192000 0.000000 
0.427405 0.207194 0.000000 
0.419336 0.181205 0.000000 
0.381414 0.268745 0.000000 
0.378121 0.238285 0.000000 
0.379513 0.206369 0.000000 
0.403553 0.158178 0.000000 
0.388439 0.171850 0.000000 
0.195471 0.076445 0.000000 
0.204048 0.107505 0.000000 
0.275050 0.066442 0.000000 
0.267563 0.081988 0.000000 
0.066800 0.234795 0.000000 
0.082980 0.237229 0.000000 
0.092201 0.223648 0.000000 
0.085254 0.253927 0.000000 
0.085505 0.208897 0.000000 
0.069089 0.207648 0.000000 
0.090565 0.192430 0.000000 
0.077074 0.181658 0.000000 
0.109312 0.223872 0.000000 
0.120415 0.206728 0.000000 
0.114679 0.244691 0.000000 
0.220949 0.068273 0.000000 
0.223613 0.085736 0.000000 
0.238912 0.091696 0.000000 
0.207845 0.091676 0.000000 
0.250378 0.080730 0.000000 
0.247924 0.064454 0.000000 
0.273868 0.098803 0.000000 
0.240949 0.110147 0.000000 
0.258714 0.115994 0.000000 
0.221850 0.120020 0.000000 
0.415469 0.313480 0.000000 
0.395351 0.310185 0.000000 
0.300962 0.419466 0.000000 
0.297981 0.396294 0.000000 
0.182564 0.382011 0.000000 
0.312672 0.385486 0.000000 
0.365592 0.156073 0.000000 
0.102368 0.279852 0.000000 
0.184975 0.112981 0.000000 
0.393482 0.282477 0.000000 
0.261012 0.366879 0.000000 
0.351644 0.311430 0.000000 
0.286274 0.136349 0.000000 
0.163607 0.334846 0.000000 
0.147729 0.186292 0.000000 
0.362215 0.206820 0.000000 
0.200334 0.356099 0.000000 
0.302779 0.352983 0.000000 
0.338338 0.171741 0.000000 
0.134006 0.277985 0.000000 
0.193839 0.143406 0.000000 
0.364240 0.270914 0.000000 
0.270020 0.396676 0.000000 
0.383330 0.323645 0.000000 
0.291116 0.102718 0.000000 
0.144650 0.363024 0.000000 
0.116015 0.174081 0.000000 
0.391508 0.189637 0.000000 
0.249631 0.354004 0.000000 
0.164785 0.183254 0.000000 
0.342360 0.189093 0.000000 
0.328224 0.201906 0.000000 
0.328270 0.218230 0.000000 
0.314080 0.193747 0.000000 
0.346690 0.222326 0.000000 
0.314090 0.227771 0.000000 
0.298752 0.201302 0.000000 
0.319686 0.175731 0.000000 
0.315013 0.245008 0.000000 
0.298713 0.219001 0.000000 
0.284252 0.191929 0.000000 
0.330842 0.256960 0.000000 
0.300539 0.254503 0.000000 
0.268817 0.199757 0.000000 
0.281753 0.172255 0.000000 
0.232418 0.359918 0.000000 
0.253977 0.337357 0.000000 
0.170882 0.166107 0.000000 
0.285073 0.246706 0.000000 
0.239251 0.327460 0.000000 
0.271900 0.336806 0.000000 
0.284985 0.353048 0.000000 
0.270579 0.256195 0.000000 
0.284169 0.228441 0.000000 
0.220172 0.333399 0.000000 
0.271547 0.273486 0.000000 
0.255111 0.248386 0.000000 
0.287010 0.281287 0.000000 
0.257052 0.282975 0.000000 
0.240618 0.257874 0.000000 
0.254211 0.229029 0.000000 
0.301508 0.271793 0.000000 
0.258113 0.301430 0.000000 
0.241585 0.275167 0.000000 
0.227091 0.284656 0.000000 
0.225667 0.301790 0.000000 
0.241231 0.310761 0.000000 
0.205135 0.312481 0.000000 
0.211628 0.276847 0.000000 
0.193150 0.286321 0.000000 
0.210662 0.259555 0.000000 
0.188076 0.304817 0.000000 
0.167541 0.314468 0.000000 
0.171801 0.277799 0.000000 
0.195205 0.251748 0.000000 
0.225156 0.250066 0.000000 
0.174821 0.260519 0.000000 
0.194240 0.234455 0.000000 
0.224193 0.232777 0.000000 
0.177304 0.220215 0.000000 
0.208734 0.224971 0.000000 
0.207770 0.207679 0.000000 
0.193975 0.195921 0.000000 
0.198299 0.175363 0.000000 
0.222263 0.198193 0.000000 
0.216603 0.178194 0.000000 
0.237786 0.203931 0.000000 
0.253290 0.192926 0.000000 
0.292995 0.157588 0.000000 
0.189184 0.342208 0.000000 
0.201620 0.327390 0.000000 
0.215191 0.137565 0.000000 
0.331833 0.313110 0.000000 
0.325728 0.330260 0.000000 
0.318330 0.300689 0.000000 
0.300743 0.306214 0.000000 
0.296714 0.323489 0.000000 
0.278216 0.325121 0.000000 
0.272257 0.308412 0.000000 
0.286653 0.297755 0.000000 
0.131741 0.253966 0.000000 
0.353165 0.284869 0.000000 
0.333601 0.277400 0.000000 
0.238751 0.221222 0.000000 
0.278447 0.366478 0.000000 
0.284268 0.386819 0.000000 
0.139214 0.204028 0.000000 
0.178004 0.198975 0.000000 
0.268771 0.218567 0.000000 
0.265530 0.133720 0.000000 
0.217690 0.349215 0.000000 
0.188419 0.161268 0.000000 
0.362225 0.297549 0.000000 
0.385366 0.297334 0.000000 
0.357930 0.189905 0.000000 
0.372159 0.171669 0.000000 
0.151372 0.286545 0.000000 
0.174796 0.348221 0.000000 
0.169873 0.370808 0.000000 
0.308196 0.335110 0.000000 
0.349160 0.254510 0.000000 
0.318744 0.282737 0.000000 
0.311063 0.159708 0.000000 
0.152182 0.304716 0.000000 
0.356305 0.237778 0.000000 
0.264284 0.164711 0.000000 
0.251254 0.177556 0.000000 
0.254780 0.147421 0.000000 
0.230091 0.168566 0.000000 
0.108361 0.190033 0.000000 
0.231580 0.149190 0.000000 
0.162397 0.237353 0.000000 
0.145173 0.230447 0.000000 
0.737672 0.942047 0.000000 
0.632573 0.602873 0.000000 
0.941686 0.779852 0.000000 
0.568350 0.808958 0.000000 
0.846917 0.586547 0.000000 
0.793172 0.935129 0.000000 
0.632925 0.901129 0.000000 
0.737233 0.561575 0.000000 
0.891738 0.881404 0.000000 
0.567567 0.695550 0.000000 
0.923507 0.668864 0.000000 
0.682123 0.930767 0.000000 
0.682812 0.576353 0.000000 
0.923709 0.834381 0.000000 
0.560884 0.752036 0.000000 
0.892055 0.620806 0.000000 
0.594191 0.859484 0.000000 
0.793942 0.565790 0.000000 
0.848400 0.918279 0.000000 
0.592650 0.643390 0.000000 
0.940316 0.723180 0.000000 
0.709461 0.937825 0.000000 
0.655224 0.585764 0.000000 
0.931760 0.806857 0.000000 
0.565321 0.779952 0.000000 
0.870507 0.602573 0.000000 
0.765818 0.943242 0.000000 
0.610561 0.882753 0.000000 
0.765606 0.559805 0.000000 
0.870852 0.900828 0.000000 
0.579710 0.669272 0.000000 
0.935686 0.695141 0.000000 
0.657978 0.915085 0.000000 
0.709034 0.565835 0.000000 
0.910764 0.860283 0.000000 
0.562982 0.723600 0.000000 
0.906992 0.645411 0.000000 
0.579916 0.834813 0.000000 
0.822078 0.572677 0.000000 
0.821625 0.929306 0.000000 
0.611714 0.622286 0.000000 
0.942489 0.751616 0.000000 
0.724795 0.931773 0.000000 
0.727403 0.914304 0.000000 
0.714535 0.904097 0.000000 
[...]
POINT_DATA 616 
VECTORS X_GC float 
0.234263 0.438450 0.000000 
0.129157 0.099166 0.000000 
0.438307 0.276184 0.000000 
0.064925 0.305293 0.000000 
0.343477 0.082839 0.000000 
0.289787 0.431579 0.000000 
0.129508 0.397455 0.000000 
0.233792 0.057952 0.000000 
0.388274 0.377721 0.000000 
0.064179 0.191917 0.000000 
0.420060 0.165172 0.000000 
0.178712 0.427102 0.000000 
0.179402 0.072766 0.000000 
0.420282 0.330757 0.000000 
0.057518 0.248404 0.000000 
0.388602 0.117091 0.000000 
0.090783 0.355830 0.000000 
0.290516 0.062125 0.000000 
0.344996 0.414654 0.000000 
0.089239 0.139718 0.000000 
0.436928 0.219503 0.000000 
0.206049 0.434203 0.000000 
0.151812 0.082137 0.000000 
0.428376 0.303214 0.000000 
0.061945 0.276303 0.000000 
0.367042 0.098864 0.000000 
0.262409 0.439666 0.000000 
0.107138 0.379074 0.000000 
0.262174 0.056160 0.000000 
0.367415 0.397129 0.000000 
0.076305 0.165630 0.000000 
0.432248 0.191439 0.000000 
0.154578 0.411416 0.000000 
0.205613 0.062265 0.000000 
0.407330 0.356638 0.000000 
0.059605 0.219965 0.000000 
0.403554 0.141706 0.000000 
0.076500 0.331170 0.000000 
0.318661 0.068995 0.000000 
0.318239 0.425738 0.000000 
0.108269 0.118591 0.000000 
0.439120 0.247955 0.000000 
0.221386 0.428158 0.000000 
0.224016 0.410693 0.000000 
0.211155 0.400475 0.000000 
0.239318 0.404707 0.000000 
0.197244 0.407143 0.000000 
0.194768 0.423406 0.000000 
0.182673 0.398805 0.000000 
0.170926 0.411437 0.000000 
0.212654 0.383432 0.000000 
0.242876 0.387973 0.000000 
0.250567 0.415130 0.000000 
0.266546 0.411231 0.000000 
0.248144 0.431408 0.000000 
0.274061 0.426762 0.000000 
0.198641 0.373316 0.000000 
0.229077 0.376922 0.000000 
0.257604 0.383844 0.000000 
0.090793 0.339356 0.000000 
0.106084 0.330511 0.000000 
0.106045 0.314094 0.000000 
0.120309 0.338717 0.000000 
0.092097 0.307310 0.000000 
0.077845 0.315536 0.000000 
0.089250 0.290311 0.000000 
0.072051 0.289011 0.000000 
0.120305 0.304641 0.000000 
0.135609 0.331061 0.000000 
0.118925 0.354518 0.000000 
0.130662 0.367132 0.000000 
0.104698 0.362788 0.000000 
0.123216 0.382690 0.000000 
0.119476 0.287395 0.000000 
0.135645 0.313402 0.000000 
0.148212 0.342754 0.000000 
0.147436 0.396585 0.000000 
0.155121 0.377709 0.000000 
0.372206 0.381370 0.000000 
0.360161 0.368441 0.000000 
0.344166 0.372162 0.000000 
0.364999 0.352759 0.000000 
0.340888 0.387691 0.000000 
0.352082 0.399746 0.000000 
0.325995 0.396351 0.000000 
0.328571 0.413433 0.000000 
0.331783 0.360373 0.000000 
0.354144 0.339565 0.000000 
0.380723 0.350593 0.000000 
0.390427 0.336362 0.000000 
0.391966 0.362629 0.000000 
0.407263 0.340170 0.000000 
0.315175 0.365040 0.000000 
0.336925 0.343469 0.000000 
0.362762 0.324670 0.000000 
0.069089 0.261461 0.000000 
0.099839 0.261169 0.000000 
0.124344 0.114931 0.000000 
0.136385 0.127871 0.000000 
0.152394 0.124178 0.000000 
0.131545 0.143569 0.000000 
0.155903 0.109076 0.000000 
0.144708 0.096998 0.000000 
0.171845 0.102518 0.000000 
0.169268 0.085463 0.000000 
0.164791 0.135982 0.000000 
0.142427 0.156783 0.000000 
0.115822 0.145739 0.000000 
0.106128 0.159996 0.000000 
0.104584 0.133703 0.000000 
0.089295 0.156200 0.000000 
0.181429 0.131340 0.000000 
0.159658 0.152887 0.000000 
0.136586 0.173040 0.000000 
0.350612 0.097689 0.000000 
0.340684 0.112297 0.000000 
0.347847 0.127077 0.000000 
0.324309 0.111071 0.000000 
0.363264 0.127080 0.000000 
0.372532 0.113484 0.000000 
0.372775 0.140903 0.000000 
0.388830 0.134593 0.000000 
0.339107 0.141781 0.000000 
0.313851 0.124611 0.000000 
0.318691 0.096227 0.000000 
0.302640 0.089946 0.000000 
0.327927 0.082606 0.000000 
0.302595 0.072695 0.000000 
0.347340 0.156959 0.000000 
0.321487 0.140543 0.000000 
0.296709 0.122538 0.000000 
0.429786 0.234357 0.000000 
0.412174 0.235700 0.000000 
0.405096 0.250519 0.000000 
0.402912 0.222125 0.000000 
0.414707 0.262582 0.000000 
0.431118 0.261356 0.000000 
0.409826 0.278641 0.000000 
0.424756 0.287274 0.000000 
0.388149 0.252844 0.000000 
0.385806 0.222383 0.000000 
0.411002 0.208473 0.000000 
0.405888 0.192000 0.000000 
0.427405 0.207194 0.000000 
0.419336 0.181205 0.000000 
0.381414 0.268745 0.000000 
0.378121 0.238285 0.000000 
0.379513 0.206369 0.000000 
0.403553 0.158178 0.000000 
0.388439 0.171850 0.000000 
0.195471 0.076445 0.000000 
0.204048 0.107505 0.000000 
0.275050 0.066442 0.000000 
0.267563 0.081988 0.000000 
0.066800 0.234795 0.000000 
0.082980 0.237229 0.000000 
0.092201 0.223648 0.000000 
0.085254 0.253927 0.000000 
0.085505 0.208897 0.000000 
0.069089 0.207648 0.000000 
0.090565 0.192430 0.000000 
0.077074 0.181658 0.000000 
0.109312 0.223872 0.000000 
0.120415 0.206728 0.000000 
0.114679 0.244691 0.000000 
0.220949 0.068273 0.000000 
0.223613 0.085736 0.000000 
0.238912 0.091696 0.000000 
0.207845 0.091676 0.000000 
0.250378 0.080730 0.000000 
0.247924 0.064454 0.000000 
0.273868 0.098803 0.000000 
0.240949 0.110147 0.000000 
0.258714 0.115994 0.000000 
0.221850 0.120020 0.000000 
0.415469 0.313480 0.000000 
0.395351 0.310185 0.000000 
0.300962 0.419466 0.000000 
0.297981 0.396294 0.000000 
0.182564 0.382011 0.000000 
0.312672 0.385486 0.000000 
0.365592 0.156073 0.000000 
0.102368 0.279852 0.000000 
0.184975 0.112981 0.000000 
0.393482 0.282477 0.000000 
0.261012 0.366879 0.000000 
0.351644 0.311430 0.000000 
0.286274 0.136349 0.000000 
0.163607 0.334846 0.000000 
0.147729 0.186292 0.000000 
0.362215 0.206820 0.000000 
0.200334 0.356099 0.000000 
0.302779 0.352983 0.000000 
0.338338 0.171741 0.000000 
0.134006 0.277985 0.000000 
0.193839 0.143406 0.000000 
0.364240 0.270914 0.000000 
0.270020 0.396676 0.000000 
0.383330 0.323645 0.000000 
0.291116 0.102718 0.000000 
0.144650 0.363024 0.000000 
0.116015 0.174081 0.000000 
0.391508 0.189637 0.000000 
0.249631 0.354004 0.000000 
0.164785 0.183254 0.000000 
0.342360 0.189093 0.000000 
0.328224 0.201906 0.000000 
0.328270 0.218230 0.000000 
0.314080 0.193747 0.000000 
0.346690 0.222326 0.000000 
0.314090 0.227771 0.000000 
0.298752 0.201302 0.000000 
0.319686 0.175731 0.000000 
0.315013 0.245008 0.000000 
0.298713 0.219001 0.000000 
0.284252 0.191929 0.000000 
0.330842 0.256960 0.000000 
0.300539 0.254503 0.000000 
0.268817 0.199757 0.000000 
0.281753 0.172255 0.000000 
0.232418 0.359918 0.000000 
0.253977 0.337357 0.000000 
0.170882 0.166107 0.000000 
0.285073 0.246706 0.000000 
0.239251 0.327460 0.000000 
0.271900 0.336806 0.000000 
0.284985 0.353048 0.000000 
0.270579 0.256195 0.000000 
0.284169 0.228441 0.000000 
0.220172 0.333399 0.000000 
0.271547 0.273486 0.000000 
0.255111 0.248386 0.000000 
0.287010 0.281287 0.000000 
0.257052 0.282975 0.000000 
0.240618 0.257874 0.000000 
0.254211 0.229029 0.000000 
0.301508 0.271793 0.000000 
0.258113 0.301430 0.000000 
0.241585 0.275167 0.000000 
0.227091 0.284656 0.000000 
0.225667 0.301790 0.000000 
0.241231 0.310761 0.000000 
0.205135 0.312481 0.000000 
0.211628 0.276847 0.000000 
0.193150 0.286321 0.000000 
0.210662 0.259555 0.000000 
0.188076 0.304817 0.000000 
0.167541 0.314468 0.000000 
0.171801 0.277799 0.000000 
0.195205 0.251748 0.000000 
0.225156 0.250066 0.000000 
0.174821 0.260519 0.000000 
0.194240 0.234455 0.000000 
0.224193 0.232777 0.000000 
0.177304 0.220215 0.000000 
0.208734 0.224971 0.000000 
0.207770 0.207679 0.000000 
0.193975 0.195921 0.000000 
0.198299 0.175363 0.000000 
0.222263 0.198193 0.000000 
0.216603 0.178194 0.000000 
0.237786 0.203931 0.000000 
0.253290 0.192926 0.000000 
0.292995 0.157588 0.000000 
0.189184 0.342208 0.000000 
0.201620 0.327390 0.000000 
0.215191 0.137565 0.000000 
0.331833 0.313110 0.000000 
0.325728 0.330260 0.000000 
0.318330 0.300689 0.000000 
0.300743 0.306214 0.000000 
0.296714 0.323489 0.000000 
0.278216 0.325121 0.000000 
0.272257 0.308412 0.000000 
0.286653 0.297755 0.000000 
0.131741 0.253966 0.000000 
0.353165 0.284869 0.000000 
0.333601 0.277400 0.000000 
0.238751 0.221222 0.000000 
0.278447 0.366478 0.000000 
0.284268 0.386819 0.000000 
0.139214 0.204028 0.000000 
0.178004 0.198975 0.000000 
0.268771 0.218567 0.000000 
0.265530 0.133720 0.000000 
0.217690 0.349215 0.000000 
0.188419 0.161268 0.000000 
0.362225 0.297549 0.000000 
0.385366 0.297334 0.000000 
0.357930 0.189905 0.000000 
0.372159 0.171669 0.000000 
0.151372 0.286545 0.000000 
0.174796 0.348221 0.000000 
0.169873 0.370808 0.000000 
0.308196 0.335110 0.000000 
0.349160 0.254510 0.000000 
0.318744 0.282737 0.000000 
0.311063 0.159708 0.000000 
0.152182 0.304716 0.000000 
0.356305 0.237778 0.000000 
0.264284 0.164711 0.000000 
0.251254 0.177556 0.000000 
0.254780 0.147421 0.000000 
0.230091 0.168566 0.000000 
0.108361 0.190033 0.000000 
0.231580 0.149190 0.000000 
0.162397 0.237353 0.000000 
0.145173 0.230447 0.000000 
0.737672 0.942047 0.000000 
0.632573 0.602873 0.000000 
0.941686 0.779852 0.000000 
0.568350 0.808958 0.000000 
0.846917 0.586547 0.000000 
0.793172 0.935129 0.000000 
0.632925 0.901129 0.000000 
0.737233 0.561575 0.000000 
0.891738 0.881404 0.000000 
0.567567 0.695550 0.000000 
0.923507 0.668864 0.000000 
0.682123 0.930767 0.000000 
0.682812 0.576353 0.000000 
0.923709 0.834381 0.000000 
0.560884 0.752036 0.000000 
0.892055 0.620806 0.000000 
0.594191 0.859484 0.000000 
0.793942 0.565790 0.000000 
0.848400 0.918279 0.000000 
0.592650 0.643390 0.000000 
0.940316 0.723180 0.000000 
0.709461 0.937825 0.000000 
0.655224 0.585764 0.000000 
0.931760 0.806857 0.000000 
0.565321 0.779952 0.000000 
0.870507 0.602573 0.000000 
0.765818 0.943242 0.000000 
0.610561 0.882753 0.000000 
0.765606 0.559805 0.000000 
0.870852 0.900828 0.000000 
0.579710 0.669272 0.000000 
0.935686 0.695141 0.000000 
0.657978 0.915085 0.000000 
0.709034 0.565835 0.000000 
0.910764 0.860283 0.000000 
0.562982 0.723600 0.000000 
0.906992 0.645411 0.000000 
0.579916 0.834813 0.000000 
0.822078 0.572677 0.000000 
0.821625 0.929306 0.000000 
0.611714 0.622286 0.000000 
0.942489 0.751616 0.000000 
0.724795 0.931773 0.000000 
0.727403 0.914304 0.000000 
0.714535 0.904097 0.000000 
0.742694 0.908306 0.000000 
0.700639 0.910779 0.000000 
0.698181 0.927050 0.000000 
0.686068 0.902453 0.000000 
0.674327 0.915096 0.000000 
0.716029 0.887049 0.000000 
0.746236 0.891570 0.000000 
0.753952 0.918717 0.000000 
0.769919 0.914810 0.000000 
0.751545 0.934990 0.000000 
0.777453 0.930326 0.000000 
0.702025 0.876942 0.000000 
0.732445 0.880524 0.000000 
0.760954 0.887433 0.000000 
0.594198 0.843010 0.000000 
0.609492 0.834165 0.000000 
0.609455 0.817737 0.000000 
0.623710 0.842361 0.000000 
0.595510 0.810958 0.000000 
0.581255 0.819184 0.000000 
0.592657 0.793955 0.000000 
0.575452 0.792667 0.000000 
0.623714 0.808273 0.000000 
0.639010 0.834696 0.000000 
0.622329 0.858169 0.000000 
0.634069 0.870789 0.000000 
0.608105 0.866453 0.000000 
0.626626 0.886353 0.000000 
0.622880 0.791021 0.000000 
0.639051 0.817031 0.000000 
0.651614 0.846390 0.000000 
0.650837 0.900240 0.000000 
0.658524 0.881361 0.000000 
0.875663 0.885065 0.000000 
0.863620 0.872127 0.000000 
0.847611 0.875820 0.000000 
0.868457 0.856431 0.000000 
0.844310 0.891340 0.000000 
0.855507 0.903411 0.000000 
0.829390 0.899974 0.000000 
0.831967 0.917028 0.000000 
0.835214 0.864019 0.000000 
0.857576 0.843219 0.000000 
0.884180 0.854257 0.000000 
0.893872 0.840002 0.000000 
0.895420 0.866292 0.000000 
0.910707 0.843803 0.000000 
0.818576 0.868662 0.000000 
0.840344 0.847115 0.000000 
0.866179 0.828325 0.000000 
0.572468 0.765098 0.000000 
0.603227 0.764789 0.000000 
0.627784 0.618628 0.000000 
0.639823 0.631558 0.000000 
0.655823 0.627842 0.000000 
0.634984 0.647241 0.000000 
0.659321 0.612730 0.000000 
0.648120 0.600681 0.000000 
0.675243 0.606154 0.000000 
0.672675 0.589074 0.000000 
0.668207 0.639632 0.000000 
0.645840 0.660429 0.000000 
0.619262 0.649414 0.000000 
0.609568 0.663647 0.000000 
0.608019 0.637378 0.000000 
0.592729 0.659856 0.000000 
0.684830 0.634971 0.000000 
0.663065 0.656530 0.000000 
0.639991 0.676684 0.000000 
0.854065 0.601381 0.000000 
0.844123 0.615982 0.000000 
0.851278 0.630758 0.000000 
0.827745 0.614751 0.000000 
0.866701 0.630771 0.000000 
0.875982 0.617183 0.000000 
0.876207 0.644594 0.000000 
0.892270 0.638301 0.000000 
0.842531 0.645456 0.000000 
0.817277 0.628283 0.000000 
0.822126 0.599906 0.000000 
0.806069 0.593625 0.000000 
0.831362 0.586298 0.000000 
0.806024 0.576374 0.000000 
0.850754 0.660633 0.000000 
0.824908 0.644210 0.000000 
0.800128 0.626201 0.000000 
0.933165 0.738019 0.000000 
0.915555 0.739353 0.000000 
0.908464 0.754159 0.000000 
0.906305 0.725786 0.000000 
0.918071 0.766224 0.000000 
0.934484 0.765011 0.000000 
0.913189 0.782269 0.000000 
0.928133 0.790913 0.000000 
0.891509 0.756483 0.000000 
0.889192 0.726041 0.000000 
0.914408 0.712153 0.000000 
0.909307 0.695695 0.000000 
0.930812 0.710883 0.000000 
0.922768 0.684902 0.000000 
0.884768 0.772378 0.000000 
0.881493 0.741936 0.000000 
0.882913 0.710039 0.000000 
0.906982 0.661883 0.000000 
0.891863 0.675546 0.000000 
0.698872 0.580028 0.000000 
0.707427 0.611116 0.000000 
0.778476 0.570101 0.000000 
0.770979 0.585641 0.000000 
0.570172 0.738429 0.000000 
0.586356 0.740852 0.000000 
0.595580 0.727266 0.000000 
0.588635 0.757554 0.000000 
0.588885 0.712518 0.000000 
0.572471 0.711275 0.000000 
0.593955 0.696051 0.000000 
0.580470 0.685295 0.000000 
0.612688 0.727489 0.000000 
0.623790 0.710350 0.000000 
0.618055 0.748308 0.000000 
0.724371 0.571880 0.000000 
0.727014 0.589358 0.000000 
0.742311 0.595330 0.000000 
0.711230 0.595285 0.000000 
0.753789 0.584366 0.000000 
0.751352 0.568086 0.000000 
0.777274 0.602461 0.000000 
0.744341 0.613782 0.000000 
0.762117 0.619637 0.000000 
0.725239 0.623641 0.000000 
0.918864 0.817110 0.000000 
0.898746 0.813798 0.000000 
0.804344 0.923022 0.000000 
0.801339 0.899883 0.000000 
0.685961 0.885660 0.000000 
0.816055 0.889098 0.000000 
0.869011 0.659759 0.000000 
0.605771 0.783481 0.000000 
0.688366 0.616607 0.000000 
0.896840 0.786096 0.000000 
0.764366 0.870465 0.000000 
0.855037 0.815076 0.000000 
0.789685 0.639999 0.000000 
0.667007 0.838474 0.000000 
0.651113 0.689924 0.000000 
0.865607 0.710482 0.000000 
0.703720 0.859716 0.000000 
0.806162 0.856595 0.000000 
0.841751 0.675408 0.000000 
0.637400 0.781606 0.000000 
0.697227 0.647027 0.000000 
0.867594 0.774556 0.000000 
0.773372 0.900263 0.000000 
0.886749 0.827282 0.000000 
0.794533 0.606386 0.000000 
0.648050 0.866668 0.000000 
0.619430 0.677725 0.000000 
0.894923 0.693324 0.000000 
0.752988 0.857595 0.000000 
0.668163 0.686882 0.000000 
0.845762 0.692755 0.000000 
0.831615 0.705554 0.000000 
0.831652 0.721878 0.000000 
0.817478 0.697391 0.000000 
0.850071 0.725985 0.000000 
0.817469 0.731412 0.000000 
0.802140 0.704933 0.000000 
0.823091 0.679385 0.000000 
0.818384 0.748650 0.000000 
0.802093 0.722635 0.000000 
0.787648 0.695556 0.000000 
0.834204 0.760606 0.000000 
0.803909 0.758140 0.000000 
0.772206 0.703377 0.000000 
0.785158 0.675889 0.000000 
0.735784 0.863517 0.000000 
0.757338 0.840952 0.000000 
0.674266 0.669738 0.000000 
0.788452 0.750336 0.000000 
0.742617 0.831055 0.000000 
0.775263 0.840403 0.000000 
0.788349 0.856645 0.000000 
0.773955 0.759815 0.000000 
0.787550 0.732067 0.000000 
0.723549 0.837003 0.000000 
0.774920 0.777106 0.000000 
0.758496 0.752007 0.000000 
0.790379 0.784916 0.000000 
0.760426 0.786588 0.000000 
0.743997 0.761488 0.000000 
0.757594 0.732649 0.000000 
0.804874 0.775430 0.000000 
0.761488 0.805038 0.000000 
0.744964 0.778779 0.000000 
0.730471 0.788259 0.000000 
0.729050 0.805391 0.000000 
0.744605 0.814361 0.000000 
0.708524 0.816085 0.000000 
0.715012 0.780453 0.000000 
0.696539 0.789925 0.000000 
0.714044 0.763165 0.000000 
0.691472 0.808427 0.000000 
0.670943 0.818089 0.000000 
0.675193 0.781414 0.000000 
0.698581 0.755358 0.000000 
0.728535 0.753680 0.000000 
0.678204 0.764135 0.000000 
0.697612 0.738067 0.000000 
0.727570 0.736392 0.000000 
0.680673 0.723832 0.000000 
0.712109 0.728584 0.000000 
0.711148 0.711296 0.000000 
0.697346 0.699540 0.000000 
0.701674 0.678980 0.000000 
0.725642 0.701810 0.000000 
0.719981 0.681811 0.000000 
0.741165 0.707548 0.000000 
0.756680 0.696546 0.000000 
0.796401 0.661233 0.000000 
0.692575 0.845829 0.000000 
0.705004 0.830995 0.000000 
0.718578 0.641183 0.000000 
0.835218 0.816751 0.000000 
0.829123 0.833897 0.000000 
0.821704 0.804326 0.000000 
0.804117 0.809846 0.000000 
0.800086 0.827107 0.000000 
0.781582 0.828726 0.000000 
0.775627 0.812023 0.000000 
0.790023 0.801380 0.000000 
0.635118 0.757582 0.000000 
0.856526 0.788511 0.000000 
0.836962 0.781046 0.000000 
0.742131 0.724841 0.000000 
0.781803 0.870065 0.000000 
0.787621 0.890404 0.000000 
0.642585 0.707652 0.000000 
0.681371 0.702595 0.000000 
0.772154 0.722189 0.000000 
0.768934 0.637359 0.000000 
0.721063 0.852819 0.000000 
0.691804 0.664892 0.000000 
0.865596 0.801192 0.000000 
0.888735 0.800955 0.000000 
0.861335 0.693576 0.000000 
0.875580 0.675355 0.000000 
0.654771 0.790166 0.000000 
0.678192 0.851852 0.000000 
0.673273 0.874459 0.000000 
0.811583 0.838734 0.000000 
0.852521 0.758160 0.000000 
0.822107 0.786377 0.000000 
0.814474 0.663363 0.000000 
0.655588 0.808341 0.000000 
0.859678 0.741435 0.000000 
0.767683 0.668346 0.000000 
0.754648 0.681182 0.000000 
0.758174 0.651049 0.000000 
0.733475 0.672186 0.000000 
0.611755 0.693659 0.000000 
0.734971 0.652815 0.000000 
0.665768 0.740973 0.000000 
0.648538 0.734062 0.000000 
VECTORS X_EC float 
0.230999 -0.314744 0.000000 
-0.983329 -0.416853 0.000000 
-0.523689 -0.233850 0.000000 
0.894149 0.298507 0.000000 
-0.656789 -0.130456 0.000000 
0.368426 0.795749 0.000000 
-0.949091 -0.409842 0.000000 
-0.159049 -0.324165 0.000000 
-0.554410 0.765487 0.000000 
-0.838345 0.283584 0.000000 
-0.303440 -0.598802 0.000000 
0.457968 0.574240 0.000000 
-0.455319 0.588048 0.000000 
0.384854 -0.594361 0.000000 
0.031915 0.150368 0.000000 
0.658175 0.772046 0.000000 
-0.116605 0.815661 0.000000 
-0.242503 0.810316 0.000000 
0.706914 -0.100087 0.000000 
0.205630 0.784789 0.000000 
0.609940 -0.261442 0.000000 
0.315945 -0.879026 0.000000 
-0.642731 0.036239 0.000000 
0.935716 -0.432472 0.000000 
-0.526054 0.238892 0.000000 
-0.977282 0.340850 0.000000 
0.206682 0.248171 0.000000 
-0.581477 -0.857246 0.000000 
-0.123202 0.243485 0.000000 
-0.942570 0.348300 0.000000 
-0.312594 0.526109 0.000000 
-0.828787 -0.355038 0.000000 
0.771680 0.091562 0.000000 
-0.245298 -0.887734 0.000000 
-0.132769 -0.853398 0.000000 
0.600692 0.192100 0.000000 
0.165885 -0.928922 0.000000 
0.376598 0.529991 0.000000 
-0.379892 -0.626778 0.000000 
0.485242 -0.635226 0.000000 
0.628179 -0.834625 0.000000 
0.040904 -0.217600 0.000000 
0.436841 -0.572281 0.000000 
0.786138 -0.519675 0.000000 
0.990498 -0.776896 0.000000 
0.905860 -0.213647 0.000000 
0.857144 0.944884 0.000000 
0.531886 0.895367 0.000000 
-0.976097 0.653468 0.000000 
0.771264 0.418512 0.000000 
-0.668631 -0.746913 0.000000 
-0.759467 -0.142478 0.000000 
0.697391 0.011335 0.000000 
0.775373 0.330915 0.000000 
0.371837 -0.037124 0.000000 
0.464752 0.481229 0.000000 
-0.466311 0.972825 0.000000 
-0.538435 -0.418460 0.000000 
-0.676883 0.152074 0.000000 
0.212884 0.815863 0.000000 
0.389771 -0.878311 0.000000 
0.718117 -0.879105 0.000000 
0.225661 -0.593816 0.000000 
0.853794 0.841935 0.000000 
0.689271 0.556891 0.000000 
-0.806219 0.784991 0.000000 
-0.780212 0.441029 0.000000 
0.907176 -0.593908 0.000000 
0.378785 -0.287810 0.000000 
-0.090368 -0.621498 0.000000 
-0.342633 -0.386769 0.000000 
-0.255764 -0.906042 0.000000 
-0.653810 -0.535685 0.000000 
-0.747897 -0.610470 0.000000 
0.731953 -0.287106 0.000000 
0.144925 -0.035756 0.000000 
-0.931709 -0.051275 0.000000 
-0.554188 0.102413 0.000000 
-0.627392 0.444121 0.000000 
-0.368819 0.203214 0.000000 
-0.443249 -0.116677 0.000000 
-0.055182 0.299971 0.000000 
-0.753814 -0.182243 0.000000 
-0.994911 0.041643 0.000000 
-0.927029 -0.480093 0.000000 
0.731340 -0.428588 0.000000 
-0.207451 -0.364346 0.000000 
0.208693 0.082883 0.000000 
-0.011857 0.614453 0.000000 
0.272760 0.808533 0.000000 
-0.252584 0.839327 0.000000 
0.196596 -0.854733 0.000000 