# vtk DataFile Version 3.0 
vtk output 
ASCII 
DATASET UNSTRUCTURED_GRID 
POINTS 616 float 
0.230743 0.435247 0.000000 
0.126050 0.095842 0.000000 
0.434931 0.273227 0.000000 
0.061575 0.301893 0.000000 
0.340390 0.079779 0.000000 
0.286239 0.428394 0.000000 
0.126050 0.394158 0.000000 
0.230743 0.054753 0.000000 
0.384852 0.374764 0.000000 
0.060966 0.188514 0.000000 
0.416887 0.162223 0.000000 
0.175217 0.423888 0.000000 
0.176321 0.069487 0.000000 
0.416887 0.327777 0.000000 
0.054219 0.245000 0.000000 
0.385489 0.114105 0.000000 
0.087370 0.352470 0.000000 
0.287453 0.059003 0.000000 
0.341487 0.411582 0.000000 
0.086094 0.136334 0.000000 
0.433650 0.216566 0.000000 
0.202547 0.430997 0.000000 
0.148717 0.078834 0.000000 
0.424973 0.300241 0.000000 
0.058605 0.272902 0.000000 
0.363950 0.095842 0.000000 
0.258875 0.436469 0.000000 
0.103699 0.375741 0.000000 
0.259118 0.053011 0.000000 
0.363950 0.394158 0.000000 
0.073113 0.162223 0.000000 
0.429034 0.188514 0.000000 
0.151096 0.408168 0.000000 
0.202547 0.059003 0.000000 
0.403906 0.353666 0.000000 
0.056350 0.216566 0.000000 
0.400400 0.138734 0.000000 
0.073113 0.327777 0.000000 
0.315581 0.065898 0.000000 
0.314700 0.422593 0.000000 
0.105148 0.115236 0.000000 
0.435781 0.245000 0.000000 
0.217877 0.424951 0.000000 
0.220510 0.407479 0.000000 
0.207660 0.397254 0.000000 
0.235803 0.401495 0.000000 
0.193756 0.403921 0.000000 
0.191276 0.420194 0.000000 
0.179198 0.395572 0.000000 
0.167444 0.408204 0.000000 
0.209178 0.380210 0.000000 
0.239376 0.384762 0.000000 
0.247045 0.411925 0.000000 
0.263019 0.408033 0.000000 
0.244618 0.428205 0.000000 
0.270528 0.423569 0.000000 
0.195189 0.370086 0.000000 
0.225601 0.373703 0.000000 
0.254098 0.380641 0.000000 
0.087398 0.335992 0.000000 
0.102699 0.327157 0.000000 
0.102682 0.310735 0.000000 
0.116913 0.335383 0.000000 
0.088744 0.303938 0.000000 
0.074476 0.312146 0.000000 
0.085919 0.286936 0.000000 
0.068714 0.285622 0.000000 
0.116954 0.301296 0.000000 
0.132223 0.327743 0.000000 
0.115512 0.351189 0.000000 
0.127235 0.363824 0.000000 
0.101271 0.359442 0.000000 
0.119771 0.379381 0.000000 
0.116147 0.284046 0.000000 
0.132281 0.310078 0.000000 
0.144812 0.339456 0.000000 
0.143972 0.393309 0.000000 
0.151681 0.374439 0.000000 
0.368780 0.378403 0.000000 
0.356762 0.365451 0.000000 
0.340756 0.369122 0.000000 
0.361619 0.349763 0.000000 
0.337435 0.384639 0.000000 
0.348611 0.396723 0.000000 
0.322509 0.393256 0.000000 
0.325056 0.410323 0.000000 
0.328377 0.357309 0.000000 
0.350764 0.336537 0.000000 
0.377341 0.347612 0.000000 
0.387050 0.333371 0.000000 
0.388556 0.359660 0.000000 
0.403878 0.337187 0.000000 
0.311739 0.361934 0.000000 
0.333529 0.340411 0.000000 
0.359382 0.321658 0.000000 
0.065780 0.258067 0.000000 
0.096539 0.257794 0.000000 
0.121220 0.111597 0.000000 
0.133238 0.124549 0.000000 
0.149244 0.120878 0.000000 
0.128381 0.140237 0.000000 
0.152769 0.105777 0.000000 
0.141593 0.093693 0.000000 
0.168716 0.099239 0.000000 
0.166169 0.082173 0.000000 
0.161623 0.132691 0.000000 
0.139236 0.153463 0.000000 
0.112659 0.142388 0.000000 
0.102950 0.156629 0.000000 
0.101444 0.130340 0.000000 
0.086122 0.152813 0.000000 
0.178261 0.128066 0.000000 
0.156471 0.149589 0.000000 
0.133380 0.169709 0.000000 
0.347515 0.094638 0.000000 
0.337562 0.109237 0.000000 
0.344702 0.124025 0.000000 
0.321187 0.107993 0.000000 
0.360123 0.124051 0.000000 
0.369417 0.110466 0.000000 
0.369616 0.137889 0.000000 
0.385687 0.131608 0.000000 
0.335940 0.138722 0.000000 
0.310707 0.121519 0.000000 
0.315590 0.093144 0.000000 
0.299547 0.086847 0.000000 
0.324841 0.079529 0.000000 
0.299522 0.069592 0.000000 
0.344152 0.153914 0.000000 
0.318320 0.137460 0.000000 
0.293566 0.119425 0.000000 
0.426474 0.231400 0.000000 
0.408855 0.232721 0.000000 
0.401745 0.247524 0.000000 
0.399618 0.219142 0.000000 
0.411340 0.259596 0.000000 
0.427756 0.258393 0.000000 
0.406439 0.275646 0.000000 
0.421370 0.284295 0.000000 
0.384791 0.249836 0.000000 
0.382509 0.219383 0.000000 
0.407738 0.205509 0.000000 
0.402658 0.189040 0.000000 
0.424150 0.204253 0.000000 
0.416133 0.178262 0.000000 
0.378034 0.265728 0.000000 
0.374792 0.235273 0.000000 
0.376250 0.203368 0.000000 
0.400372 0.155213 0.000000 
0.385239 0.168869 0.000000 
0.192380 0.073181 0.000000 
0.200905 0.104262 0.000000 
0.271984 0.063307 0.000000 
0.264475 0.078843 0.000000 
0.063526 0.231400 0.000000 
0.079705 0.233843 0.000000 
0.088942 0.220264 0.000000 
0.081960 0.250545 0.000000 
0.082262 0.205509 0.000000 
0.065850 0.204253 0.000000 
0.087342 0.189040 0.000000 
0.073867 0.178262 0.000000 
0.106051 0.220505 0.000000 
0.117169 0.203372 0.000000 
0.111393 0.241332 0.000000 
0.217877 0.065049 0.000000 
0.220510 0.082521 0.000000 
0.235803 0.088505 0.000000 
0.204728 0.088435 0.000000 
0.247288 0.077555 0.000000 
0.244861 0.061274 0.000000 
0.270753 0.095665 0.000000 
0.237813 0.106958 0.000000 
0.255576 0.112831 0.000000 
0.218696 0.116801 0.000000 
0.412072 0.310493 0.000000 
0.391959 0.307176 0.000000 
0.297427 0.416295 0.000000 
0.294466 0.393134 0.000000 
0.179113 0.378780 0.000000 
0.309192 0.382365 0.000000 
0.362407 0.153055 0.000000 
0.099049 0.276483 0.000000 
0.181829 0.109714 0.000000 
0.390087 0.279466 0.000000 
0.257534 0.363677 0.000000 
0.348261 0.308396 0.000000 
0.283111 0.133218 0.000000 
0.160216 0.331566 0.000000 
0.144501 0.182971 0.000000 
0.358947 0.203794 0.000000 
0.196906 0.352864 0.000000 
0.299345 0.349854 0.000000 
0.335132 0.168685 0.000000 
0.130682 0.274651 0.000000 
0.190655 0.140146 0.000000 
0.360862 0.267886 0.000000 
0.266499 0.393483 0.000000 
0.379946 0.320644 0.000000 
0.288001 0.099602 0.000000 
0.141224 0.359731 0.000000 
0.112816 0.170723 0.000000 
0.388279 0.186658 0.000000 
0.246174 0.350796 0.000000 
0.161553 0.179955 0.000000 
0.339125 0.186041 0.000000 
0.324967 0.198831 0.000000 
0.324988 0.215157 0.000000 
0.310839 0.190650 0.000000 
0.343397 0.219283 0.000000 
0.310796 0.224679 0.000000 
0.295497 0.198180 0.000000 
0.316470 0.172644 0.000000 
0.311693 0.241919 0.000000 
0.295433 0.215882 0.000000 
0.281015 0.188783 0.000000 
0.327496 0.253894 0.000000 
0.297211 0.251394 0.000000 
0.265568 0.196587 0.000000 
0.278545 0.169110 0.000000 
0.228964 0.356700 0.000000 
0.250547 0.334160 0.000000 
0.167668 0.162818 0.000000 
0.281762 0.243570 0.000000 
0.235842 0.324250 0.000000 
0.268472 0.333629 0.000000 
0.281536 0.349885 0.000000 
0.267257 0.253036 0.000000 
0.280882 0.225299 0.000000 
0.216764 0.330172 0.000000 
0.268203 0.270330 0.000000 
0.251807 0.245208 0.000000 
0.283654 0.278158 0.000000 
0.253699 0.279797 0.000000 
0.237302 0.254674 0.000000 
0.250928 0.225844 0.000000 
0.298157 0.268687 0.000000 
0.254740 0.298251 0.000000 
0.238248 0.271969 0.000000 
0.223744 0.281435 0.000000 
0.222302 0.298569 0.000000 
0.237847 0.307557 0.000000 
0.201761 0.309237 0.000000 
0.208293 0.273607 0.000000 
0.189807 0.283058 0.000000 
0.207347 0.256313 0.000000 
0.184717 0.301553 0.000000 
0.164174 0.311184 0.000000 
0.168473 0.274510 0.000000 
0.191896 0.248485 0.000000 
0.221852 0.246846 0.000000 
0.171508 0.257232 0.000000 
0.190950 0.231190 0.000000 
0.220906 0.229551 0.000000 
0.174030 0.216929 0.000000 
0.205455 0.221723 0.000000 
0.204509 0.204429 0.000000 
0.190725 0.192655 0.000000 
0.195073 0.172105 0.000000 
0.219013 0.194962 0.000000 
0.213376 0.174959 0.000000 
0.234531 0.200721 0.000000 
0.250051 0.189736 0.000000 
0.289803 0.154462 0.000000 
0.185778 0.338959 0.000000 
0.198228 0.324146 0.000000 
0.212015 0.134334 0.000000 
0.328447 0.310045 0.000000 
0.322332 0.327182 0.000000 
0.314952 0.297606 0.000000 
0.297362 0.303104 0.000000 
0.293311 0.320360 0.000000 
0.274805 0.321960 0.000000 
0.268871 0.305250 0.000000 
0.283281 0.294624 0.000000 
0.128440 0.250626 0.000000 
0.349782 0.281830 0.000000 
0.330231 0.274337 0.000000 
0.235477 0.218016 0.000000 
0.274971 0.363296 0.000000 
0.280761 0.383640 0.000000 
0.135965 0.200695 0.000000 
0.174751 0.195688 0.000000 
0.265498 0.215401 0.000000 
0.262369 0.130561 0.000000 
0.214258 0.345986 0.000000 
0.185214 0.158002 0.000000 
0.358836 0.294525 0.000000 
0.381969 0.294320 0.000000 
0.354696 0.186878 0.000000 
0.368958 0.168664 0.000000 
0.148036 0.283232 0.000000 
0.171386 0.344961 0.000000 
0.166439 0.367560 0.000000 
0.304786 0.331998 0.000000 
0.345809 0.251469 0.000000 
0.315374 0.279655 0.000000 
0.307870 0.156610 0.000000 
0.148828 0.301410 0.000000 
0.352983 0.234748 0.000000 
0.261082 0.161546 0.000000 
0.248035 0.174368 0.000000 
0.251597 0.144242 0.000000 
0.226878 0.165350 0.000000 
0.105140 0.186662 0.000000 
0.228393 0.145981 0.000000 
0.159108 0.234050 0.000000 
0.141894 0.227121 0.000000 
0.740743 0.945247 0.000000 
0.636050 0.605842 0.000000 
0.944931 0.783227 0.000000 
0.571575 0.811893 0.000000 
0.850390 0.589779 0.000000 
0.796239 0.938394 0.000000 
0.636050 0.904158 0.000000 
0.740743 0.564753 0.000000 
0.894852 0.884764 0.000000 
0.570966 0.698514 0.000000 
0.926887 0.672223 0.000000 
0.685217 0.933888 0.000000 
0.686321 0.579487 0.000000 
0.926887 0.837777 0.000000 
0.564219 0.755000 0.000000 
0.895489 0.624105 0.000000 
0.597370 0.862470 0.000000 
0.797453 0.569003 0.000000 
0.851487 0.921582 0.000000 
0.596094 0.646334 0.000000 
0.943650 0.726566 0.000000 
0.712547 0.940997 0.000000 
0.658717 0.588834 0.000000 
0.934973 0.810241 0.000000 
0.568605 0.782902 0.000000 
0.873950 0.605842 0.000000 
0.768875 0.946469 0.000000 
0.613699 0.885741 0.000000 
0.769118 0.563011 0.000000 
0.873950 0.904158 0.000000 
0.583113 0.672223 0.000000 
0.939034 0.698514 0.000000 
0.661096 0.918168 0.000000 
0.712547 0.569003 0.000000 
0.913906 0.863666 0.000000 
0.566350 0.726566 0.000000 
0.910400 0.648734 0.000000 
0.583113 0.837777 0.000000 
0.825581 0.575898 0.000000 
0.824700 0.932593 0.000000 
0.615148 0.625236 0.000000 
0.945781 0.755000 0.000000 
0.727877 0.934951 0.000000 
0.730510 0.917479 0.000000 
0.717660 0.907254 0.000000 
[...]
POINT_DATA 616 
VECTORS X_GC float 
0.230743 0.435247 0.000000 
0.126050 0.095842 0.000000 
0.434931 0.273227 0.000000 
0.061575 0.301893 0.000000 
0.340390 0.079779 0.000000 
0.286239 0.428394 0.000000 
0.126050 0.394158 0.000000 
0.230743 0.054753 0.000000 
0.384852 0.374764 0.000000 
0.060966 0.188514 0.000000 
0.416887 0.162223 0.000000 
0.175217 0.423888 0.000000 
0.176321 0.069487 0.000000 
0.416887 0.327777 0.000000 
0.054219 0.245000 0.000000 
0.385489 0.114105 0.000000 
0.087370 0.352470 0.000000 
0.287453 0.059003 0.000000 
0.341487 0.411582 0.000000 
0.086094 0.136334 0.000000 
0.433650 0.216566 0.000000 
0.202547 0.430997 0.000000 
0.148717 0.078834 0.000000 
0.424973 0.300241 0.000000 
0.058605 0.272902 0.000000 
0.363950 0.095842 0.000000 
0.258875 0.436469 0.000000 
0.103699 0.375741 0.000000 
0.259118 0.053011 0.000000 
0.363950 0.394158 0.000000 
0.073113 0.162223 0.000000 
0.429034 0.188514 0.000000 
0.151096 0.408168 0.000000 
0.202547 0.059003 0.000000 
0.403906 0.353666 0.000000 
0.056350 0.216566 0.000000 
0.400400 0.138734 0.000000 
0.073113 0.327777 0.000000 
0.315581 0.065898 0.000000 
0.314700 0.422593 0.000000 
0.105148 0.115236 0.000000 
0.435781 0.245000 0.000000 
0.217877 0.424951 0.000000 
0.220510 0.407479 0.000000 
0.207660 0.397254 0.000000 
0.235803 0.401495 0.000000 
0.193756 0.403921 0.000000 
0.191276 0.420194 0.000000 
0.179198 0.395572 0.000000 
0.167444 0.408204 0.000000 
0.209178 0.380210 0.000000 
0.239376 0.384762 0.000000 
0.247045 0.411925 0.000000 
0.263019 0.408033 0.000000 
0.244618 0.428205 0.000000 
0.270528 0.423569 0.000000 
0.195189 0.370086 0.000000 
0.225601 0.373703 0.000000 
0.254098 0.380641 0.000000 
0.087398 0.335992 0.000000 
0.102699 0.327157 0.000000 
0.102682 0.310735 0.000000 
0.116913 0.335383 0.000000 
0.088744 0.303938 0.000000 
0.074476 0.312146 0.000000 
0.085919 0.286936 0.000000 
0.068714 0.285622 0.000000 
0.116954 0.301296 0.000000 
0.132223 0.327743 0.000000 
0.115512 0.351189 0.000000 
0.127235 0.363824 0.000000 
0.101271 0.359442 0.000000 
0.119771 0.379381 0.000000 
0.116147 0.284046 0.000000 
0.132281 0.310078 0.000000 
0.144812 0.339456 0.000000 
0.143972 0.393309 0.000000 
0.151681 0.374439 0.000000 
0.368780 0.378403 0.000000 
0.356762 0.365451 0.000000 
0.340756 0.369122 0.000000 
0.361619 0.349763 0.000000 
0.337435 0.384639 0.000000 
0.348611 0.396723 0.000000 
0.322509 0.393256 0.000000 
0.325056 0.410323 0.000000 
0.328377 0.357309 0.000000 
0.350764 0.336537 0.000000 
0.377341 0.347612 0.000000 
0.387050 0.333371 0.000000 
0.388556 0.359660 0.000000 
0.403878 0.337187 0.000000 
0.311739 0.361934 0.000000 
0.333529 0.340411 0.000000 
0.359382 0.321658 0.000000 
0.065780 0.258067 0.000000 
0.096539 0.257794 0.000000 
0.121220 0.111597 0.000000 
0.133238 0.124549 0.000000 
0.149244 0.120878 0.000000 
0.128381 0.140237 0.000000 
0.152769 0.105777 0.000000 
0.141593 0.093693 0.000000 
0.168716 0.099239 0.000000 
0.166169 0.082173 0.000000 
0.161623 0.132691 0.000000 
0.139236 0.153463 0.000000 
0.112659 0.142388 0.000000 
0.102950 0.156629 0.000000 
0.101444 0.130340 0.000000 
0.086122 0.152813 0.000000 
0.178261 0.128066 0.000000 
0.156471 0.149589 0.000000 
0.133380 0.169709 0.000000 
0.347515 0.094638 0.000000 
0.337562 0.109237 0.000000 
0.344702 0.124025 0.000000 
0.321187 0.107993 0.000000 
0.360123 0.124051 0.000000 
0.369417 0.110466 0.000000 
0.369616 0.137889 0.000000 
0.385687 0.131608 0.000000 
0.335940 0.138722 0.000000 
0.310707 0.121519 0.000000 
0.315590 0.093144 0.000000 
0.299547 0.086847 0.000000 
0.324841 0.079529 0.000000 
0.299522 0.069592 0.000000 
0.344152 0.153914 0.000000 
0.318320 0.137460 0.000000 
0.293566 0.119425 0.000000 
0.426474 0.231400 0.000000 
0.408855 0.232721 0.000000 
0.401745 0.247524 0.000000 
0.399618 0.219142 0.000000 
0.411340 0.259596 0.000000 
0.427756 0.258393 0.000000 
0.406439 0.275646 0.000000 
0.421370 0.284295 0.000000 
0.384791 0.249836 0.000000 
0.382509 0.219383 0.000000 
0.407738 0.205509 0.000000 
0.402658 0.189040 0.000000 
0.424150 0.204253 0.000000 
0.416133 0.178262 0.000000 
0.378034 0.265728 0.000000 
0.374792 0.235273 0.000000 
0.376250 0.203368 0.000000 
0.400372 0.155213 0.000000 
0.385239 0.168869 0.000000 
0.192380 0.073181 0.000000 
0.200905 0.104262 0.000000 
0.271984 0.063307 0.000000 
0.264475 0.078843 0.000000 
0.063526 0.231400 0.000000 
0.079705 0.233843 0.000000 
0.088942 0.220264 0.000000 
0.081960 0.250545 0.000000 
0.082262 0.205509 0.000000 
0.065850 0.204253 0.000000 
0.087342 0.189040 0.000000 
0.073867 0.178262 0.000000 
0.106051 0.220505 0.000000 
0.117169 0.203372 0.000000 
0.111393 0.241332 0.000000 
0.217877 0.065049 0.000000 
0.220510 0.082521 0.000000 
0.235803 0.088505 0.000000 
0.204728 0.088435 0.000000 
0.247288 0.077555 0.000000 
0.244861 0.061274 0.000000 
0.270753 0.095665 0.000000 
0.237813 0.106958 0.000000 
0.255576 0.112831 0.000000 
0.218696 0.116801 0.000000 
0.412072 0.310493 0.000000 
0.391959 0.307176 0.000000 
0.297427 0.416295 0.000000 
0.294466 0.393134 0.000000 
0.179113 0.378780 0.000000 
0.309192 0.382365 0.000000 
0.362407 0.153055 0.000000 
0.099049 0.276483 0.000000 
0.181829 0.109714 0.000000 
0.390087 0.279466 0.000000 
0.257534 0.363677 0.000000 
0.348261 0.308396 0.000000 
0.283111 0.133218 0.000000 
0.160216 0.331566 0.000000 
0.144501 0.182971 0.000000 
0.358947 0.203794 0.000000 
0.196906 0.352864 0.000000 
0.299345 0.349854 0.000000 
0.335132 0.168685 0.000000 
0.130682 0.274651 0.000000 
0.190655 0.140146 0.000000 
0.360862 0.267886 0.000000 
0.266499 0.393483 0.000000 
0.379946 0.320644 0.000000 
0.288001 0.099602 0.000000 
0.141224 0.359731 0.000000 
0.112816 0.170723 0.000000 
0.388279 0.186658 0.000000 
0.246174 0.350796 0.000000 
0.161553 0.179955 0.000000 
0.339125 0.186041 0.000000 
0.324967 0.198831 0.000000 
0.324988 0.215157 0.000000 
0.310839 0.190650 0.000000 
0.343397 0.219283 0.000000 
0.310796 0.224679 0.000000 
0.295497 0.198180 0.000000 
0.316470 0.172644 0.000000 
0.311693 0.241919 0.000000 
0.295433 0.215882 0.000000 
0.281015 0.188783 0.000000 
0.327496 0.253894 0.000000 
0.297211 0.251394 0.000000 
0.265568 0.196587 0.000000 
0.278545 0.169110 0.000000 
0.228964 0.356700 0.000000 
0.250547 0.334160 0.000000 
0.167668 0.162818 0.000000 
0.281762 0.243570 0.000000 
0.235842 0.324250 0.000000 
0.268472 0.333629 0.000000 
0.281536 0.349885 0.000000 
0.267257 0.253036 0.000000 
0.280882 0.225299 0.000000 
0.216764 0.330172 0.000000 
0.268203 0.270330 0.000000 
0.251807 0.245208 0.000000 
0.283654 0.278158 0.000000 
0.253699 0.279797 0.000000 
0.237302 0.254674 0.000000 
0.250928 0.225844 0.000000 
0.298157 0.268687 0.000000 
0.254740 0.298251 0.000000 
0.238248 0.271969 0.000000 
0.223744 0.281435 0.000000 
0.222302 0.298569 0.000000 
0.237847 0.307557 0.000000 
0.201761 0.309237 0.000000 
0.208293 0.273607 0.000000 
0.189807 0.283058 0.000000 
0.207347 0.256313 0.000000 
0.184717 0.301553 0.000000 
0.164174 0.311184 0.000000 
0.168473 0.274510 0.000000 
0.191896 0.248485 0.000000 
0.221852 0.246846 0.000000 
0.171508 0.257232 0.000000 
0.190950 0.231190 0.000000 
0.220906 0.229551 0.000000 
0.174030 0.216929 0.000000 
0.205455 0.221723 0.000000 
0.204509 0.204429 0.000000 
0.190725 0.192655 0.000000 
0.195073 0.172105 0.000000 
0.219013 0.194962 0.000000 
0.213376 0.174959 0.000000 
0.234531 0.200721 0.000000 
0.250051 0.189736 0.000000 
0.289803 0.154462 0.000000 
0.185778 0.338959 0.000000 
0.198228 0.324146 0.000000 
0.212015 0.134334 0.000000 
0.328447 0.310045 0.000000 
0.322332 0.327182 0.000000 
0.314952 0.297606 0.000000 
0.297362 0.303104 0.000000 
0.293311 0.320360 0.000000 
0.274805 0.321960 0.000000 
0.268871 0.305250 0.000000 
0.283281 0.294624 0.000000 
0.128440 0.250626 0.000000 
0.349782 0.281830 0.000000 
0.330231 0.274337 0.000000 
0.235477 0.218016 0.000000 
0.274971 0.363296 0.000000 
0.280761 0.383640 0.000000 
0.135965 0.200695 0.000000 
0.174751 0.195688 0.000000 
0.265498 0.215401 0.000000 
0.262369 0.130561 0.000000 
0.214258 0.345986 0.000000 
0.185214 0.158002 0.000000 
0.358836 0.294525 0.000000 
0.381969 0.294320 0.000000 
0.354696 0.186878 0.000000 
0.368958 0.168664 0.000000 
0.148036 0.283232 0.000000 
0.171386 0.344961 0.000000 
0.166439 0.367560 0.000000 
0.304786 0.331998 0.000000 
0.345809 0.251469 0.000000 
0.315374 0.279655 0.000000 
0.307870 0.156610 0.000000 
0.148828 0.301410 0.000000 
0.352983 0.234748 0.000000 
0.261082 0.161546 0.000000 
0.248035 0.174368 0.000000 
0.251597 0.144242 0.000000 
0.226878 0.165350 0.000000 
0.105140 0.186662 0.000000 
0.228393 0.145981 0.000000 
0.159108 0.234050 0.000000 
0.141894 0.227121 0.000000 
0.740743 0.945247 0.000000 
0.636050 0.605842 0.000000 
0.944931 0.783227 0.000000 
0.571575 0.811893 0.000000 
0.850390 0.589779 0.000000 
0.796239 0.938394 0.000000 
0.636050 0.904158 0.000000 
0.740743 0.564753 0.000000 
0.894852 0.884764 0.000000 
0.570966 0.698514 0.000000 
0.926887 0.672223 0.000000 
0.685217 0.933888 0.000000 
0.686321 0.579487 0.000000 
0.926887 0.837777 0.000000 
0.564219 0.755000 0.000000 
0.895489 0.624105 0.000000 
0.597370 0.862470 0.000000 
0.797453 0.569003 0.000000 
0.851487 0.921582 0.000000 
0.596094 0.646334 0.000000 
0.943650 0.726566 0.000000 
0.712547 0.940997 0.000000 
0.658717 0.588834 0.000000 
0.934973 0.810241 0.000000 
0.568605 0.782902 0.000000 
0.873950 0.605842 0.000000 
0.768875 0.946469 0.000000 
0.613699 0.885741 0.000000 
0.769118 0.563011 0.000000 
0.873950 0.904158 0.000000 
0.583113 0.672223 0.000000 
0.939034 0.698514 0.000000 
0.661096 0.918168 0.000000 
0.712547 0.569003 0.000000 
0.913906 0.863666 0.000000 
0.566350 0.726566 0.000000 
0.910400 0.648734 0.000000 
0.583113 0.837777 0.000000 
0.825581 0.575898 0.000000 
0.824700 0.932593 0.000000 
0.615148 0.625236 0.000000 
0.945781 0.755000 0.000000 
0.727877 0.934951 0.000000 
0.730510 0.917479 0.000000 
0.717660 0.907254 0.000000 
0.745803 0.911495 0.000000 
0.703756 0.913921 0.000000 
0.701276 0.930194 0.000000 
0.689198 0.905572 0.000000 
0.677444 0.918204 0.000000 
0.719178 0.890210 0.000000 
0.749376 0.894762 0.000000 
0.757045 0.921925 0.000000 
0.773019 0.918033 0.000000 
0.754618 0.938205 0.000000 
0.780528 0.933569 0.000000 
0.705189 0.880086 0.000000 
0.735601 0.883703 0.000000 
0.764098 0.890641 0.000000 
0.597398 0.845992 0.000000 
0.612699 0.837157 0.000000 
0.612682 0.820735 0.000000 
0.626913 0.845383 0.000000 
0.598744 0.813938 0.000000 
0.584476 0.822146 0.000000 
0.595919 0.796936 0.000000 
0.578714 0.795622 0.000000 
0.626954 0.811296 0.000000 
0.642223 0.837743 0.000000 
0.625512 0.861189 0.000000 
0.637235 0.873824 0.000000 
0.611271 0.869442 0.000000 
0.629771 0.889381 0.000000 
0.626147 0.794046 0.000000 
0.642281 0.820078 0.000000 
0.654812 0.849456 0.000000 
0.653972 0.903309 0.000000 
0.661681 0.884439 0.000000 
0.878780 0.888403 0.000000 
0.866762 0.875451 0.000000 
0.850756 0.879122 0.000000 
0.871619 0.859763 0.000000 
0.847435 0.894639 0.000000 
0.858611 0.906723 0.000000 
0.832509 0.903256 0.000000 
0.835056 0.920323 0.000000 
0.838377 0.867309 0.000000 
0.860764 0.846537 0.000000 
0.887341 0.857612 0.000000 
0.897050 0.843371 0.000000 
0.898556 0.869660 0.000000 
0.913878 0.847187 0.000000 
0.821739 0.871934 0.000000 
0.843529 0.850411 0.000000 
0.869382 0.831658 0.000000 
0.575780 0.768067 0.000000 
0.606539 0.767794 0.000000 
0.631220 0.621597 0.000000 
0.643238 0.634549 0.000000 
0.659244 0.630878 0.000000 
0.638381 0.650237 0.000000 
0.662769 0.615777 0.000000 
0.651593 0.603693 0.000000 
0.678716 0.609239 0.000000 
0.676169 0.592173 0.000000 
0.671623 0.642691 0.000000 
0.649236 0.663463 0.000000 
0.622659 0.652388 0.000000 
0.612950 0.666629 0.000000 
0.611444 0.640340 0.000000 
0.596122 0.662813 0.000000 
0.688261 0.638066 0.000000 
0.666471 0.659589 0.000000 
0.643380 0.679709 0.000000 
0.857515 0.604638 0.000000 
0.847562 0.619237 0.000000 
0.854702 0.634025 0.000000 
0.831187 0.617993 0.000000 
0.870123 0.634051 0.000000 
0.879417 0.620466 0.000000 
0.879616 0.647889 0.000000 
0.895687 0.641608 0.000000 
0.845940 0.648722 0.000000 
0.820707 0.631519 0.000000 
0.825590 0.603144 0.000000 
0.809547 0.596847 0.000000 
0.834841 0.589529 0.000000 
0.809522 0.579592 0.000000 
0.854152 0.663914 0.000000 
0.828320 0.647460 0.000000 
0.803566 0.629425 0.000000 
0.936474 0.741400 0.000000 
0.918855 0.742721 0.000000 
0.911745 0.757524 0.000000 
0.909618 0.729142 0.000000 
0.921340 0.769596 0.000000 
0.937756 0.768393 0.000000 
0.916439 0.785646 0.000000 
0.931370 0.794295 0.000000 
0.894791 0.759836 0.000000 
0.892509 0.729383 0.000000 
0.917738 0.715509 0.000000 
0.912658 0.699040 0.000000 
0.934150 0.714253 0.000000 
0.926133 0.688262 0.000000 
0.888034 0.775728 0.000000 
0.884792 0.745273 0.000000 
0.886250 0.713368 0.000000 
0.910372 0.665213 0.000000 
0.895239 0.678869 0.000000 
0.702380 0.583181 0.000000 
0.710905 0.614262 0.000000 
0.781984 0.573307 0.000000 
0.774475 0.588843 0.000000 
0.573526 0.741400 0.000000 
0.589705 0.743843 0.000000 
0.598942 0.730264 0.000000 
0.591960 0.760545 0.000000 
0.592262 0.715509 0.000000 
0.575850 0.714253 0.000000 
0.597342 0.699040 0.000000 
0.583867 0.688262 0.000000 
0.616051 0.730505 0.000000 
0.627169 0.713372 0.000000 
0.621393 0.751332 0.000000 
0.727877 0.575049 0.000000 
0.730510 0.592521 0.000000 
0.745803 0.598505 0.000000 
0.714728 0.598435 0.000000 
0.757288 0.587555 0.000000 
0.754861 0.571274 0.000000 
0.780753 0.605665 0.000000 
0.747813 0.616958 0.000000 
0.765576 0.622831 0.000000 
0.728696 0.626801 0.000000 
0.922072 0.820493 0.000000 
0.901959 0.817176 0.000000 
0.807427 0.926295 0.000000 
0.804466 0.903134 0.000000 
0.689113 0.888780 0.000000 
0.819192 0.892365 0.000000 
0.872407 0.663055 0.000000 
0.609049 0.786483 0.000000 
0.691829 0.619714 0.000000 
0.900087 0.789466 0.000000 
0.767534 0.873677 0.000000 
0.858261 0.818396 0.000000 
0.793111 0.643218 0.000000 
0.670216 0.841566 0.000000 
0.654501 0.692971 0.000000 
0.868947 0.713794 0.000000 
0.706906 0.862864 0.000000 
0.809345 0.859854 0.000000 
0.845132 0.678685 0.000000 
0.640682 0.784651 0.000000 
0.700655 0.650146 0.000000 
0.870862 0.777886 0.000000 
0.776499 0.903483 0.000000 
0.889946 0.830644 0.000000 
0.798001 0.609602 0.000000 
0.651224 0.869731 0.000000 
0.622816 0.680723 0.000000 
0.898279 0.696658 0.000000 
0.756174 0.860796 0.000000 
0.671553 0.689955 0.000000 
0.849125 0.696041 0.000000 
0.834967 0.708831 0.000000 
0.834988 0.725157 0.000000 
0.820839 0.700650 0.000000 
0.853397 0.729283 0.000000 
0.820796 0.734679 0.000000 
0.805497 0.708180 0.000000 
0.826470 0.682644 0.000000 
0.821693 0.751919 0.000000 
0.805433 0.725882 0.000000 
0.791015 0.698783 0.000000 
0.837496 0.763894 0.000000 
0.807211 0.761394 0.000000 
0.775568 0.706587 0.000000 
0.788545 0.679110 0.000000 
0.738964 0.866700 0.000000 
0.760547 0.844160 0.000000 
0.677668 0.672818 0.000000 
0.791762 0.753570 0.000000 
0.745842 0.834250 0.000000 
0.778472 0.843629 0.000000 
0.791536 0.859885 0.000000 
0.777257 0.763036 0.000000 
0.790882 0.735299 0.000000 
0.726764 0.840172 0.000000 
0.778203 0.780330 0.000000 
0.761807 0.755208 0.000000 
0.793654 0.788158 0.000000 
0.763699 0.789797 0.000000 
0.747302 0.764674 0.000000 
0.760928 0.735844 0.000000 
0.808157 0.778687 0.000000 
0.764740 0.808251 0.000000 
0.748248 0.781969 0.000000 
0.733744 0.791435 0.000000 
0.732302 0.808569 0.000000 
0.747847 0.817557 0.000000 
0.711761 0.819237 0.000000 
0.718293 0.783607 0.000000 
0.699807 0.793058 0.000000 
0.717347 0.766313 0.000000 
0.694717 0.811553 0.000000 
0.674174 0.821184 0.000000 
0.678473 0.784510 0.000000 
0.701896 0.758485 0.000000 
0.731852 0.756846 0.000000 
0.681508 0.767232 0.000000 
0.700950 0.741190 0.000000 
0.730906 0.739551 0.000000 
0.684030 0.726929 0.000000 
0.715455 0.731723 0.000000 
0.714509 0.714429 0.000000 
0.700725 0.702655 0.000000 
0.705073 0.682105 0.000000 
0.729013 0.704962 0.000000 
0.723376 0.684959 0.000000 
0.744531 0.710721 0.000000 
0.760051 0.699736 0.000000 
0.799803 0.664462 0.000000 
0.695778 0.848959 0.000000 
0.708228 0.834146 0.000000 
0.722015 0.644334 0.000000 
0.838447 0.820045 0.000000 
0.832332 0.837182 0.000000 
0.824952 0.807606 0.000000 
0.807362 0.813104 0.000000 
0.803311 0.830360 0.000000 
0.784805 0.831960 0.000000 
0.778871 0.815250 0.000000 
0.793281 0.804624 0.000000 
0.638440 0.760626 0.000000 
0.859782 0.791830 0.000000 
0.840231 0.784337 0.000000 
0.745477 0.728016 0.000000 
0.784971 0.873296 0.000000 
0.790761 0.893640 0.000000 
0.645965 0.710695 0.000000 
0.684751 0.705688 0.000000 
0.775498 0.725401 0.000000 
0.772369 0.640561 0.000000 
0.724258 0.855986 0.000000 
0.695214 0.668002 0.000000 
0.868836 0.804525 0.000000 
0.891969 0.804320 0.000000 
0.864696 0.696878 0.000000 
0.878958 0.678664 0.000000 
0.658036 0.793232 0.000000 
0.681386 0.854961 0.000000 
0.676439 0.877560 0.000000 
0.814786 0.841998 0.000000 
0.855809 0.761469 0.000000 
0.825374 0.789655 0.000000 
0.817870 0.666610 0.000000 
0.658828 0.811410 0.000000 
0.862983 0.744748 0.000000 
0.771082 0.671546 0.000000 
0.758035 0.684368 0.000000 
0.761597 0.654242 0.000000 
0.736878 0.675350 0.000000 
0.615140 0.696662 0.000000 
0.738393 0.655981 0.000000 
0.669108 0.744050 0.000000 
0.651894 0.737121 0.000000 
VECTORS X_EC float 
0.295059 -0.385141 0.000000 
-0.916836 -0.478994 0.000000 
-0.464545 -0.301376 0.000000 
0.962136 0.231502 0.000000 
-0.595585 -0.192195 0.000000 
0.432125 0.724779 0.000000 
-0.883164 -0.478994 0.000000 
-0.095059 -0.385141 0.000000 
-0.495274 0.697040 0.000000 
-0.770289 0.219313 0.000000 
-0.244469 -0.662254 0.000000 
0.522238 0.504336 0.000000 
-0.389736 0.526417 0.000000 
0.444469 -0.662254 0.000000 
0.100000 0.084390 0.000000 
0.717896 0.709782 0.000000 
-0.049410 0.747395 0.000000 
-0.180055 0.749053 0.000000 
0.768360 -0.170264 0.000000 
0.273314 0.721885 0.000000 
0.668687 -0.327007 0.000000 
0.380055 -0.949053 0.000000 
-0.576677 -0.025653 0.000000 
0.995182 -0.500545 0.000000 
-0.458037 0.172095 0.000000 
-0.916836 0.278994 0.000000 
0.270625 0.177502 0.000000 
-0.514825 -0.926021 0.000000 
-0.060211 0.182357 0.000000 
-0.883164 0.278994 0.000000 
-0.244469 0.462254 0.000000 
-0.770289 -0.419313 0.000000 
0.836636 0.021928 0.000000 
-0.180055 -0.949053 0.000000 
-0.073314 -0.921885 0.000000 
0.668687 0.127007 0.000000 
0.225324 -0.991995 0.000000 
0.444469 0.462254 0.000000 
-0.317959 -0.688373 0.000000 
0.548149 -0.706001 0.000000 
0.695274 -0.897040 0.000000 
0.100000 -0.284390 0.000000 
0.500986 -0.642464 0.000000 
0.850411 -0.589797 0.000000 
-0.945071 -0.846798 0.000000 
0.970091 -0.283931 0.000000 
0.921572 0.875113 0.000000 
0.596124 0.825524 0.000000 
-0.911441 0.583969 0.000000 
0.835915 0.348876 0.000000 
-0.604206 -0.816431 0.000000 
-0.695238 -0.212477 0.000000 
0.761506 -0.059096 0.000000 
0.839335 0.260371 0.000000 
0.435899 -0.107638 0.000000 
0.528621 0.410552 0.000000 
-0.401726 0.903770 0.000000 
-0.474053 -0.487976 0.000000 
-0.612814 0.081966 0.000000 
0.280167 0.747957 0.000000 
0.456853 -0.946014 0.000000 
0.785299 -0.946353 0.000000 
0.292336 -0.661741 0.000000 
0.921232 0.774889 0.000000 
0.757088 0.489525 0.000000 
-0.738727 0.718373 0.000000 
-0.712444 0.374271 0.000000 
0.974083 -0.660921 0.000000 
0.445135 -0.355533 0.000000 
-0.023786 -0.689752 0.000000 
-0.276472 -0.455293 0.000000 
-0.188846 -0.974587 0.000000 
-0.587615 -0.604583 0.000000 
-0.680917 -0.677068 0.000000 
0.798436 -0.354375 0.000000 
0.210875 -0.103768 0.000000 
-0.866182 -0.120564 0.000000 
-0.488772 0.033623 0.000000 
-0.568064 0.375602 0.000000 
-0.309024 0.135248 0.000000 
-0.382440 -0.184888 0.000000 
0.004730 0.232383 0.000000 
-0.692775 -0.251301 0.000000 
-0.934458 -0.027772 0.000000 
-0.865127 -0.549824 0.000000 
0.793549 -0.498877 0.000000 
-0.146173 -0.432454 0.000000 
0.269260 0.015277 0.000000 
0.047766 0.546812 0.000000 
0.332574 0.740991 0.000000 
-0.193199 0.771116 0.000000 
0.256263 -0.922447 0.000000 