# vtk DataFile Version 3.0 
vtk output 
ASCII 
DATASET UNSTRUCTURED_GRID 
POINTS 616 float 
0.249006 0.453432 0.000000 
0.144213 0.114144 0.000000 
0.453233 0.291268 0.000000 
0.079788 0.320114 0.000000 
0.358453 0.097917 0.000000 
0.304512 0.446590 0.000000 
0.144292 0.412325 0.000000 
0.248831 0.072972 0.000000 
0.403147 0.392895 0.000000 
0.079189 0.206804 0.000000 
0.435033 0.180264 0.000000 
0.193476 0.442044 0.000000 
0.194460 0.087770 0.000000 
0.435130 0.345888 0.000000 
0.072451 0.263262 0.000000 
0.403566 0.132187 0.000000 
0.105602 0.370674 0.000000 
0.305529 0.077179 0.000000 
0.359820 0.429728 0.000000 
0.104286 0.154640 0.000000 
0.451894 0.234605 0.000000 
0.220811 0.449167 0.000000 
0.166874 0.097128 0.000000 
0.443250 0.318315 0.000000 
0.076842 0.291150 0.000000 
0.382018 0.113952 0.000000 
0.277133 0.454662 0.000000 
0.121930 0.393919 0.000000 
0.277202 0.071195 0.000000 
0.382278 0.412266 0.000000 
0.091333 0.180523 0.000000 
0.447235 0.206548 0.000000 
0.169349 0.426328 0.000000 
0.220661 0.077272 0.000000 
0.422171 0.371799 0.000000 
0.074574 0.234840 0.000000 
0.418504 0.156798 0.000000 
0.091342 0.345990 0.000000 
0.333656 0.084059 0.000000 
0.333015 0.440766 0.000000 
0.123323 0.133542 0.000000 
0.454066 0.263048 0.000000 
0.236146 0.443129 0.000000 
0.238790 0.425661 0.000000 
0.225941 0.415426 0.000000 
0.254094 0.419690 0.000000 
0.212028 0.422083 0.000000 
0.209542 0.438356 0.000000 
0.197466 0.413721 0.000000 
0.185702 0.426358 0.000000 
0.227468 0.398383 0.000000 
0.257683 0.402961 0.000000 
0.265328 0.430124 0.000000 
0.281307 0.426240 0.000000 
0.262887 0.446398 0.000000 
0.288798 0.441771 0.000000 
0.213468 0.388253 0.000000 
0.243898 0.391896 0.000000 
0.272415 0.398852 0.000000 
0.105630 0.354206 0.000000 
0.120935 0.345371 0.000000 
0.120915 0.328959 0.000000 
0.135154 0.353587 0.000000 
0.106971 0.322171 0.000000 
0.092702 0.330371 0.000000 
0.104140 0.305180 0.000000 
0.086936 0.303861 0.000000 
0.135191 0.319522 0.000000 
0.150469 0.345947 0.000000 
0.133751 0.369382 0.000000 
0.145476 0.382002 0.000000 
0.119509 0.377637 0.000000 
0.138009 0.397550 0.000000 
0.134381 0.302284 0.000000 
0.150525 0.328294 0.000000 
0.163062 0.357648 0.000000 
0.162223 0.411471 0.000000 
0.169932 0.392599 0.000000 
0.387071 0.396525 0.000000 
0.375027 0.383573 0.000000 
0.359021 0.387276 0.000000 
0.379878 0.367888 0.000000 
0.355727 0.402802 0.000000 
0.366928 0.414857 0.000000 
0.340813 0.411432 0.000000 
0.343375 0.428491 0.000000 
0.346643 0.375471 0.000000 
0.369030 0.354679 0.000000 
0.395608 0.365735 0.000000 
0.405313 0.351496 0.000000 
0.406832 0.377788 0.000000 
0.422120 0.355310 0.000000 
0.330023 0.380119 0.000000 
0.351805 0.358572 0.000000 
0.377660 0.339782 0.000000 
0.084007 0.276321 0.000000 
0.114767 0.276048 0.000000 
0.139394 0.129896 0.000000 
0.151422 0.142838 0.000000 
0.167427 0.139160 0.000000 
0.146576 0.158524 0.000000 
0.170942 0.124067 0.000000 
0.159758 0.111987 0.000000 
0.186881 0.117523 0.000000 
0.184322 0.100465 0.000000 
0.179812 0.150968 0.000000 
0.157446 0.171740 0.000000 
0.130859 0.160679 0.000000 
0.121160 0.174918 0.000000 
0.119632 0.148642 0.000000 
0.104332 0.171111 0.000000 
0.196446 0.146341 0.000000 
0.174673 0.167861 0.000000 
0.151600 0.187983 0.000000 
0.365591 0.112772 0.000000 
0.355657 0.127375 0.000000 
0.362811 0.142157 0.000000 
0.339285 0.126144 0.000000 
0.378226 0.142166 0.000000 
0.387500 0.128574 0.000000 
0.387729 0.155992 0.000000 
0.403786 0.149690 0.000000 
0.354065 0.156857 0.000000 
0.328822 0.139678 0.000000 
0.333676 0.111301 0.000000 
0.317632 0.105016 0.000000 
0.342910 0.097680 0.000000 
0.317596 0.087759 0.000000 
0.362290 0.172038 0.000000 
0.336448 0.155612 0.000000 
0.311683 0.137599 0.000000 
0.444738 0.249454 0.000000 
0.427115 0.250794 0.000000 
0.420029 0.265609 0.000000 
0.417852 0.237220 0.000000 
0.429638 0.277668 0.000000 
0.446053 0.276444 0.000000 
0.424751 0.293724 0.000000 
0.439674 0.302355 0.000000 
0.403076 0.267941 0.000000 
0.400736 0.237480 0.000000 
0.425952 0.223573 0.000000 
0.420840 0.207103 0.000000 
0.442371 0.222298 0.000000 
0.434308 0.196306 0.000000 
0.396340 0.283840 0.000000 
0.393050 0.253379 0.000000 
0.394445 0.221463 0.000000 
0.418502 0.173273 0.000000 
0.403378 0.186948 0.000000 
0.210515 0.091454 0.000000 
0.219059 0.122521 0.000000 
0.290064 0.081488 0.000000 
0.282568 0.097037 0.000000 
0.081751 0.249666 0.000000 
0.097930 0.252107 0.000000 
0.107170 0.238532 0.000000 
0.100184 0.268802 0.000000 
0.100490 0.223785 0.000000 
0.084075 0.222532 0.000000 
0.105572 0.207320 0.000000 
0.092097 0.196549 0.000000 
0.124282 0.238769 0.000000 
0.135400 0.221640 0.000000 
0.129626 0.259587 0.000000 
0.235985 0.083290 0.000000 
0.238635 0.100764 0.000000 
0.253923 0.106731 0.000000 
0.222868 0.106694 0.000000 
0.265392 0.095769 0.000000 
0.262952 0.079485 0.000000 
0.288860 0.113857 0.000000 
0.255946 0.125182 0.000000 
0.273702 0.131037 0.000000 
0.236849 0.135042 0.000000 
0.430342 0.328590 0.000000 
0.410246 0.325286 0.000000 
0.315722 0.434486 0.000000 
0.312769 0.411335 0.000000 
0.197381 0.396925 0.000000 
0.327493 0.400556 0.000000 
0.380540 0.171159 0.000000 
0.117276 0.294728 0.000000 
0.200000 0.127991 0.000000 
0.408406 0.297563 0.000000 
0.275847 0.381899 0.000000 
0.366553 0.326533 0.000000 
0.301242 0.151402 0.000000 
0.178471 0.349756 0.000000 
0.162730 0.201239 0.000000 
0.377148 0.221906 0.000000 
0.215181 0.371042 0.000000 
0.317638 0.368054 0.000000 
0.353281 0.186815 0.000000 
0.148922 0.292889 0.000000 
0.208842 0.158408 0.000000 
0.379171 0.286008 0.000000 
0.284802 0.411695 0.000000 
0.398228 0.338766 0.000000 
0.306102 0.117780 0.000000 
0.159474 0.377909 0.000000 
0.131036 0.189003 0.000000 
0.406446 0.204737 0.000000 
0.264484 0.369015 0.000000 
0.179782 0.198219 0.000000 
0.357294 0.204169 0.000000 
0.343159 0.216976 0.000000 
0.343207 0.233305 0.000000 
0.329018 0.208810 0.000000 
0.361624 0.237409 0.000000 
0.329029 0.242846 0.000000 
0.313689 0.216359 0.000000 
0.334629 0.190795 0.000000 
0.329954 0.260089 0.000000 
0.313652 0.234065 0.000000 
0.299194 0.206975 0.000000 
0.345780 0.272048 0.000000 
0.315484 0.269586 0.000000 
0.283763 0.214792 0.000000 
0.296704 0.187301 0.000000 
0.247261 0.374904 0.000000 
0.268853 0.352381 0.000000 
0.185886 0.181086 0.000000 
0.300021 0.261778 0.000000 
0.254138 0.342467 0.000000 
0.286779 0.351856 0.000000 
0.299841 0.368107 0.000000 
0.285526 0.271253 0.000000 
0.299113 0.243502 0.000000 
0.235050 0.348377 0.000000 
0.286495 0.288552 0.000000 
0.270058 0.263422 0.000000 
0.301963 0.296378 0.000000 
0.271996 0.298023 0.000000 
0.255562 0.272894 0.000000 
0.269159 0.244059 0.000000 
0.316455 0.286884 0.000000 
0.273040 0.316477 0.000000 
0.256526 0.290190 0.000000 
0.242026 0.299659 0.000000 
0.240586 0.316787 0.000000 
0.256141 0.325778 0.000000 
0.220036 0.327443 0.000000 
0.226561 0.291828 0.000000 
0.208072 0.301275 0.000000 
0.225603 0.274537 0.000000 
0.202981 0.319758 0.000000 
0.182430 0.329388 0.000000 
0.186724 0.292735 0.000000 
0.210148 0.266714 0.000000 
0.240101 0.265067 0.000000 
0.189757 0.275463 0.000000 
0.209192 0.249425 0.000000 
0.239143 0.247776 0.000000 
0.192268 0.235176 0.000000 
0.223689 0.239955 0.000000 
0.222733 0.222665 0.000000 
0.208949 0.210902 0.000000 
0.213283 0.190355 0.000000 
0.237225 0.213192 0.000000 
0.231579 0.193196 0.000000 
0.252741 0.218943 0.000000 
0.268243 0.207949 0.000000 
0.307951 0.172642 0.000000 
0.204047 0.357140 0.000000 
0.216502 0.342343 0.000000 
0.230185 0.152578 0.000000 
0.346743 0.328208 0.000000 
0.340620 0.345354 0.000000 
0.333257 0.315786 0.000000 
0.315667 0.321307 0.000000 
0.311613 0.338569 0.000000 
0.293112 0.340186 0.000000 
0.287177 0.323477 0.000000 
0.301590 0.312846 0.000000 
0.146679 0.268875 0.000000 
0.368099 0.299965 0.000000 
0.348540 0.292494 0.000000 
0.253703 0.236236 0.000000 
0.293283 0.381521 0.000000 
0.299074 0.401858 0.000000 
0.154198 0.218959 0.000000 
0.192982 0.213944 0.000000 
0.283717 0.233609 0.000000 
0.280507 0.148762 0.000000 
0.232547 0.364184 0.000000 
0.203418 0.176262 0.000000 
0.377141 0.312648 0.000000 
0.400275 0.312433 0.000000 
0.372864 0.204988 0.000000 
0.387099 0.186758 0.000000 
0.166284 0.301461 0.000000 
0.189649 0.363137 0.000000 
0.184698 0.385714 0.000000 
0.323080 0.350193 0.000000 
0.364095 0.269600 0.000000 
0.333688 0.297833 0.000000 
0.326015 0.174771 0.000000 
0.167077 0.319625 0.000000 
0.371238 0.252866 0.000000 
0.279246 0.179747 0.000000 
0.266216 0.192581 0.000000 
0.269754 0.162455 0.000000 
0.245066 0.183580 0.000000 
0.123370 0.204939 0.000000 
0.246563 0.164210 0.000000 
0.177349 0.252294 0.000000 
0.160132 0.245375 0.000000 
0.722655 0.927035 0.000000 
0.617754 0.587703 0.000000 
0.926701 0.764963 0.000000 
0.553378 0.793861 0.000000 
0.832135 0.571617 0.000000 
0.778120 0.920136 0.000000 
0.617975 0.886069 0.000000 
0.722492 0.546543 0.000000 
0.876678 0.866474 0.000000 
0.552696 0.680425 0.000000 
0.908642 0.654021 0.000000 
0.667141 0.915735 0.000000 
0.668044 0.561283 0.000000 
0.908671 0.819488 0.000000 
0.545942 0.736937 0.000000 
0.877222 0.605926 0.000000 
0.579262 0.844432 0.000000 
0.779188 0.550818 0.000000 
0.833331 0.903297 0.000000 
0.577829 0.628188 0.000000 
0.925407 0.708314 0.000000 
0.694462 0.922800 0.000000 
0.640428 0.570652 0.000000 
0.916741 0.791965 0.000000 
0.550366 0.764853 0.000000 
0.855693 0.587676 0.000000 
0.750780 0.928244 0.000000 
0.595619 0.867684 0.000000 
0.750863 0.544803 0.000000 
0.855789 0.885870 0.000000 
0.564876 0.654100 0.000000 
0.920806 0.680292 0.000000 
0.643019 0.900037 0.000000 
0.694293 0.550781 0.000000 
0.895713 0.845376 0.000000 
0.548054 0.708501 0.000000 
0.892142 0.630542 0.000000 
0.564966 0.819750 0.000000 
0.807317 0.557727 0.000000 
0.806559 0.914313 0.000000 
0.596864 0.607088 0.000000 
0.927542 0.736739 0.000000 
0.709792 0.916746 0.000000 
0.712407 0.899264 0.000000 
0.699553 0.889047 0.000000 
[...]
POINT_DATA 616 
VECTORS X_GC float 
0.249006 0.453432 0.000000 
0.144213 0.114144 0.000000 
0.453233 0.291268 0.000000 
0.079788 0.320114 0.000000 
0.358453 0.097917 0.000000 
0.304512 0.446590 0.000000 
0.144292 0.412325 0.000000 
0.248831 0.072972 0.000000 
0.403147 0.392895 0.000000 
0.079189 0.206804 0.000000 
0.435033 0.180264 0.000000 
0.193476 0.442044 0.000000 
0.194460 0.087770 0.000000 
0.435130 0.345888 0.000000 
0.072451 0.263262 0.000000 
0.403566 0.132187 0.000000 
0.105602 0.370674 0.000000 
0.305529 0.077179 0.000000 
0.359820 0.429728 0.000000 
0.104286 0.154640 0.000000 
0.451894 0.234605 0.000000 
0.220811 0.449167 0.000000 
0.166874 0.097128 0.000000 
0.443250 0.318315 0.000000 
0.076842 0.291150 0.000000 
0.382018 0.113952 0.000000 
0.277133 0.454662 0.000000 
0.121930 0.393919 0.000000 
0.277202 0.071195 0.000000 
0.382278 0.412266 0.000000 
0.091333 0.180523 0.000000 
0.447235 0.206548 0.000000 
0.169349 0.426328 0.000000 
0.220661 0.077272 0.000000 
0.422171 0.371799 0.000000 
0.074574 0.234840 0.000000 
0.418504 0.156798 0.000000 
0.091342 0.345990 0.000000 
0.333656 0.084059 0.000000 
0.333015 0.440766 0.000000 
0.123323 0.133542 0.000000 
0.454066 0.263048 0.000000 
0.236146 0.443129 0.000000 
0.238790 0.425661 0.000000 
0.225941 0.415426 0.000000 
0.254094 0.419690 0.000000 
0.212028 0.422083 0.000000 
0.209542 0.438356 0.000000 
0.197466 0.413721 0.000000 
0.185702 0.426358 0.000000 
0.227468 0.398383 0.000000 
0.257683 0.402961 0.000000 
0.265328 0.430124 0.000000 
0.281307 0.426240 0.000000 
0.262887 0.446398 0.000000 
0.288798 0.441771 0.000000 
0.213468 0.388253 0.000000 
0.243898 0.391896 0.000000 
0.272415 0.398852 0.000000 
0.105630 0.354206 0.000000 
0.120935 0.345371 0.000000 
0.120915 0.328959 0.000000 
0.135154 0.353587 0.000000 
0.106971 0.322171 0.000000 
0.092702 0.330371 0.000000 
0.104140 0.305180 0.000000 
0.086936 0.303861 0.000000 
0.135191 0.319522 0.000000 
0.150469 0.345947 0.000000 
0.133751 0.369382 0.000000 
0.145476 0.382002 0.000000 
0.119509 0.377637 0.000000 
0.138009 0.397550 0.000000 
0.134381 0.302284 0.000000 
0.150525 0.328294 0.000000 
0.163062 0.357648 0.000000 
0.162223 0.411471 0.000000 
0.169932 0.392599 0.000000 
0.387071 0.396525 0.000000 
0.375027 0.383573 0.000000 
0.359021 0.387276 0.000000 
0.379878 0.367888 0.000000 
0.355727 0.402802 0.000000 
0.366928 0.414857 0.000000 
0.340813 0.411432 0.000000 
0.343375 0.428491 0.000000 
0.346643 0.375471 0.000000 
0.369030 0.354679 0.000000 
0.395608 0.365735 0.000000 
0.405313 0.351496 0.000000 
0.406832 0.377788 0.000000 
0.422120 0.355310 0.000000 
0.330023 0.380119 0.000000 
0.351805 0.358572 0.000000 
0.377660 0.339782 0.000000 
0.084007 0.276321 0.000000 
0.114767 0.276048 0.000000 
0.139394 0.129896 0.000000 
0.151422 0.142838 0.000000 
0.167427 0.139160 0.000000 
0.146576 0.158524 0.000000 
0.170942 0.124067 0.000000 
0.159758 0.111987 0.000000 
0.186881 0.117523 0.000000 
0.184322 0.100465 0.000000 
0.179812 0.150968 0.000000 
0.157446 0.171740 0.000000 
0.130859 0.160679 0.000000 
0.121160 0.174918 0.000000 
0.119632 0.148642 0.000000 
0.104332 0.171111 0.000000 
0.196446 0.146341 0.000000 
0.174673 0.167861 0.000000 
0.151600 0.187983 0.000000 
0.365591 0.112772 0.000000 
0.355657 0.127375 0.000000 
0.362811 0.142157 0.000000 
0.339285 0.126144 0.000000 
0.378226 0.142166 0.000000 
0.387500 0.128574 0.000000 
0.387729 0.155992 0.000000 
0.403786 0.149690 0.000000 
0.354065 0.156857 0.000000 
0.328822 0.139678 0.000000 
0.333676 0.111301 0.000000 
0.317632 0.105016 0.000000 
0.342910 0.097680 0.000000 
0.317596 0.087759 0.000000 
0.362290 0.172038 0.000000 
0.336448 0.155612 0.000000 
0.311683 0.137599 0.000000 
0.444738 0.249454 0.000000 
0.427115 0.250794 0.000000 
0.420029 0.265609 0.000000 
0.417852 0.237220 0.000000 
0.429638 0.277668 0.000000 
0.446053 0.276444 0.000000 
0.424751 0.293724 0.000000 
0.439674 0.302355 0.000000 
0.403076 0.267941 0.000000 
0.400736 0.237480 0.000000 
0.425952 0.223573 0.000000 
0.420840 0.207103 0.000000 
0.442371 0.222298 0.000000 
0.434308 0.196306 0.000000 
0.396340 0.283840 0.000000 
0.393050 0.253379 0.000000 
0.394445 0.221463 0.000000 
0.418502 0.173273 0.000000 
0.403378 0.186948 0.000000 
0.210515 0.091454 0.000000 
0.219059 0.122521 0.000000 
0.290064 0.081488 0.000000 
0.282568 0.097037 0.000000 
0.081751 0.249666 0.000000 
0.097930 0.252107 0.000000 
0.107170 0.238532 0.000000 
0.100184 0.268802 0.000000 
0.100490 0.223785 0.000000 
0.084075 0.222532 0.000000 
0.105572 0.207320 0.000000 
0.092097 0.196549 0.000000 
0.124282 0.238769 0.000000 
0.135400 0.221640 0.000000 
0.129626 0.259587 0.000000 
0.235985 0.083290 0.000000 
0.238635 0.100764 0.000000 
0.253923 0.106731 0.000000 
0.222868 0.106694 0.000000 
0.265392 0.095769 0.000000 
0.262952 0.079485 0.000000 
0.288860 0.113857 0.000000 
0.255946 0.125182 0.000000 
0.273702 0.131037 0.000000 
0.236849 0.135042 0.000000 
0.430342 0.328590 0.000000 
0.410246 0.325286 0.000000 
0.315722 0.434486 0.000000 
0.312769 0.411335 0.000000 
0.197381 0.396925 0.000000 
0.327493 0.400556 0.000000 
0.380540 0.171159 0.000000 
0.117276 0.294728 0.000000 
0.200000 0.127991 0.000000 
0.408406 0.297563 0.000000 
0.275847 0.381899 0.000000 
0.366553 0.326533 0.000000 
0.301242 0.151402 0.000000 
0.178471 0.349756 0.000000 
0.162730 0.201239 0.000000 
0.377148 0.221906 0.000000 
0.215181 0.371042 0.000000 
0.317638 0.368054 0.000000 
0.353281 0.186815 0.000000 
0.148922 0.292889 0.000000 
0.208842 0.158408 0.000000 
0.379171 0.286008 0.000000 
0.284802 0.411695 0.000000 
0.398228 0.338766 0.000000 
0.306102 0.117780 0.000000 
0.159474 0.377909 0.000000 
0.131036 0.189003 0.000000 
0.406446 0.204737 0.000000 
0.264484 0.369015 0.000000 
0.179782 0.198219 0.000000 
0.357294 0.204169 0.000000 
0.343159 0.216976 0.000000 
0.343207 0.233305 0.000000 
0.329018 0.208810 0.000000 
0.361624 0.237409 0.000000 
0.329029 0.242846 0.000000 
0.313689 0.216359 0.000000 
0.334629 0.190795 0.000000 
0.329954 0.260089 0.000000 
0.313652 0.234065 0.000000 
0.299194 0.206975 0.000000 
0.345780 0.272048 0.000000 
0.315484 0.269586 0.000000 
0.283763 0.214792 0.000000 
0.296704 0.187301 0.000000 
0.247261 0.374904 0.000000 
0.268853 0.352381 0.000000 
0.185886 0.181086 0.000000 
0.300021 0.261778 0.000000 
0.254138 0.342467 0.000000 
0.286779 0.351856 0.000000 
0.299841 0.368107 0.000000 
0.285526 0.271253 0.000000 
0.299113 0.243502 0.000000 
0.235050 0.348377 0.000000 
0.286495 0.288552 0.000000 
0.270058 0.263422 0.000000 
0.301963 0.296378 0.000000 
0.271996 0.298023 0.000000 
0.255562 0.272894 0.000000 
0.269159 0.244059 0.000000 
0.316455 0.286884 0.000000 
0.273040 0.316477 0.000000 
0.256526 0.290190 0.000000 
0.242026 0.299659 0.000000 
0.240586 0.316787 0.000000 
0.256141 0.325778 0.000000 
0.220036 0.327443 0.000000 
0.226561 0.291828 0.000000 
0.208072 0.301275 0.000000 
0.225603 0.274537 0.000000 
0.202981 0.319758 0.000000 
0.182430 0.329388 0.000000 
0.186724 0.292735 0.000000 
0.210148 0.266714 0.000000 
0.240101 0.265067 0.000000 
0.189757 0.275463 0.000000 
0.209192 0.249425 0.000000 
0.239143 0.247776 0.000000 
0.192268 0.235176 0.000000 
0.223689 0.239955 0.000000 
0.222733 0.222665 0.000000 
0.208949 0.210902 0.000000 
0.213283 0.190355 0.000000 
0.237225 0.213192 0.000000 
0.231579 0.193196 0.000000 
0.252741 0.218943 0.000000 
0.268243 0.207949 0.000000 
0.307951 0.172642 0.000000 
0.204047 0.357140 0.000000 
0.216502 0.342343 0.000000 
0.230185 0.152578 0.000000 
0.346743 0.328208 0.000000 
0.340620 0.345354 0.000000 
0.333257 0.315786 0.000000 
0.315667 0.321307 0.000000 
0.311613 0.338569 0.000000 
0.293112 0.340186 0.000000 
0.287177 0.323477 0.000000 
0.301590 0.312846 0.000000 
0.146679 0.268875 0.000000 
0.368099 0.299965 0.000000 
0.348540 0.292494 0.000000 
0.253703 0.236236 0.000000 
0.293283 0.381521 0.000000 
0.299074 0.401858 0.000000 
0.154198 0.218959 0.000000 
0.192982 0.213944 0.000000 
0.283717 0.233609 0.000000 
0.280507 0.148762 0.000000 
0.232547 0.364184 0.000000 
0.203418 0.176262 0.000000 
0.377141 0.312648 0.000000 
0.400275 0.312433 0.000000 
0.372864 0.204988 0.000000 
0.387099 0.186758 0.000000 
0.166284 0.301461 0.000000 
0.189649 0.363137 0.000000 
0.184698 0.385714 0.000000 
0.323080 0.350193 0.000000 
0.364095 0.269600 0.000000 
0.333688 0.297833 0.000000 
0.326015 0.174771 0.000000 
0.167077 0.319625 0.000000 
0.371238 0.252866 0.000000 
0.279246 0.179747 0.000000 
0.266216 0.192581 0.000000 
0.269754 0.162455 0.000000 
0.245066 0.183580 0.000000 
0.123370 0.204939 0.000000 
0.246563 0.164210 0.000000 
0.177349 0.252294 0.000000 
0.160132 0.245375 0.000000 
0.722655 0.927035 0.000000 
0.617754 0.587703 0.000000 
0.926701 0.764963 0.000000 
0.553378 0.793861 0.000000 
0.832135 0.571617 0.000000 
0.778120 0.920136 0.000000 
0.617975 0.886069 0.000000 
0.722492 0.546543 0.000000 
0.876678 0.866474 0.000000 
0.552696 0.680425 0.000000 
0.908642 0.654021 0.000000 
0.667141 0.915735 0.000000 
0.668044 0.561283 0.000000 
0.908671 0.819488 0.000000 
0.545942 0.736937 0.000000 
0.877222 0.605926 0.000000 
0.579262 0.844432 0.000000 
0.779188 0.550818 0.000000 
0.833331 0.903297 0.000000 
0.577829 0.628188 0.000000 
0.925407 0.708314 0.000000 
0.694462 0.922800 0.000000 
0.640428 0.570652 0.000000 
0.916741 0.791965 0.000000 
0.550366 0.764853 0.000000 
0.855693 0.587676 0.000000 
0.750780 0.928244 0.000000 
0.595619 0.867684 0.000000 
0.750863 0.544803 0.000000 
0.855789 0.885870 0.000000 
0.564876 0.654100 0.000000 
0.920806 0.680292 0.000000 
0.643019 0.900037 0.000000 
0.694293 0.550781 0.000000 
0.895713 0.845376 0.000000 
0.548054 0.708501 0.000000 
0.892142 0.630542 0.000000 
0.564966 0.819750 0.000000 
0.807317 0.557727 0.000000 
0.806559 0.914313 0.000000 
0.596864 0.607088 0.000000 
0.927542 0.736739 0.000000 
0.709792 0.916746 0.000000 
0.712407 0.899264 0.000000 
0.699553 0.889047 0.000000 
0.727690 0.893272 0.000000 
0.685658 0.895732 0.000000 
0.683194 0.912016 0.000000 
0.671098 0.887403 0.000000 
0.659359 0.900050 0.000000 
0.701057 0.872005 0.000000 
0.731245 0.876537 0.000000 
0.738935 0.903692 0.000000 
0.754894 0.899789 0.000000 
0.736522 0.919979 0.000000 
0.762414 0.915322 0.000000 
0.687062 0.861900 0.000000 
0.717467 0.865488 0.000000 
0.745956 0.872407 0.000000 
0.579259 0.827947 0.000000 
0.594544 0.819085 0.000000 
0.594504 0.802654 0.000000 
0.608763 0.827291 0.000000 
0.580555 0.795873 0.000000 
0.566294 0.804102 0.000000 
0.577704 0.778865 0.000000 
0.560495 0.777570 0.000000 
0.608764 0.793196 0.000000 
0.624063 0.819632 0.000000 
0.607382 0.843101 0.000000 
0.619120 0.855726 0.000000 
0.593165 0.851383 0.000000 
0.611678 0.871290 0.000000 
0.607932 0.775942 0.000000 
0.624105 0.801967 0.000000 
0.636666 0.831333 0.000000 
0.635882 0.885183 0.000000 
0.643569 0.866306 0.000000 
0.860607 0.870118 0.000000 
0.848577 0.857175 0.000000 
0.832572 0.860851 0.000000 
0.853421 0.841490 0.000000 
0.829262 0.876361 0.000000 
0.840449 0.888440 0.000000 
0.814344 0.884978 0.000000 
0.816904 0.902037 0.000000 
0.820186 0.849042 0.000000 
0.842552 0.828273 0.000000 
0.869140 0.839334 0.000000 
0.878837 0.825096 0.000000 
0.880368 0.851374 0.000000 
0.895666 0.828904 0.000000 
0.803552 0.853666 0.000000 
0.825325 0.832149 0.000000 
0.851162 0.813394 0.000000 
0.557521 0.750000 0.000000 
0.588284 0.749697 0.000000 
0.612944 0.603451 0.000000 
0.624976 0.616410 0.000000 
0.640986 0.612715 0.000000 
0.620121 0.632098 0.000000 
0.644502 0.597602 0.000000 
0.633311 0.585537 0.000000 
0.660445 0.591053 0.000000 
0.657890 0.573980 0.000000 
0.653361 0.624527 0.000000 
0.630966 0.645307 0.000000 
0.604392 0.634255 0.000000 
0.594691 0.648494 0.000000 
0.593168 0.622196 0.000000 
0.577885 0.644679 0.000000 
0.669996 0.619888 0.000000 
0.648197 0.641424 0.000000 
0.625100 0.661568 0.000000 
0.839254 0.586470 0.000000 
0.829293 0.601060 0.000000 
0.836437 0.615842 0.000000 
0.812916 0.599814 0.000000 
0.851860 0.615868 0.000000 
0.861151 0.602290 0.000000 
0.861355 0.629699 0.000000 
0.877424 0.623420 0.000000 
0.827678 0.630531 0.000000 
0.802437 0.613336 0.000000 
0.807321 0.584967 0.000000 
0.791276 0.578667 0.000000 
0.816579 0.571358 0.000000 
0.791254 0.561414 0.000000 
0.835889 0.645714 0.000000 
0.810056 0.629270 0.000000 
0.785294 0.611237 0.000000 
0.918235 0.723147 0.000000 
0.900621 0.724478 0.000000 
0.893511 0.739279 0.000000 
0.891383 0.710907 0.000000 
0.903105 0.751345 0.000000 
0.919519 0.750129 0.000000 
0.898205 0.767390 0.000000 
0.913136 0.776026 0.000000 
0.876555 0.741594 0.000000 
0.874271 0.711150 0.000000 
0.899504 0.697279 0.000000 
0.894417 0.680820 0.000000 
0.915915 0.696018 0.000000 
0.907891 0.670048 0.000000 
0.869799 0.757481 0.000000 
0.866556 0.727037 0.000000 
0.868008 0.695144 0.000000 
0.892119 0.647012 0.000000 
0.876987 0.660662 0.000000 
0.684114 0.564971 0.000000 
0.692631 0.596065 0.000000 
0.763719 0.555113 0.000000 
0.756206 0.570646 0.000000 
0.555237 0.723330 0.000000 
0.571420 0.725755 0.000000 
0.580648 0.712167 0.000000 
0.573693 0.742458 0.000000 
0.573961 0.697418 0.000000 
0.557553 0.696176 0.000000 
0.579060 0.680932 0.000000 
0.565607 0.670153 0.000000 
0.597755 0.712390 0.000000 
0.608866 0.695251 0.000000 
0.603117 0.733216 0.000000 
0.709621 0.556834 0.000000 
0.712247 0.574314 0.000000 
0.727534 0.580303 0.000000 
0.696461 0.580228 0.000000 
0.739021 0.569352 0.000000 
0.736602 0.553069 0.000000 
0.762480 0.587473 0.000000 
0.729536 0.598763 0.000000 
0.747299 0.604636 0.000000 
0.710425 0.608601 0.000000 
0.903838 0.802222 0.000000 
0.883726 0.798911 0.000000 
0.789290 0.908024 0.000000 
0.786311 0.884870 0.000000 
0.670998 0.870613 0.000000 
0.801020 0.874094 0.000000 
0.854147 0.644856 0.000000 
0.590821 0.768391 0.000000 
0.673558 0.601528 0.000000 
0.881853 0.771211 0.000000 
0.749375 0.855444 0.000000 
0.840031 0.800138 0.000000 
0.774840 0.625024 0.000000 
0.652061 0.823424 0.000000 
0.636208 0.674824 0.000000 
0.850703 0.695572 0.000000 
0.688764 0.844679 0.000000 
0.791153 0.841596 0.000000 
0.826875 0.660481 0.000000 
0.622455 0.766531 0.000000 
0.682380 0.631958 0.000000 
0.852627 0.759641 0.000000 
0.758360 0.885238 0.000000 
0.871725 0.812374 0.000000 
0.779727 0.591416 0.000000 
0.633099 0.851610 0.000000 
0.604538 0.662594 0.000000 
0.880034 0.678441 0.000000 
0.738010 0.842573 0.000000 
0.653259 0.671790 0.000000 
0.830872 0.677830 0.000000 
0.816716 0.690617 0.000000 
0.816739 0.706937 0.000000 
0.802584 0.682441 0.000000 
0.835154 0.711060 0.000000 
0.802549 0.716456 0.000000 
0.787236 0.689968 0.000000 
0.808211 0.664441 0.000000 
0.803450 0.733690 0.000000 
0.787176 0.707667 0.000000 
0.772746 0.680574 0.000000 
0.819257 0.745658 0.000000 
0.788969 0.743166 0.000000 
0.757291 0.688376 0.000000 
0.770275 0.660906 0.000000 
0.720813 0.848487 0.000000 
0.742367 0.825936 0.000000 
0.659384 0.654646 0.000000 
0.773515 0.735349 0.000000 
0.727660 0.816035 0.000000 
0.760283 0.825395 0.000000 
0.773353 0.841639 0.000000 
0.759013 0.744816 0.000000 
0.772622 0.717082 0.000000 
0.708599 0.821974 0.000000 
0.759971 0.762107 0.000000 
0.743555 0.736993 0.000000 
0.775425 0.769927 0.000000 
0.745476 0.771579 0.000000 
0.729053 0.746464 0.000000 
0.742657 0.717632 0.000000 
0.789921 0.760453 0.000000 
0.746533 0.790032 0.000000 
0.730018 0.763758 0.000000 
0.715527 0.773232 0.000000 
0.714108 0.790369 0.000000 
0.729655 0.799346 0.000000 
0.693589 0.801056 0.000000 
0.700070 0.765413 0.000000 
0.681597 0.774885 0.000000 
0.699099 0.748116 0.000000 
0.676533 0.793389 0.000000 
0.656002 0.803042 0.000000 
0.660249 0.766359 0.000000 
0.683636 0.740303 0.000000 
0.713590 0.738640 0.000000 
0.663260 0.749074 0.000000 
0.682665 0.723004 0.000000 
0.712624 0.721345 0.000000 
0.665728 0.708757 0.000000 
0.697157 0.713519 0.000000 
0.696198 0.696223 0.000000 
0.682421 0.684464 0.000000 
0.686779 0.663911 0.000000 
0.710713 0.686753 0.000000 
0.705080 0.666751 0.000000 
0.726236 0.692510 0.000000 
0.741768 0.681527 0.000000 
0.781535 0.646264 0.000000 
0.677625 0.830790 0.000000 
0.690062 0.815964 0.000000 
0.703739 0.626132 0.000000 
0.820219 0.801790 0.000000 
0.814115 0.818924 0.000000 
0.806722 0.789354 0.000000 
0.789139 0.794858 0.000000 
0.785101 0.812113 0.000000 
0.766605 0.813723 0.000000 
0.760663 0.797021 0.000000 
0.775060 0.786389 0.000000 
0.620177 0.742500 0.000000 
0.841548 0.773582 0.000000 
0.821996 0.766097 0.000000 
0.727190 0.709806 0.000000 
0.766803 0.855052 0.000000 
0.772606 0.875388 0.000000 
0.627661 0.692557 0.000000 
0.666447 0.687512 0.000000 
0.757225 0.707187 0.000000 
0.754094 0.622362 0.000000 
0.706106 0.837785 0.000000 
0.676929 0.649816 0.000000 
0.850603 0.786271 0.000000 
0.873735 0.786061 0.000000 
0.846445 0.678664 0.000000 
0.860704 0.660457 0.000000 
0.639825 0.775103 0.000000 
0.663242 0.836806 0.000000 
0.658316 0.859409 0.000000 
0.796579 0.823742 0.000000 
0.837572 0.743232 0.000000 
0.807140 0.771411 0.000000 
0.799607 0.648413 0.000000 
0.640643 0.793283 0.000000 
0.844744 0.726516 0.000000 
0.752807 0.653343 0.000000 
0.739754 0.666162 0.000000 
0.743318 0.636039 0.000000 
0.718590 0.657144 0.000000 
0.596852 0.678540 0.000000 
0.720114 0.637778 0.000000 
0.650826 0.725899 0.000000 
0.633598 0.718979 0.000000 
VECTORS X_EC float 
-0.068635 -0.019887 0.000000 
0.717119 -0.115734 0.000000 
-0.825352 0.064654 0.000000 
0.597729 0.595769 0.000000 
-0.958336 0.169051 0.000000 
0.068197 -0.909758 0.000000 
0.753508 -0.114162 0.000000 
-0.459449 -0.023384 0.000000 
-0.857891 -0.937052 0.000000 
0.863915 0.583772 0.000000 
-0.605282 -0.299345 0.000000 
0.159123 0.869516 0.000000 
-0.755409 0.889206 0.000000 
0.082244 -0.297407 0.000000 
-0.265242 0.449015 0.000000 
0.356252 -0.928689 0.000000 
-0.413489 -0.887967 0.000000 
-0.543576 -0.889413 0.000000 
0.405443 0.196407 0.000000 
-0.092801 -0.914277 0.000000 
0.307898 0.037877 0.000000 
0.016664 -0.583775 0.000000 
-0.942561 0.337477 0.000000 
0.633699 -0.134997 0.000000 
-0.822990 0.536835 0.000000 
0.720961 0.640358 0.000000 
-0.093247 0.542662 0.000000 
-0.878386 -0.561408 0.000000 
-0.423897 0.544043 0.000000 
0.754684 0.645570 0.000000 
-0.610450 0.826665 0.000000 
0.869044 -0.055299 0.000000 
0.473446 0.386989 0.000000 
-0.545430 -0.586770 0.000000 
-0.435977 -0.556587 0.000000 
0.303210 0.491490 0.000000 
-0.135952 -0.629918 0.000000 
0.080201 0.826836 0.000000 
-0.681172 -0.326874 0.000000 
0.184674 -0.339692 0.000000 
0.329158 -0.533537 0.000000 
-0.260951 0.081326 0.000000 
0.137414 -0.277090 0.000000 
0.486778 -0.224191 0.000000 
0.691489 -0.481183 0.000000 
0.606208 0.081883 0.000000 
0.558343 -0.759449 0.000000 
0.232888 -0.809152 0.000000 
0.725581 0.949310 0.000000 
0.472841 0.714045 0.000000 
-0.967668 -0.450639 0.000000 
0.940771 0.153656 0.000000 
0.397526 0.306565 0.000000 
0.475191 0.626149 0.000000 
0.072042 0.257736 0.000000 
0.164577 0.775961 0.000000 
-0.765054 -0.730649 0.000000 
-0.837927 -0.122030 0.000000 
-0.977033 0.448298 0.000000 
-0.084114 -0.887396 0.000000 
0.092570 -0.581302 0.000000 
0.420812 -0.581698 0.000000 
-0.071744 -0.296912 0.000000 
0.556581 -0.860586 0.000000 
0.392586 0.854048 0.000000 
0.896406 -0.917196 0.000000 
0.922789 0.738718 0.000000 
0.609558 -0.296187 0.000000 
0.081058 0.009376 0.000000 
-0.387649 -0.324982 0.000000 
-0.640049 -0.090471 0.000000 
-0.552733 -0.609827 0.000000 
-0.950992 -0.239813 0.000000 
0.954327 -0.312389 0.000000 
0.434117 0.010498 0.000000 
-0.152958 0.261239 0.000000 
0.770576 0.244469 0.000000 
-0.851989 0.398643 0.000000 
-0.930501 0.741417 0.000000 
-0.671463 0.500539 0.000000 
-0.745526 0.180419 0.000000 
-0.357764 0.597551 0.000000 
0.943963 0.114542 0.000000 
0.702853 0.338570 0.000000 
0.771366 -0.183750 0.000000 
0.430186 -0.132509 0.000000 
-0.509417 -0.067137 0.000000 
-0.093586 0.380602 0.000000 
-0.314695 0.912155 0.000000 
-0.029918 -0.893748 0.000000 
-0.555754 -0.863362 0.000000 
-0.106207 -0.557608 0.000000 