# vtk DataFile Version 3.0 
vtk output 
ASCII 
DATASET UNSTRUCTURED_GRID 
POINTS 616 float 
0.294333 0.498634 0.000000 
0.189294 0.159120 0.000000 
0.498359 0.336584 0.000000 
0.125044 0.365474 0.000000 
0.403890 0.143098 0.000000 
0.349777 0.491701 0.000000 
0.189606 0.457732 0.000000 
0.294132 0.118080 0.000000 
0.445273 0.435081 0.000000 
0.124266 0.251990 0.000000 
0.480418 0.225542 0.000000 
0.238797 0.487402 0.000000 
0.239639 0.132769 0.000000 
0.480070 0.390923 0.000000 
0.117603 0.308544 0.000000 
0.448990 0.177413 0.000000 
0.150890 0.416067 0.000000 
0.350906 0.122334 0.000000 
0.404613 0.474465 0.000000 
0.149321 0.199703 0.000000 
0.497128 0.279894 0.000000 
0.266133 0.494450 0.000000 
0.211998 0.142100 0.000000 
0.488316 0.363526 0.000000 
0.122030 0.336462 0.000000 
0.427443 0.159149 0.000000 
0.322460 0.499819 0.000000 
0.167236 0.439332 0.000000 
0.322542 0.116345 0.000000 
0.425172 0.455187 0.000000 
0.136372 0.225646 0.000000 
0.492544 0.251839 0.000000 
0.214663 0.471722 0.000000 
0.265903 0.122308 0.000000 
0.465990 0.415724 0.000000 
0.119692 0.280079 0.000000 
0.463930 0.202057 0.000000 
0.136611 0.391364 0.000000 
0.379063 0.129226 0.000000 
0.378155 0.485810 0.000000 
0.168373 0.178553 0.000000 
0.499224 0.308334 0.000000 
0.281428 0.488354 0.000000 
0.283985 0.470848 0.000000 
0.271112 0.460641 0.000000 
0.299230 0.464813 0.000000 
0.257253 0.467357 0.000000 
0.254832 0.483660 0.000000 
0.242692 0.459035 0.000000 
0.230989 0.471717 0.000000 
0.272561 0.443568 0.000000 
0.302715 0.448043 0.000000 
0.310502 0.475232 0.000000 
0.326400 0.471270 0.000000 
0.308163 0.491549 0.000000 
0.334016 0.486855 0.000000 
0.258566 0.433468 0.000000 
0.288919 0.437004 0.000000 
0.317347 0.443842 0.000000 
0.150893 0.399565 0.000000 
0.166162 0.390696 0.000000 
0.166119 0.374252 0.000000 
0.180373 0.398910 0.000000 
0.152186 0.367472 0.000000 
0.137947 0.375714 0.000000 
0.149336 0.350456 0.000000 
0.132148 0.349174 0.000000 
0.180359 0.364775 0.000000 
0.195653 0.391235 0.000000 
0.179003 0.414740 0.000000 
0.190738 0.427368 0.000000 
0.164788 0.423024 0.000000 
0.183304 0.442951 0.000000 
0.179525 0.347502 0.000000 
0.195683 0.373543 0.000000 
0.208242 0.402941 0.000000 
0.207517 0.456859 0.000000 
0.215175 0.437950 0.000000 
0.429931 0.439403 0.000000 
0.418595 0.427139 0.000000 
0.403030 0.431252 0.000000 
0.423574 0.411593 0.000000 
0.400078 0.447109 0.000000 
0.411123 0.459018 0.000000 
0.385424 0.455999 0.000000 
0.388275 0.473325 0.000000 
0.390598 0.419431 0.000000 
0.412832 0.398444 0.000000 
0.439539 0.409717 0.000000 
0.449700 0.395924 0.000000 
0.450144 0.421180 0.000000 
0.466800 0.400057 0.000000 
0.374223 0.424341 0.000000 
0.395626 0.402391 0.000000 
0.421733 0.383831 0.000000 
0.129173 0.321598 0.000000 
0.159897 0.321257 0.000000 
0.184453 0.174883 0.000000 
0.196467 0.187812 0.000000 
0.212485 0.184128 0.000000 
0.191603 0.203510 0.000000 
0.216027 0.169033 0.000000 
0.204853 0.156954 0.000000 
0.231996 0.162499 0.000000 
0.229463 0.145443 0.000000 
0.224861 0.195932 0.000000 
0.202461 0.216722 0.000000 
0.175885 0.205699 0.000000 
0.166191 0.219974 0.000000 
0.164668 0.193671 0.000000 
0.149365 0.216195 0.000000 
0.241520 0.191307 0.000000 
0.219699 0.212830 0.000000 
0.196618 0.232994 0.000000 
0.411009 0.157946 0.000000 
0.401043 0.172529 0.000000 
0.408183 0.187310 0.000000 
0.384645 0.171279 0.000000 
0.423615 0.187346 0.000000 
0.432912 0.173769 0.000000 
0.433116 0.201187 0.000000 
0.449198 0.194920 0.000000 
0.399402 0.201986 0.000000 
0.374140 0.184787 0.000000 
0.379052 0.156444 0.000000 
0.362991 0.150149 0.000000 
0.388325 0.142846 0.000000 
0.362981 0.132914 0.000000 
0.407606 0.217156 0.000000 
0.381754 0.200715 0.000000 
0.356975 0.182687 0.000000 
0.489921 0.294698 0.000000 
0.472272 0.295951 0.000000 
0.465116 0.310701 0.000000 
0.463041 0.282357 0.000000 
0.474684 0.322788 0.000000 
0.491155 0.321683 0.000000 
0.469694 0.338759 0.000000 
0.484702 0.347536 0.000000 
0.448115 0.312925 0.000000 
0.445905 0.282541 0.000000 
0.471193 0.268766 0.000000 
0.466130 0.252304 0.000000 
0.487631 0.267557 0.000000 
0.479640 0.241566 0.000000 
0.441215 0.328675 0.000000 
0.438151 0.298370 0.000000 
0.439663 0.266541 0.000000 
0.463892 0.218519 0.000000 
0.448719 0.232133 0.000000 
0.255711 0.136468 0.000000 
0.264212 0.167522 0.000000 
0.335414 0.126631 0.000000 
0.327880 0.142145 0.000000 
0.126881 0.294910 0.000000 
0.143048 0.297318 0.000000 
0.152260 0.283705 0.000000 
0.145323 0.314032 0.000000 
0.145568 0.268951 0.000000 
0.129167 0.267732 0.000000 
0.150626 0.252454 0.000000 
0.137145 0.241698 0.000000 
0.169354 0.283906 0.000000 
0.180446 0.266730 0.000000 
0.174713 0.304741 0.000000 
0.281242 0.128356 0.000000 
0.283860 0.145809 0.000000 
0.299162 0.151790 0.000000 
0.268055 0.151712 0.000000 
0.310672 0.140855 0.000000 
0.308259 0.124596 0.000000 
0.334151 0.158947 0.000000 
0.301154 0.170219 0.000000 
0.318934 0.176084 0.000000 
0.282008 0.180049 0.000000 
0.475237 0.373585 0.000000 
0.454890 0.369979 0.000000 
0.360806 0.479469 0.000000 
0.357550 0.456082 0.000000 
0.242557 0.442220 0.000000 
0.372017 0.445064 0.000000 
0.425885 0.216323 0.000000 
0.162435 0.339964 0.000000 
0.245111 0.172968 0.000000 
0.453213 0.342412 0.000000 
0.320650 0.426800 0.000000 
0.410713 0.370633 0.000000 
0.346491 0.196458 0.000000 
0.223592 0.394990 0.000000 
0.207743 0.246250 0.000000 
0.422333 0.266916 0.000000 
0.260218 0.416211 0.000000 
0.361862 0.412329 0.000000 
0.398541 0.231875 0.000000 
0.194029 0.338064 0.000000 
0.253916 0.203376 0.000000 
0.423940 0.330691 0.000000 
0.329756 0.456638 0.000000 
0.442600 0.383161 0.000000 
0.351419 0.162885 0.000000 
0.204706 0.423249 0.000000 
0.176065 0.234058 0.000000 
0.451735 0.249894 0.000000 
0.309311 0.413978 0.000000 
0.224787 0.243203 0.000000 
0.402506 0.249178 0.000000 
0.388290 0.261923 0.000000 
0.388274 0.278199 0.000000 
0.374150 0.253760 0.000000 
0.406720 0.282319 0.000000 
0.374025 0.287686 0.000000 
0.358756 0.261260 0.000000 
0.379836 0.235812 0.000000 
0.374878 0.304870 0.000000 
0.358646 0.278909 0.000000 
0.344268 0.251884 0.000000 
0.390637 0.316769 0.000000 
0.360311 0.314301 0.000000 
0.328766 0.259658 0.000000 
0.341849 0.232267 0.000000 
0.292195 0.419959 0.000000 
0.313604 0.397250 0.000000 
0.230901 0.226053 0.000000 
0.344861 0.306508 0.000000 
0.298968 0.387399 0.000000 
0.331353 0.396514 0.000000 
0.344276 0.412617 0.000000 
0.330292 0.315952 0.000000 
0.344033 0.288292 0.000000 
0.279958 0.393400 0.000000 
0.331201 0.333231 0.000000 
0.314837 0.308147 0.000000 
0.346610 0.340993 0.000000 
0.316716 0.342763 0.000000 
0.300341 0.317652 0.000000 
0.314013 0.288834 0.000000 
0.361150 0.331509 0.000000 
0.317756 0.361243 0.000000 
0.301301 0.334980 0.000000 
0.286852 0.344526 0.000000 
0.285437 0.361705 0.000000 
0.300946 0.370658 0.000000 
0.264974 0.372473 0.000000 
0.271437 0.336742 0.000000 
0.253020 0.346286 0.000000 
0.270473 0.319417 0.000000 
0.247972 0.364837 0.000000 
0.227507 0.374560 0.000000 
0.231738 0.337808 0.000000 
0.255062 0.311644 0.000000 
0.284935 0.309882 0.000000 
0.234739 0.320488 0.000000 
0.254127 0.294356 0.000000 
0.284020 0.292613 0.000000 
0.237249 0.280155 0.000000 
0.268614 0.284849 0.000000 
0.267695 0.267578 0.000000 
0.253938 0.255847 0.000000 
0.258306 0.235305 0.000000 
0.282201 0.258091 0.000000 
0.276604 0.238131 0.000000 
0.297691 0.263803 0.000000 
0.313243 0.252825 0.000000 
0.353164 0.217668 0.000000 
0.249084 0.402311 0.000000 
0.261473 0.387426 0.000000 
0.275302 0.197563 0.000000 
0.390952 0.372384 0.000000 
0.384699 0.389427 0.000000 
0.377668 0.360163 0.000000 
0.360129 0.365761 0.000000 
0.356001 0.382978 0.000000 
0.337652 0.384777 0.000000 
0.331802 0.368138 0.000000 
0.346167 0.357417 0.000000 
0.191751 0.314008 0.000000 
0.412612 0.344397 0.000000 
0.393148 0.337016 0.000000 
0.298590 0.281054 0.000000 
0.337897 0.426203 0.000000 
0.343830 0.446619 0.000000 
0.199226 0.264006 0.000000 
0.237975 0.258913 0.000000 
0.328640 0.278417 0.000000 
0.325719 0.193793 0.000000 
0.277492 0.409264 0.000000 
0.248457 0.221222 0.000000 
0.421547 0.357006 0.000000 
0.444899 0.357075 0.000000 
0.418103 0.250039 0.000000 
0.432418 0.231902 0.000000 
0.211370 0.346619 0.000000 
0.234753 0.408372 0.000000 
0.229881 0.431019 0.000000 
0.367288 0.394423 0.000000 
0.409016 0.314363 0.000000 
0.378258 0.342346 0.000000 
0.371258 0.219821 0.000000 
0.212189 0.364823 0.000000 
0.416300 0.297761 0.000000 
0.324376 0.224716 0.000000 
0.311270 0.237499 0.000000 
0.314915 0.207448 0.000000 
0.290127 0.228523 0.000000 
0.168409 0.250032 0.000000 
0.291683 0.209190 0.000000 
0.222355 0.297331 0.000000 
0.205170 0.290447 0.000000 
0.677323 0.881913 0.000000 
0.574838 0.544860 0.000000 
0.881600 0.719714 0.000000 
0.508040 0.748555 0.000000 
0.786832 0.526205 0.000000 
0.732885 0.875069 0.000000 
0.572553 0.840844 0.000000 
0.677137 0.501403 0.000000 
0.831596 0.821426 0.000000 
0.507579 0.635129 0.000000 
0.863388 0.608620 0.000000 
0.621735 0.870570 0.000000 
0.622883 0.516349 0.000000 
0.863602 0.774353 0.000000 
0.500753 0.691636 0.000000 
0.831957 0.560518 0.000000 
0.533814 0.799138 0.000000 
0.733859 0.505526 0.000000 
0.788197 0.858278 0.000000 
0.534030 0.584262 0.000000 
0.880235 0.662993 0.000000 
0.649096 0.877671 0.000000 
0.595585 0.526023 0.000000 
0.871667 0.746774 0.000000 
0.505104 0.719560 0.000000 
0.810406 0.542264 0.000000 
0.705489 0.883129 0.000000 
0.550188 0.822421 0.000000 
0.705504 0.499599 0.000000 
0.810686 0.840846 0.000000 
0.519947 0.609040 0.000000 
0.875571 0.634918 0.000000 
0.597593 0.854858 0.000000 
0.648953 0.505698 0.000000 
0.850636 0.800290 0.000000 
0.502918 0.663182 0.000000 
0.846882 0.585138 0.000000 
0.519557 0.774448 0.000000 
0.762006 0.512361 0.000000 
0.761377 0.869278 0.000000 
0.554748 0.564937 0.000000 
0.882420 0.691456 0.000000 
0.664448 0.871630 0.000000 
0.667097 0.854180 0.000000 
0.654236 0.843964 0.000000 
[...]
POINT_DATA 616 
VECTORS X_GC float 
0.294333 0.498634 0.000000 
0.189294 0.159120 0.000000 
0.498359 0.336584 0.000000 
0.125044 0.365474 0.000000 
0.403890 0.143098 0.000000 
0.349777 0.491701 0.000000 
0.189606 0.457732 0.000000 
0.294132 0.118080 0.000000 
0.445273 0.435081 0.000000 
0.124266 0.251990 0.000000 
0.480418 0.225542 0.000000 
0.238797 0.487402 0.000000 
0.239639 0.132769 0.000000 
0.480070 0.390923 0.000000 
0.117603 0.308544 0.000000 
0.448990 0.177413 0.000000 
0.150890 0.416067 0.000000 
0.350906 0.122334 0.000000 
0.404613 0.474465 0.000000 
0.149321 0.199703 0.000000 
0.497128 0.279894 0.000000 
0.266133 0.494450 0.000000 
0.211998 0.142100 0.000000 
0.488316 0.363526 0.000000 
0.122030 0.336462 0.000000 
0.427443 0.159149 0.000000 
0.322460 0.499819 0.000000 
0.167236 0.439332 0.000000 
0.322542 0.116345 0.000000 
0.425172 0.455187 0.000000 
0.136372 0.225646 0.000000 
0.492544 0.251839 0.000000 
0.214663 0.471722 0.000000 
0.265903 0.122308 0.000000 
0.465990 0.415724 0.000000 
0.119692 0.280079 0.000000 
0.463930 0.202057 0.000000 
0.136611 0.391364 0.000000 
0.379063 0.129226 0.000000 
0.378155 0.485810 0.000000 
0.168373 0.178553 0.000000 
0.499224 0.308334 0.000000 
0.281428 0.488354 0.000000 
0.283985 0.470848 0.000000 
0.271112 0.460641 0.000000 
0.299230 0.464813 0.000000 
0.257253 0.467357 0.000000 
0.254832 0.483660 0.000000 
0.242692 0.459035 0.000000 
0.230989 0.471717 0.000000 
0.272561 0.443568 0.000000 
0.302715 0.448043 0.000000 
0.310502 0.475232 0.000000 
0.326400 0.471270 0.000000 
0.308163 0.491549 0.000000 
0.334016 0.486855 0.000000 
0.258566 0.433468 0.000000 
0.288919 0.437004 0.000000 
0.317347 0.443842 0.000000 
0.150893 0.399565 0.000000 
0.166162 0.390696 0.000000 
0.166119 0.374252 0.000000 
0.180373 0.398910 0.000000 
0.152186 0.367472 0.000000 
0.137947 0.375714 0.000000 
0.149336 0.350456 0.000000 
0.132148 0.349174 0.000000 
0.180359 0.364775 0.000000 
0.195653 0.391235 0.000000 
0.179003 0.414740 0.000000 
0.190738 0.427368 0.000000 
0.164788 0.423024 0.000000 
0.183304 0.442951 0.000000 
0.179525 0.347502 0.000000 
0.195683 0.373543 0.000000 
0.208242 0.402941 0.000000 
0.207517 0.456859 0.000000 
0.215175 0.437950 0.000000 
0.429931 0.439403 0.000000 
0.418595 0.427139 0.000000 
0.403030 0.431252 0.000000 
0.423574 0.411593 0.000000 
0.400078 0.447109 0.000000 
0.411123 0.459018 0.000000 
0.385424 0.455999 0.000000 
0.388275 0.473325 0.000000 
0.390598 0.419431 0.000000 
0.412832 0.398444 0.000000 
0.439539 0.409717 0.000000 
0.449700 0.395924 0.000000 
0.450144 0.421180 0.000000 
0.466800 0.400057 0.000000 
0.374223 0.424341 0.000000 
0.395626 0.402391 0.000000 
0.421733 0.383831 0.000000 
0.129173 0.321598 0.000000 
0.159897 0.321257 0.000000 
0.184453 0.174883 0.000000 
0.196467 0.187812 0.000000 
0.212485 0.184128 0.000000 
0.191603 0.203510 0.000000 
0.216027 0.169033 0.000000 
0.204853 0.156954 0.000000 
0.231996 0.162499 0.000000 
0.229463 0.145443 0.000000 
0.224861 0.195932 0.000000 
0.202461 0.216722 0.000000 
0.175885 0.205699 0.000000 
0.166191 0.219974 0.000000 
0.164668 0.193671 0.000000 
0.149365 0.216195 0.000000 
0.241520 0.191307 0.000000 
0.219699 0.212830 0.000000 
0.196618 0.232994 0.000000 
0.411009 0.157946 0.000000 
0.401043 0.172529 0.000000 
0.408183 0.187310 0.000000 
0.384645 0.171279 0.000000 
0.423615 0.187346 0.000000 
0.432912 0.173769 0.000000 
0.433116 0.201187 0.000000 
0.449198 0.194920 0.000000 
0.399402 0.201986 0.000000 
0.374140 0.184787 0.000000 
0.379052 0.156444 0.000000 
0.362991 0.150149 0.000000 
0.388325 0.142846 0.000000 
0.362981 0.132914 0.000000 
0.407606 0.217156 0.000000 
0.381754 0.200715 0.000000 
0.356975 0.182687 0.000000 
0.489921 0.294698 0.000000 
0.472272 0.295951 0.000000 
0.465116 0.310701 0.000000 
0.463041 0.282357 0.000000 
0.474684 0.322788 0.000000 
0.491155 0.321683 0.000000 
0.469694 0.338759 0.000000 
0.484702 0.347536 0.000000 
0.448115 0.312925 0.000000 
0.445905 0.282541 0.000000 
0.471193 0.268766 0.000000 
0.466130 0.252304 0.000000 
0.487631 0.267557 0.000000 
0.479640 0.241566 0.000000 
0.441215 0.328675 0.000000 
0.438151 0.298370 0.000000 
0.439663 0.266541 0.000000 
0.463892 0.218519 0.000000 
0.448719 0.232133 0.000000 
0.255711 0.136468 0.000000 
0.264212 0.167522 0.000000 
0.335414 0.126631 0.000000 
0.327880 0.142145 0.000000 
0.126881 0.294910 0.000000 
0.143048 0.297318 0.000000 
0.152260 0.283705 0.000000 
0.145323 0.314032 0.000000 
0.145568 0.268951 0.000000 
0.129167 0.267732 0.000000 
0.150626 0.252454 0.000000 
0.137145 0.241698 0.000000 
0.169354 0.283906 0.000000 
0.180446 0.266730 0.000000 
0.174713 0.304741 0.000000 
0.281242 0.128356 0.000000 
0.283860 0.145809 0.000000 
0.299162 0.151790 0.000000 
0.268055 0.151712 0.000000 
0.310672 0.140855 0.000000 
0.308259 0.124596 0.000000 
0.334151 0.158947 0.000000 
0.301154 0.170219 0.000000 
0.318934 0.176084 0.000000 
0.282008 0.180049 0.000000 
0.475237 0.373585 0.000000 
0.454890 0.369979 0.000000 
0.360806 0.479469 0.000000 
0.357550 0.456082 0.000000 
0.242557 0.442220 0.000000 
0.372017 0.445064 0.000000 
0.425885 0.216323 0.000000 
0.162435 0.339964 0.000000 
0.245111 0.172968 0.000000 
0.453213 0.342412 0.000000 
0.320650 0.426800 0.000000 
0.410713 0.370633 0.000000 
0.346491 0.196458 0.000000 
0.223592 0.394990 0.000000 
0.207743 0.246250 0.000000 
0.422333 0.266916 0.000000 
0.260218 0.416211 0.000000 
0.361862 0.412329 0.000000 
0.398541 0.231875 0.000000 
0.194029 0.338064 0.000000 
0.253916 0.203376 0.000000 
0.423940 0.330691 0.000000 
0.329756 0.456638 0.000000 
0.442600 0.383161 0.000000 
0.351419 0.162885 0.000000 
0.204706 0.423249 0.000000 
0.176065 0.234058 0.000000 
0.451735 0.249894 0.000000 
0.309311 0.413978 0.000000 
0.224787 0.243203 0.000000 
0.402506 0.249178 0.000000 
0.388290 0.261923 0.000000 
0.388274 0.278199 0.000000 
0.374150 0.253760 0.000000 
0.406720 0.282319 0.000000 
0.374025 0.287686 0.000000 
0.358756 0.261260 0.000000 
0.379836 0.235812 0.000000 
0.374878 0.304870 0.000000 
0.358646 0.278909 0.000000 
0.344268 0.251884 0.000000 
0.390637 0.316769 0.000000 
0.360311 0.314301 0.000000 
0.328766 0.259658 0.000000 
0.341849 0.232267 0.000000 
0.292195 0.419959 0.000000 
0.313604 0.397250 0.000000 
0.230901 0.226053 0.000000 
0.344861 0.306508 0.000000 
0.298968 0.387399 0.000000 
0.331353 0.396514 0.000000 
0.344276 0.412617 0.000000 
0.330292 0.315952 0.000000 
0.344033 0.288292 0.000000 
0.279958 0.393400 0.000000 
0.331201 0.333231 0.000000 
0.314837 0.308147 0.000000 
0.346610 0.340993 0.000000 
0.316716 0.342763 0.000000 
0.300341 0.317652 0.000000 
0.314013 0.288834 0.000000 
0.361150 0.331509 0.000000 
0.317756 0.361243 0.000000 
0.301301 0.334980 0.000000 
0.286852 0.344526 0.000000 
0.285437 0.361705 0.000000 
0.300946 0.370658 0.000000 
0.264974 0.372473 0.000000 
0.271437 0.336742 0.000000 
0.253020 0.346286 0.000000 
0.270473 0.319417 0.000000 
0.247972 0.364837 0.000000 
0.227507 0.374560 0.000000 
0.231738 0.337808 0.000000 
0.255062 0.311644 0.000000 
0.284935 0.309882 0.000000 
0.234739 0.320488 0.000000 
0.254127 0.294356 0.000000 
0.284020 0.292613 0.000000 
0.237249 0.280155 0.000000 
0.268614 0.284849 0.000000 
0.267695 0.267578 0.000000 
0.253938 0.255847 0.000000 
0.258306 0.235305 0.000000 
0.282201 0.258091 0.000000 
0.276604 0.238131 0.000000 
0.297691 0.263803 0.000000 
0.313243 0.252825 0.000000 
0.353164 0.217668 0.000000 
0.249084 0.402311 0.000000 
0.261473 0.387426 0.000000 
0.275302 0.197563 0.000000 
0.390952 0.372384 0.000000 
0.384699 0.389427 0.000000 
0.377668 0.360163 0.000000 
0.360129 0.365761 0.000000 
0.356001 0.382978 0.000000 
0.337652 0.384777 0.000000 
0.331802 0.368138 0.000000 
0.346167 0.357417 0.000000 
0.191751 0.314008 0.000000 
0.412612 0.344397 0.000000 
0.393148 0.337016 0.000000 
0.298590 0.281054 0.000000 
0.337897 0.426203 0.000000 
0.343830 0.446619 0.000000 
0.199226 0.264006 0.000000 
0.237975 0.258913 0.000000 
0.328640 0.278417 0.000000 
0.325719 0.193793 0.000000 
0.277492 0.409264 0.000000 
0.248457 0.221222 0.000000 
0.421547 0.357006 0.000000 
0.444899 0.357075 0.000000 
0.418103 0.250039 0.000000 
0.432418 0.231902 0.000000 
0.211370 0.346619 0.000000 
0.234753 0.408372 0.000000 
0.229881 0.431019 0.000000 
0.367288 0.394423 0.000000 
0.409016 0.314363 0.000000 
0.378258 0.342346 0.000000 
0.371258 0.219821 0.000000 
0.212189 0.364823 0.000000 
0.416300 0.297761 0.000000 
0.324376 0.224716 0.000000 
0.311270 0.237499 0.000000 
0.314915 0.207448 0.000000 
0.290127 0.228523 0.000000 
0.168409 0.250032 0.000000 
0.291683 0.209190 0.000000 
0.222355 0.297331 0.000000 
0.205170 0.290447 0.000000 
0.677323 0.881913 0.000000 
0.574838 0.544860 0.000000 
0.881600 0.719714 0.000000 
0.508040 0.748555 0.000000 
0.786832 0.526205 0.000000 
0.732885 0.875069 0.000000 
0.572553 0.840844 0.000000 
0.677137 0.501403 0.000000 
0.831596 0.821426 0.000000 
0.507579 0.635129 0.000000 
0.863388 0.608620 0.000000 
0.621735 0.870570 0.000000 
0.622883 0.516349 0.000000 
0.863602 0.774353 0.000000 
0.500753 0.691636 0.000000 
0.831957 0.560518 0.000000 
0.533814 0.799138 0.000000 
0.733859 0.505526 0.000000 
0.788197 0.858278 0.000000 
0.534030 0.584262 0.000000 
0.880235 0.662993 0.000000 
0.649096 0.877671 0.000000 
0.595585 0.526023 0.000000 
0.871667 0.746774 0.000000 
0.505104 0.719560 0.000000 
0.810406 0.542264 0.000000 
0.705489 0.883129 0.000000 
0.550188 0.822421 0.000000 
0.705504 0.499599 0.000000 
0.810686 0.840846 0.000000 
0.519947 0.609040 0.000000 
0.875571 0.634918 0.000000 
0.597593 0.854858 0.000000 
0.648953 0.505698 0.000000 
0.850636 0.800290 0.000000 
0.502918 0.663182 0.000000 
0.846882 0.585138 0.000000 
0.519557 0.774448 0.000000 
0.762006 0.512361 0.000000 
0.761377 0.869278 0.000000 
0.554748 0.564937 0.000000 
0.882420 0.691456 0.000000 
0.664448 0.871630 0.000000 
0.667097 0.854180 0.000000 
0.654236 0.843964 0.000000 
0.682415 0.848207 0.000000 
0.640309 0.850622 0.000000 
0.637817 0.866879 0.000000 
0.625736 0.842277 0.000000 
0.613959 0.854897 0.000000 
0.655768 0.826940 0.000000 
0.686006 0.831498 0.000000 
0.693664 0.858621 0.000000 
0.709656 0.854733 0.000000 
0.691221 0.874878 0.000000 
0.717162 0.870248 0.000000 
0.641763 0.816820 0.000000 
0.672219 0.820448 0.000000 
0.700748 0.827380 0.000000 
0.533850 0.782674 0.000000 
0.549184 0.773874 0.000000 
0.549192 0.757482 0.000000 
0.563403 0.782101 0.000000 
0.535245 0.750665 0.000000 
0.520945 0.758832 0.000000 
0.532440 0.733676 0.000000 
0.515211 0.732310 0.000000 
0.563498 0.748096 0.000000 
0.578747 0.774502 0.000000 
0.561987 0.797879 0.000000 
0.573726 0.810518 0.000000 
0.547738 0.806120 0.000000 
0.566266 0.826067 0.000000 
0.562717 0.730885 0.000000 
0.578834 0.756891 0.000000 
0.591330 0.786197 0.000000 
0.590473 0.840002 0.000000 
0.598190 0.821147 0.000000 
0.815520 0.825090 0.000000 
0.803502 0.812162 0.000000 
0.787488 0.815846 0.000000 
0.808363 0.796470 0.000000 
0.784156 0.831354 0.000000 
0.795335 0.843426 0.000000 
0.769212 0.839968 0.000000 
0.771751 0.857020 0.000000 
0.775108 0.804049 0.000000 
0.797516 0.783256 0.000000 
0.824079 0.794286 0.000000 
0.833783 0.780014 0.000000 
0.835293 0.806315 0.000000 
0.850604 0.783799 0.000000 
0.758453 0.808677 0.000000 
0.780275 0.787152 0.000000 
0.806130 0.768348 0.000000 
0.512311 0.704758 0.000000 
0.543120 0.704614 0.000000 
0.570089 0.560634 0.000000 
0.581433 0.572906 0.000000 
0.596998 0.568814 0.000000 
0.576462 0.588442 0.000000 
0.600150 0.553383 0.000000 
0.589080 0.541453 0.000000 
0.615848 0.546584 0.000000 
0.612987 0.529267 0.000000 
0.609440 0.580629 0.000000 
0.587215 0.601602 0.000000 
0.560493 0.590299 0.000000 
0.550331 0.604075 0.000000 
0.549881 0.578827 0.000000 
0.533227 0.599920 0.000000 
0.625808 0.575708 0.000000 
0.604428 0.597671 0.000000 
0.581073 0.617586 0.000000 
0.793978 0.541074 0.000000 
0.784066 0.555712 0.000000 
0.791222 0.570506 0.000000 
0.767721 0.554511 0.000000 
0.806625 0.570508 0.000000 
0.815892 0.556896 0.000000 
0.816131 0.584346 0.000000 
0.832176 0.578032 0.000000 
0.782510 0.585247 0.000000 
0.757304 0.568089 0.000000 
0.762093 0.539653 0.000000 
0.746050 0.533388 0.000000 
0.771296 0.525991 0.000000 
0.745965 0.516103 0.000000 
0.790732 0.600442 0.000000 
0.764943 0.584036 0.000000 
0.740199 0.566039 0.000000 
0.873098 0.677860 0.000000 
0.855503 0.679219 0.000000 
0.848428 0.694055 0.000000 
0.846251 0.665643 0.000000 
0.858024 0.706119 0.000000 
0.874422 0.704881 0.000000 
0.853136 0.722195 0.000000 
0.868058 0.730821 0.000000 
0.831498 0.696405 0.000000 
0.829163 0.665919 0.000000 
0.854334 0.651977 0.000000 
0.849228 0.635497 0.000000 
0.870724 0.650685 0.000000 
0.862666 0.624680 0.000000 
0.824756 0.712326 0.000000 
0.821487 0.681846 0.000000 
0.822881 0.649897 0.000000 
0.846880 0.601633 0.000000 
0.831791 0.615336 0.000000 
0.638980 0.520038 0.000000 
0.647885 0.551372 0.000000 
0.718411 0.509877 0.000000 
0.710981 0.525461 0.000000 
0.510114 0.678090 0.000000 
0.526334 0.680630 0.000000 
0.535678 0.667161 0.000000 
0.528529 0.697311 0.000000 
0.529036 0.652390 0.000000 
0.512493 0.650948 0.000000 
0.534254 0.636039 0.000000 
0.520661 0.625076 0.000000 
0.552872 0.667542 0.000000 
0.564247 0.650665 0.000000 
0.558057 0.688268 0.000000 
0.664355 0.511768 0.000000 
0.667146 0.529327 0.000000 
0.682424 0.535246 0.000000 
0.651490 0.535376 0.000000 
0.693806 0.524219 0.000000 
0.691288 0.507914 0.000000 
0.717333 0.542298 0.000000 
0.684545 0.553739 0.000000 
0.702270 0.559538 0.000000 
0.665659 0.563809 0.000000 
0.858781 0.757063 0.000000 
0.838681 0.753785 0.000000 
0.744092 0.862985 0.000000 
0.741143 0.839849 0.000000 
0.625659 0.825499 0.000000 
0.755890 0.829089 0.000000 
0.808957 0.599546 0.000000 
0.545606 0.723281 0.000000 
0.629044 0.557079 0.000000 
0.836801 0.726052 0.000000 
0.704199 0.810439 0.000000 
0.795014 0.755094 0.000000 
0.729829 0.579888 0.000000 
0.606776 0.778344 0.000000 
0.592065 0.630764 0.000000 
0.805600 0.650358 0.000000 
0.643493 0.799616 0.000000 
0.746058 0.796613 0.000000 
0.781764 0.615261 0.000000 
0.577292 0.721565 0.000000 
0.638176 0.587711 0.000000 
0.807601 0.714522 0.000000 
0.713151 0.840202 0.000000 
0.826681 0.767290 0.000000 
0.734570 0.546196 0.000000 
0.587725 0.806437 0.000000 
0.560215 0.618250 0.000000 
0.834862 0.633141 0.000000 
0.692840 0.797581 0.000000 
0.609080 0.627664 0.000000 
0.785778 0.632630 0.000000 
0.771684 0.645489 0.000000 
0.771733 0.661840 0.000000 
0.757586 0.637349 0.000000 
0.790103 0.665905 0.000000 
0.757598 0.671437 0.000000 
0.742304 0.644952 0.000000 
0.763170 0.619291 0.000000 
0.758515 0.688700 0.000000 
0.742267 0.662689 0.000000 
0.727854 0.635590 0.000000 
0.774285 0.700615 0.000000 
0.744069 0.698239 0.000000 
0.712466 0.643472 0.000000 
0.725366 0.615883 0.000000 
0.675599 0.803469 0.000000 
0.697255 0.780978 0.000000 
0.615345 0.610624 0.000000 
0.728660 0.690480 0.000000 
0.682560 0.771097 0.000000 
0.715191 0.780432 0.000000 
0.728233 0.796653 0.000000 
0.714180 0.700000 0.000000 
0.727770 0.672187 0.000000 
0.663429 0.776990 0.000000 
0.715081 0.717257 0.000000 
0.698779 0.692245 0.000000 
0.730491 0.725022 0.000000 
0.700571 0.726749 0.000000 
0.684250 0.701724 0.000000 
0.697902 0.672861 0.000000 
0.744988 0.715514 0.000000 
0.701555 0.745154 0.000000 
0.685141 0.718968 0.000000 
0.670575 0.728408 0.000000 
0.669076 0.745488 0.000000 
0.684624 0.754452 0.000000 
0.648457 0.756112 0.000000 
0.655107 0.720599 0.000000 
0.636546 0.730013 0.000000 
0.654209 0.703359 0.000000 
0.631396 0.748446 0.000000 
0.610785 0.758034 0.000000 
0.615176 0.721487 0.000000 
0.638736 0.695555 0.000000 
0.668787 0.693924 0.000000 
0.618260 0.704268 0.000000 
0.637892 0.678343 0.000000 
0.667895 0.676663 0.000000 
0.621090 0.664220 0.000000 
0.652465 0.668885 0.000000 
0.651607 0.651647 0.000000 
0.637952 0.640014 0.000000 
0.642415 0.619526 0.000000 
0.666094 0.642104 0.000000 
0.660554 0.622174 0.000000 
0.681539 0.647761 0.000000 
0.696990 0.636664 0.000000 
0.736565 0.601166 0.000000 
0.632367 0.785732 0.000000 
0.644875 0.770972 0.000000 
0.659221 0.581543 0.000000 
0.775208 0.756783 0.000000 
0.769084 0.773933 0.000000 
0.761728 0.744370 0.000000 
0.744142 0.749904 0.000000 
0.740064 0.767152 0.000000 
0.721553 0.768776 0.000000 
0.715660 0.752107 0.000000 
0.730085 0.741466 0.000000 
0.575086 0.697601 0.000000 
0.796533 0.728501 0.000000 
0.777006 0.721056 0.000000 
0.682478 0.665078 0.000000 
0.721652 0.810052 0.000000 
0.727433 0.830369 0.000000 
0.583229 0.648219 0.000000 
0.622026 0.643145 0.000000 
0.712419 0.662332 0.000000 
0.709137 0.577285 0.000000 
0.660882 0.792762 0.000000 
0.632756 0.605618 0.000000 
0.805581 0.741190 0.000000 
0.828694 0.740936 0.000000 
0.801321 0.633429 0.000000 
0.815530 0.615162 0.000000 
0.594669 0.730169 0.000000 
0.617940 0.791709 0.000000 
0.612972 0.814280 0.000000 
0.751526 0.778767 0.000000 
0.792564 0.698124 0.000000 
0.762166 0.726421 0.000000 
0.754573 0.603259 0.000000 
0.595426 0.748284 0.000000 
0.799703 0.681366 0.000000 
0.707953 0.608362 0.000000 
0.694967 0.621266 0.000000 
0.698466 0.591037 0.000000 
0.673962 0.612420 0.000000 
0.552274 0.633936 0.000000 
0.675468 0.593005 0.000000 
0.605971 0.681224 0.000000 
0.588804 0.674359 0.000000 
VECTORS X_EC float 
-0.972674 0.886653 0.000000 
-0.182400 0.785889 0.000000 
0.268324 0.967181 0.000000 
-0.309490 -0.499119 0.000000 
0.138037 -0.922204 0.000000 
-0.834022 -0.004466 0.000000 
-0.154643 0.792119 0.000000 
0.638410 0.882639 0.000000 
0.298376 -0.094532 0.000000 
-0.039806 -0.514690 0.000000 
0.489154 0.608354 0.000000 
-0.748036 -0.224064 0.000000 
0.344616 -0.207223 0.000000 
-0.818455 0.601391 0.000000 
0.829119 -0.647942 0.000000 
-0.548258 -0.020205 0.000000 
0.678668 0.017810 0.000000 
0.553316 0.018111 0.000000 
-0.489310 -0.907742 0.000000 
-0.994061 -0.013590 0.000000 
-0.597874 0.942555 0.000000 
-0.889002 0.322654 0.000000 
0.157990 -0.760041 0.000000 
-0.270523 0.766311 0.000000 
0.270758 -0.559404 0.000000 
-0.182978 -0.451138 0.000000 
-0.996376 -0.550810 0.000000 
0.213360 0.344715 0.000000 
0.673109 -0.549159 0.000000 
-0.103732 -0.496553 0.000000 
0.487090 -0.272563 0.000000 
-0.036776 0.850880 0.000000 
-0.434435 -0.706736 0.000000 
0.553843 0.318064 0.000000 
0.685514 0.319807 0.000000 
-0.601572 -0.606168 0.000000 
0.958859 0.278598 0.000000 
-0.827271 -0.267786 0.000000 
0.415475 0.581260 0.000000 
-0.716205 0.563095 0.000000 
-0.571055 0.367456 0.000000 
0.833321 0.984482 0.000000 
-0.767085 0.628569 0.000000 
-0.416967 0.679699 0.000000 
-0.212826 0.422240 0.000000 
-0.296267 0.984596 0.000000 
-0.347139 0.145059 0.000000 
-0.673200 0.096630 0.000000 
-0.180703 -0.146169 0.000000 
-0.434339 -0.380213 0.000000 
0.128647 0.451220 0.000000 
0.039136 -0.945708 0.000000 
-0.504645 -0.789969 0.000000 
-0.425400 -0.471999 0.000000 
-0.830984 -0.836735 0.000000 
-0.737092 -0.319675 0.000000 
0.330644 0.171326 0.000000 
0.259930 0.778383 0.000000 
0.123150 -0.653066 0.000000 
-0.991301 0.017854 0.000000 
-0.813916 0.323246 0.000000 
-0.485050 0.322377 0.000000 
-0.978202 0.607458 0.000000 
-0.349448 0.043718 0.000000 
-0.514282 -0.241053 0.000000 
-0.009122 -0.013284 0.000000 
0.016513 -0.357038 0.000000 
-0.295499 0.607178 0.000000 
-0.824695 0.913069 0.000000 
0.705208 0.580066 0.000000 
0.452642 0.814756 0.000000 
0.539526 0.295753 0.000000 
0.140989 0.666088 0.000000 
0.049951 0.590494 0.000000 
-0.470852 0.913657 0.000000 
0.941187 -0.835150 0.000000 
-0.137176 -0.849666 0.000000 
0.241009 -0.696501 0.000000 
0.211943 -0.401372 0.000000 
0.457219 -0.628097 0.000000 
0.374966 -0.939392 0.000000 
0.768141 -0.528520 0.000000 
0.057825 -0.998449 0.000000 
-0.180360 -0.777534 0.000000 
-0.119979 0.708473 0.000000 
-0.466495 0.765496 0.000000 
0.611381 0.811952 0.000000 
-0.968875 -0.743359 0.000000 
0.805661 -0.209225 0.000000 
-0.918486 -0.005991 0.000000 
0.576393 0.002873 0.000000 
0.998864 0.335993 0.000000 