# vtk DataFile Version 3.0 
vtk output 
ASCII 
DATASET UNSTRUCTURED_GRID 
POINTS 336 float 
-4.000000 2.800000 0.000000 
-3.750000 2.800000 0.000000 
-4.000000 2.546667 0.000000 
-3.750000 2.546667 0.000000 
-3.500000 2.800000 0.000000 
-4.000000 2.293333 0.000000 
-3.500000 2.546667 0.000000 
-3.750000 2.293333 0.000000 
-3.500000 2.293333 0.000000 
-3.250000 2.800000 0.000000 
-4.000000 2.040000 0.000000 
-3.250000 2.546667 0.000000 
-3.750000 2.040000 0.000000 
-3.250000 2.293333 0.000000 
-3.500000 2.040000 0.000000 
-3.000000 2.800000 0.000000 
-4.000000 1.786667 0.000000 
-3.000000 2.546667 0.000000 
-3.750000 1.786667 0.000000 
-3.250000 2.040000 0.000000 
-3.000000 2.293333 0.000000 
-3.500000 1.786667 0.000000 
-2.750000 2.800000 0.000000 
-3.000000 2.040000 0.000000 
-3.250000 1.786667 0.000000 
-4.000000 1.533333 0.000000 
-2.750000 2.546667 0.000000 
-3.750000 1.533333 0.000000 
-2.750000 2.293333 0.000000 
-3.500000 1.533333 0.000000 
-3.000000 1.786667 0.000000 
-2.750000 2.040000 0.000000 
-3.250000 1.533333 0.000000 
-2.500000 2.800000 0.000000 
-4.000000 1.280000 0.000000 
-2.500000 2.546667 0.000000 
-3.750000 1.280000 0.000000 
-2.500000 2.293333 0.000000 
-3.500000 1.280000 0.000000 
-2.750000 1.786667 0.000000 
-3.000000 1.533333 0.000000 
-2.500000 2.040000 0.000000 
-3.250000 1.280000 0.000000 
-2.250000 2.800000 0.000000 
-2.250000 2.546667 0.000000 
-4.000000 1.026667 0.000000 
-2.750000 1.533333 0.000000 
-3.750000 1.026667 0.000000 
-2.500000 1.786667 0.000000 
-3.000000 1.280000 0.000000 
-2.250000 2.293333 0.000000 
-3.500000 1.026667 0.000000 
-2.250000 2.040000 0.000000 
-3.250000 1.026667 0.000000 
-2.500000 1.533333 0.000000 
-2.750000 1.280000 0.000000 
-2.000000 2.800000 0.000000 
-2.000000 2.546667 0.000000 
-2.250000 1.786667 0.000000 
-4.000000 0.773333 0.000000 
-3.000000 1.026667 0.000000 
-3.750000 0.773333 0.000000 
-2.000000 2.293333 0.000000 
-3.500000 0.773333 0.000000 
-2.500000 1.280000 0.000000 
-2.000000 2.040000 0.000000 
-2.250000 1.533333 0.000000 
-3.250000 0.773333 0.000000 
-2.750000 1.026667 0.000000 
-2.000000 1.786667 0.000000 
-1.750000 2.800000 0.000000 
-3.000000 0.773333 0.000000 
-1.750000 2.546667 0.000000 
-4.000000 0.520000 0.000000 
-3.750000 0.520000 0.000000 
-1.750000 2.293333 0.000000 
-2.250000 1.280000 0.000000 
-2.500000 1.026667 0.000000 
-3.500000 0.520000 0.000000 
-2.000000 1.533333 0.000000 
-1.750000 2.040000 0.000000 
-2.750000 0.773333 0.000000 
-3.250000 0.520000 0.000000 
-1.750000 1.786667 0.000000 
-3.000000 0.520000 0.000000 
-2.250000 1.026667 0.000000 
-1.500000 2.800000 0.000000 
-2.000000 1.280000 0.000000 
-1.500000 2.546667 0.000000 
-2.500000 0.773333 0.000000 
-4.000000 0.266667 0.000000 
-3.750000 0.266667 0.000000 
-1.500000 2.293333 0.000000 
-1.750000 1.533333 0.000000 
-3.500000 0.266667 0.000000 
-2.750000 0.520000 0.000000 
-1.500000 2.040000 0.000000 
-3.250000 0.266667 0.000000 
-2.000000 1.026667 0.000000 
-2.250000 0.773333 0.000000 
-1.500000 1.786667 0.000000 
-1.750000 1.280000 0.000000 
-3.000000 0.266667 0.000000 
-2.500000 0.520000 0.000000 
-1.250000 2.800000 0.000000 
-1.250000 2.546667 0.000000 
-4.000000 0.013333 0.000000 
-1.250000 2.293333 0.000000 
-3.750000 0.013333 0.000000 
-1.500000 1.533333 0.000000 
-2.750000 0.266667 0.000000 
-3.500000 0.013333 0.000000 
-2.000000 0.773333 0.000000 
-1.250000 2.040000 0.000000 
-1.750000 1.026667 0.000000 
-2.250000 0.520000 0.000000 
-3.250000 0.013333 0.000000 
-1.500000 1.280000 0.000000 
-1.250000 1.786667 0.000000 
-2.500000 0.266667 0.000000 
-3.000000 0.013333 0.000000 
-1.000000 2.800000 0.000000 
-1.000000 2.546667 0.000000 
-1.250000 1.533333 0.000000 
-1.750000 0.773333 0.000000 
-2.000000 0.520000 0.000000 
-4.000000 -0.240000 0.000000 
-1.000000 2.293333 0.000000 
-3.750000 -0.240000 0.000000 
-2.750000 0.013333 0.000000 
-1.500000 1.026667 0.000000 
-2.250000 0.266667 0.000000 
-3.500000 -0.240000 0.000000 
-1.000000 2.040000 0.000000 
-3.250000 -0.240000 0.000000 
-1.250000 1.280000 0.000000 
-2.500000 0.013333 0.000000 
-1.000000 1.786667 0.000000 
-3.000000 -0.240000 0.000000 
-1.750000 0.520000 0.000000 
-1.500000 0.773333 0.000000 
-2.000000 0.266667 0.000000 
-0.750000 2.800000 0.000000 
-1.000000 1.533333 0.000000 
-0.750000 2.546667 0.000000 
-1.250000 1.026667 0.000000 
-2.750000 -0.240000 0.000000 
-0.750000 2.293333 0.000000 
-2.250000 0.013333 0.000000 
-4.000000 -0.493333 0.000000 
-3.750000 -0.493333 0.000000 
-3.500000 -0.493333 0.000000 
-0.750000 2.040000 0.000000 
-1.000000 1.280000 0.000000 
-3.250000 -0.493333 0.000000 
-1.500000 0.520000 0.000000 
-1.750000 0.266667 0.000000 
-2.500000 -0.240000 0.000000 
-0.750000 1.786667 0.000000 
-1.250000 0.773333 0.000000 
-2.000000 0.013333 0.000000 
-3.000000 -0.493333 0.000000 
-1.000000 1.026667 0.000000 
-0.750000 1.533333 0.000000 
-0.500000 2.800000 0.000000 
-2.250000 -0.240000 0.000000 
-0.500000 2.546667 0.000000 
-2.750000 -0.493333 0.000000 
-0.500000 2.293333 0.000000 
-4.000000 -0.746667 0.000000 
-3.750000 -0.746667 0.000000 
-1.500000 0.266667 0.000000 
-1.250000 0.520000 0.000000 
-0.500000 2.040000 0.000000 
-1.750000 0.013333 0.000000 
-3.500000 -0.746667 0.000000 
-0.750000 1.280000 0.000000 
-2.500000 -0.493333 0.000000 
-1.000000 0.773333 0.000000 
-3.250000 -0.746667 0.000000 
-2.000000 -0.240000 0.000000 
-0.500000 1.786667 0.000000 
-3.000000 -0.746667 0.000000 
-0.750000 1.026667 0.000000 
-0.500000 1.533333 0.000000 
-2.250000 -0.493333 0.000000 
-1.250000 0.266667 0.000000 
-1.500000 0.013333 0.000000 
-0.250000 2.800000 0.000000 
-0.250000 2.546667 0.000000 
-2.750000 -0.746667 0.000000 
-1.000000 0.520000 0.000000 
-1.750000 -0.240000 0.000000 
-0.250000 2.293333 0.000000 
-4.000000 -1.000000 0.000000 
-3.750000 -1.000000 0.000000 
-0.500000 1.280000 0.000000 
-0.250000 2.040000 0.000000 
-0.750000 0.773333 0.000000 
-3.500000 -1.000000 0.000000 
-2.500000 -0.746667 0.000000 
-2.000000 -0.493333 0.000000 
-3.250000 -1.000000 0.000000 
-0.250000 1.786667 0.000000 
-1.250000 0.013333 0.000000 
-0.500000 1.026667 0.000000 
-1.000000 0.266667 0.000000 
-3.000000 -1.000000 0.000000 
-1.500000 -0.240000 0.000000 
-2.250000 -0.746667 0.000000 
-0.250000 1.533333 0.000000 
-0.750000 0.520000 0.000000 
-1.750000 -0.493333 0.000000 
0.000000 2.800000 0.000000 
-2.750000 -1.000000 0.000000 
0.000000 2.546667 0.000000 
0.000000 2.293333 0.000000 
-0.500000 0.773333 0.000000 
-0.250000 1.280000 0.000000 
0.000000 2.040000 0.000000 
-2.000000 -0.746667 0.000000 
-2.500000 -1.000000 0.000000 
-1.000000 0.013333 0.000000 
-1.250000 -0.240000 0.000000 
-0.750000 0.266667 0.000000 
0.000000 1.786667 0.000000 
-1.500000 -0.493333 0.000000 
-0.250000 1.026667 0.000000 
-0.500000 0.520000 0.000000 
-2.250000 -1.000000 0.000000 
0.000000 1.533333 0.000000 
-1.750000 -0.746667 0.000000 
0.250000 2.800000 0.000000 
0.250000 2.546667 0.000000 
-0.250000 0.773333 0.000000 
-1.000000 -0.240000 0.000000 
0.000000 1.280000 0.000000 
0.250000 2.293333 0.000000 
-0.750000 0.013333 0.000000 
-1.250000 -0.493333 0.000000 
-2.000000 -1.000000 0.000000 
0.250000 2.040000 0.000000 
-0.500000 0.266667 0.000000 
-1.500000 -0.746667 0.000000 
0.250000 1.786667 0.000000 
0.000000 1.026667 0.000000 
-0.250000 0.520000 0.000000 
-1.750000 -1.000000 0.000000 
0.250000 1.533333 0.000000 
-0.750000 -0.240000 0.000000 
-1.000000 -0.493333 0.000000 
-0.500000 0.013333 0.000000 
0.000000 0.773333 0.000000 
-1.250000 -0.746667 0.000000 
0.500000 2.800000 0.000000 
0.500000 2.546667 0.000000 
0.250000 1.280000 0.000000 
-0.250000 0.266667 0.000000 
0.500000 2.293333 0.000000 
-1.500000 -1.000000 0.000000 
0.500000 2.040000 0.000000 
0.000000 0.520000 0.000000 
0.250000 1.026667 0.000000 
0.500000 1.786667 0.000000 
-0.750000 -0.493333 0.000000 
-0.500000 -0.240000 0.000000 
-1.000000 -0.746667 0.000000 
-0.250000 0.013333 0.000000 
0.500000 1.533333 0.000000 
-1.250000 -1.000000 0.000000 
0.250000 0.773333 0.000000 
0.000000 0.266667 0.000000 
0.500000 1.280000 0.000000 
0.750000 2.800000 0.000000 
0.750000 2.546667 0.000000 
0.750000 2.293333 0.000000 
-0.500000 -0.493333 0.000000 
0.750000 2.040000 0.000000 
-0.750000 -0.746667 0.000000 
0.250000 0.520000 0.000000 
-0.250000 -0.240000 0.000000 
0.500000 1.026667 0.000000 
-1.000000 -1.000000 0.000000 
0.750000 1.786667 0.000000 
0.000000 0.013333 0.000000 
0.750000 1.533333 0.000000 
0.500000 0.773333 0.000000 
0.250000 0.266667 0.000000 
-0.500000 -0.746667 0.000000 
0.750000 1.280000 0.000000 
-0.250000 -0.493333 0.000000 
1.000000 2.800000 0.000000 
-0.750000 -1.000000 0.000000 
1.000000 2.546667 0.000000 
0.000000 -0.240000 0.000000 
1.000000 2.293333 0.000000 
0.500000 0.520000 0.000000 
1.000000 2.040000 0.000000 
0.750000 1.026667 0.000000 
0.250000 0.013333 0.000000 
1.000000 1.786667 0.000000 
1.000000 1.533333 0.000000 
-0.250000 -0.746667 0.000000 
0.500000 0.266667 0.000000 
0.750000 0.773333 0.000000 
-0.500000 -1.000000 0.000000 
0.000000 -0.493333 0.000000 
0.250000 -0.240000 0.000000 
1.000000 1.280000 0.000000 
0.750000 0.520000 0.000000 
0.500000 0.013333 0.000000 
1.000000 1.026667 0.000000 
-0.250000 -1.000000 0.000000 
0.000000 -0.746667 0.000000 
0.250000 -0.493333 0.000000 
0.750000 0.266667 0.000000 
1.000000 0.773333 0.000000 
0.500000 -0.240000 0.000000 
1.000000 0.520000 0.000000 
0.750000 0.013333 0.000000 
0.000000 -1.000000 0.000000 
0.250000 -0.746667 0.000000 
0.500000 -0.493333 0.000000 
1.000000 0.266667 0.000000 
0.750000 -0.240000 0.000000 
0.250000 -1.000000 0.000000 
1.000000 0.013333 0.000000 
0.500000 -0.746667 0.000000 
0.750000 -0.493333 0.000000 
1.000000 -0.240000 0.000000 
0.500000 -1.000000 0.000000 
0.750000 -0.746667 0.000000 
1.000000 -0.493333 0.000000 
0.750000 -1.000000 0.000000 
1.000000 -0.746667 0.000000 
1.000000 -1.000000 0.000000 
CELLS 300 1500 
4 195  170  169  194 
4 199  175  170  195 
4 202  179  175  199 
4 207  182  179  202 
4 214  190  182  207 
4 221  200  190  214 
4 229  209  200  221 
4 240  220  209  229 
4 247  231  220  240 
4 259  243  231  247 
4 269  253  243  259 
4 282  266  253  269 
4 292  278  266  282 
4 305  288  278  292 
4 312  302  288  305 
4 320  313  302  312 
4 325  321  313  320 
4 330  327  321  325 
4 333  331  327  330 
4 335  334  331  333 
4 170  150  149  169 
4 175  151  150  170 
4 179  154  151  175 
4 182  161  154  179 
4 190  167  161  182 
4 200  177  167  190 
4 209  185  177  200 
4 220  201  185  209 
4 231  212  201  220 
4 243  226  212  231 
4 253  239  226  243 
4 266  250  239  253 
4 278  264  250  266 
4 288  276  264  278 
4 302  290  276  288 
4 313  306  290  302 
4 321  314  306  313 
4 327  322  314  321 
4 331  328  322  327 
4 334  332  328  331 
4 150  128  126  149 
4 151  132  128  150 
4 154  134  132  151 
4 161  138  134  154 
4 167  146  138  161 
4 177  157  146  167 
4 185  165  157  177 
4 201  180  165  185 
4 212  192  180  201 
4 226  208  192  212 
4 239  223  208  226 
4 250  235  223  239 
4 264  249  235  250 
4 276  265  249  264 
4 290  280  265  276 
4 306  294  280  290 
4 314  307  294  306 
4 322  317  307  314 
4 328  324  317  322 
4 332  329  324  328 
4 128  108  106  126 
4 132  111  108  128 
4 134  116  111  132 
4 138  120  116  134 
4 146  129  120  138 
4 157  136  129  146 
4 165  148  136  157 
4 180  160  148  165 
4 192  174  160  180 
4 208  187  174  192 
4 223  204  187  208 
4 235  222  204  223 
4 249  238  222  235 
4 265  251  238  249 
4 280  267  251  265 
4 294  284  267  280 
4 307  299  284  294 
4 317  310  299  307 
4 324  319  310  317 
4 329  326  319  324 
4 108  91  90  106 
4 111  94  91  108 
4 116  97  94  111 
4 120  102  97  116 
4 129  110  102  120 
4 136  119  110  129 
4 148  131  119  136 
4 160  141  131  148 
4 174  156  141  160 
4 187  171  156  174 
4 204  186  171  187 
4 222  206  186  204 
4 238  224  206  222 
4 251  242  224  238 
4 267  257  242  251 
4 284  271  257  267 
4 299  287  271  284 
4 310  303  287  299 
4 319  315  303  310 
4 326  323  315  319 
4 91  74  73  90 
4 94  78  74  91 
4 97  82  78  94 
4 102  84  82  97 
4 110  95  84  102 
4 119  103  95  110 
4 131  115  103  119 
4 141  125  115  131 
4 156  139  125  141 
4 171  155  139  156 
4 186  172  155  171 
4 206  191  172  186 
4 224  211  191  206 
4 242  228  211  224 
4 257  246  228  242 
4 271  261  246  257 
4 287  279  261  271 
4 303  296  279  287 
4 315  309  296  303 
4 323  318  309  315 
4 74  61  59  73 
4 78  63  61  74 
4 82  67  63  78 
4 84  71  67  82 
4 95  81  71  84 
4 103  89  81  95 
4 115  99  89  103 
4 125  112  99  115 
4 139  124  112  125 
4 155  140  124  139 
4 172  159  140  155 
4 191  178  159  172 
4 211  198  178  191 
4 228  217  198  211 
4 246  234  217  228 
4 261  252  234  246 
4 279  270  252  261 
4 296  286  270  279 
4 309  304  286  296 
4 318  316  304  309 
4 61  47  45  59 
4 63  51  47  61 
4 67  53  51  63 
4 71  60  53  67 
4 81  68  60  71 
4 89  77  68  81 
4 99  85  77  89 
4 112  98  85  99 
4 124  114  98  112 
4 140  130  114  124 
4 159  145  130  140 
4 178  162  145  159 
4 198  183  162  178 
4 217  205  183  198 
4 234  227  205  217 
4 252  245  227  234 
4 270  262  245  252 
4 286  281  262  270 
4 304  298  281  286 
4 316  311  298  304 
4 47  36  34  45 
4 51  38  36  47 
4 53  42  38  51 
4 60  49  42  53 
4 68  55  49  60 
4 77  64  55  68 
4 85  76  64  77 
4 98  87  76  85 
4 114  101  87  98 
4 130  117  101  114 
4 145  135  117  130 
4 162  153  135  145 
4 183  176  153  162 
4 205  196  176  183 
4 227  218  196  205 
4 245  236  218  227 
4 262  256  236  245 
4 281  272  256  262 
4 298  289  272  281 
4 311  308  289  298 
4 36  27  25  34 
4 38  29  27  36 
4 42  32  29  38 
4 49  40  32  42 
4 55  46  40  49 
4 64  54  46  55 
4 76  66  54  64 
4 87  79  66  76 
4 101  93  79  87 
4 117  109  93  101 
4 135  123  109  117 
4 153  143  123  135 
4 176  163  143  153 
4 196  184  163  176 
4 218  210  184  196 
4 236  230  210  218 
4 256  248  230  236 
4 272  268  248  256 
4 289  285  268  272 
4 308  301  285  289 
4 27  18  16  25 
4 29  21  18  27 
4 32  24  21  29 
4 40  30  24  32 
4 46  39  30  40 
4 54  48  39  46 
4 66  58  48  54 
4 79  69  58  66 
4 93  83  69  79 
4 109  100  83  93 
4 123  118  100  109 
4 143  137  118  123 
4 163  158  137  143 
4 184  181  158  163 
4 210  203  181  184 
4 230  225  203  210 
4 248  244  225  230 
4 268  263  244  248 
4 285  283  263  268 
4 301  300  283  285 
4 18  12  10  16 
4 21  14  12  18 
4 24  19  14  21 
4 30  23  19  24 
4 39  31  23  30 
4 48  41  31  39 
4 58  52  41  48 
4 69  65  52  58 
4 83  80  65  69 
4 100  96  80  83 
4 118  113  96  100 
4 137  133  113  118 
4 158  152  133  137 
4 181  173  152  158 
4 203  197  173  181 
4 225  219  197  203 
4 244  241  219  225 
4 263  260  241  244 
4 283  277  260  263 
4 300  297  277  283 
4 12  7  5  10 
4 14  8  7  12 
4 19  13  8  14 
4 23  20  13  19 
4 31  28  20  23 
4 41  37  28  31 
4 52  50  37  41 
4 65  62  50  52 
4 80  75  62  65 
4 96  92  75  80 
4 113  107  92  96 
4 133  127  107  113 
4 152  147  127  133 
4 173  168  147  152 
4 197  193  168  173 
4 219  216  193  197 
4 241  237  216  219 
4 260  258  237  241 
4 277  275  258  260 
4 297  295  275  277 
4 7  3  2  5 
4 8  6  3  7 
4 13  11  6  8 
4 20  17  11  13 
4 28  26  17  20 
4 37  35  26  28 
4 50  44  35  37 
4 62  57  44  50 
4 75  72  57  62 
4 92  88  72  75 
4 107  105  88  92 
4 127  122  105  107 
4 147  144  122  127 
4 168  166  144  147 
4 193  189  166  168 
4 216  215  189  193 
4 237  233  215  216 
4 258  255  233  237 
4 275  274  255  258 
4 295  293  274  275 
4 3  1  0  2 
4 6  4  1  3 
4 11  9  4  6 
4 17  15  9  11 
4 26  22  15  17 
4 35  33  22  26 
4 44  43  33  35 
4 57  56  43  44 
4 72  70  56  57 
4 88  86  70  72 
4 105  104  86  88 
4 122  121  104  105 
4 144  142  121  122 
4 166  164  142  144 
4 189  188  164  166 
4 215  213  188  189 
4 233  232  213  215 
4 255  254  232  233 
4 274  273  254  255 
4 293  291  273  274 
CELL_TYPES 300 
9 
9 
9 
9 
9 
9 
9 
9 
9 
9 
9 
9 
9 
9 
9 
9 
9 
9 
9 
9 
9 
9 
9 
9 
9 
9 
9 
9 
9 
9 
9 
9 
9 
9 
9 
9 
9 
9 
9 
9 
9 
9 
9 
9 
9 
9 
9 
9 
9 
9 
9 
9 
9 
9 
9 
9 
9 
9 
9 
9 
9 
9 
9 
9 
9 
9 
9 
9 
9 
9 
9 
9 
9 
9 
9 
9 
9 
9 
9 
9 
9 
9 
9 
9 
9 
9 
9 
9 
9 
9 
9 
9 
9 
9 
9 
9 
9 
9 
9 
9 
9 
9 
9 
9 
9 
9 
9 
9 
9 
9 
9 
9 
9 
9 
9 
9 
9 
9 
9 
9 
9 
9 
9 
9 
9 
9 
9 
9 
9 
9 
9 
9 
9 
9 
9 
9 
9 
9 
9 
9 
9 
9 
9 
9 
9 
9 
9 
9 
9 
9 
9 
9 
9 
9 
9 
9 
9 
9 
9 
9 
9 
9 
9 
9 
9 
9 
9 
9 
9 
9 
9 
9 
9 
9 
9 
9 
9 
9 
9 
9 
9 
9 
9 
9 
9 
9 
9 
9 
9 
9 
9 
9 
9 
9 
9 
9 
9 
9 
9 
9 
9 
9 
9 
9 
9 
9 
9 
9 
9 
9 
9 
9 
9 
9 
9 
9 
9 
9 
9 
9 
9 
9 
9 
9 
9 
9 
9 
9 
9 
9 
9 
9 
9 
9 
9 
9 
9 
9 
9 
9 
9 
9 
9 
9 
9 
9 
9 
9 
9 
9 
9 
9 
9 
9 
9 
9 
9 
9 
9 
9 
9 
9 
9 
9 
9 
9 
9 
9 
9 
9 
9 
9 
9 
9 
9 
9 
9 
9 
9 
9 
9 
9 
9 
9 
9 
9 
9 
9 
9 
9 
9 
9 
9 
9 
9 
9 
9 
9 
9 
9 
POINT_DATA 336 
VECTORS X_GC float 
-4.000000 2.800000 0.000000 
-3.750000 2.800000 0.000000 
-4.000000 2.546667 0.000000 
-3.750000 2.546667 0.000000 
-3.500000 2.800000 0.000000 
-4.000000 2.293333 0.000000 
-3.500000 2.546667 0.000000 
-3.750000 2.293333 0.000000 
-3.500000 2.293333 0.000000 
-3.250000 2.800000 0.000000 
-4.000000 2.040000 0.000000 
-3.250000 2.546667 0.000000 
-3.750000 2.040000 0.000000 
-3.250000 2.293333 0.000000 
-3.500000 2.040000 0.000000 
-3.000000 2.800000 0.000000 
-4.000000 1.786667 0.000000 
-3.000000 2.546667 0.000000 
-3.750000 1.786667 0.000000 
-3.250000 2.040000 0.000000 
-3.000000 2.293333 0.000000 
-3.500000 1.786667 0.000000 
-2.750000 2.800000 0.000000 
-3.000000 2.040000 0.000000 
-3.250000 1.786667 0.000000 
-4.000000 1.533333 0.000000 
-2.750000 2.546667 0.000000 
-3.750000 1.533333 0.000000 
-2.750000 2.293333 0.000000 
-3.500000 1.533333 0.000000 
-3.000000 1.786667 0.000000 
-2.750000 2.040000 0.000000 
-3.250000 1.533333 0.000000 
-2.500000 2.800000 0.000000 
-4.000000 1.280000 0.000000 
-2.500000 2.546667 0.000000 
-3.750000 1.280000 0.000000 
-2.500000 2.293333 0.000000 
-3.500000 1.280000 0.000000 
-2.750000 1.786667 0.000000 
-3.000000 1.533333 0.000000 
-2.500000 2.040000 0.000000 
-3.250000 1.280000 0.000000 
-2.250000 2.800000 0.000000 
-2.250000 2.546667 0.000000 
-4.000000 1.026667 0.000000 
-2.750000 1.533333 0.000000 
-3.750000 1.026667 0.000000 
-2.500000 1.786667 0.000000 
-3.000000 1.280000 0.000000 
-2.250000 2.293333 0.000000 
-3.500000 1.026667 0.000000 
-2.250000 2.040000 0.000000 
-3.250000 1.026667 0.000000 
-2.500000 1.533333 0.000000 
-2.750000 1.280000 0.000000 
-2.000000 2.800000 0.000000 
-2.000000 2.546667 0.000000 
-2.250000 1.786667 0.000000 
-4.000000 0.773333 0.000000 
-3.000000 1.026667 0.000000 
-3.750000 0.773333 0.000000 
-2.000000 2.293333 0.000000 
-3.500000 0.773333 0.000000 
-2.500000 1.280000 0.000000 
-2.000000 2.040000 0.000000 
-2.250000 1.533333 0.000000 
-3.250000 0.773333 0.000000 
-2.750000 1.026667 0.000000 
-2.000000 1.786667 0.000000 
-1.750000 2.800000 0.000000 
-3.000000 0.773333 0.000000 
-1.750000 2.546667 0.000000 
-4.000000 0.520000 0.000000 
-3.750000 0.520000 0.000000 
-1.750000 2.293333 0.000000 
-2.250000 1.280000 0.000000 
-2.500000 1.026667 0.000000 
-3.500000 0.520000 0.000000 
-2.000000 1.533333 0.000000 
-1.750000 2.040000 0.000000 
-2.750000 0.773333 0.000000 
-3.250000 0.520000 0.000000 
-1.750000 1.786667 0.000000 
-3.000000 0.520000 0.000000 
-2.250000 1.026667 0.000000 
-1.500000 2.800000 0.000000 
-2.000000 1.280000 0.000000 
-1.500000 2.546667 0.000000 
-2.500000 0.773333 0.000000 
-4.000000 0.266667 0.000000 
-3.750000 0.266667 0.000000 
-1.500000 2.293333 0.000000 
-1.750000 1.533333 0.000000 
-3.500000 0.266667 0.000000 
-2.750000 0.520000 0.000000 
-1.500000 2.040000 0.000000 
-3.250000 0.266667 0.000000 
-2.000000 1.026667 0.000000 
-2.250000 0.773333 0.000000 
-1.500000 1.786667 0.000000 
-1.750000 1.280000 0.000000 
-3.000000 0.266667 0.000000 
-2.500000 0.520000 0.000000 
-1.250000 2.800000 0.000000 
-1.250000 2.546667 0.000000 
-4.000000 0.013333 0.000000 
-1.250000 2.293333 0.000000 
-3.750000 0.013333 0.000000 
-1.500000 1.533333 0.000000 
-2.750000 0.266667 0.000000 
-3.500000 0.013333 0.000000 
-2.000000 0.773333 0.000000 
-1.250000 2.040000 0.000000 
-1.750000 1.026667 0.000000 
-2.250000 0.520000 0.000000 
-3.250000 0.013333 0.000000 
-1.500000 1.280000 0.000000 
-1.250000 1.786667 0.000000 
-2.500000 0.266667 0.000000 
-3.000000 0.013333 0.000000 
-1.000000 2.800000 0.000000 
-1.000000 2.546667 0.000000 
-1.250000 1.533333 0.000000 
-1.750000 0.773333 0.000000 
-2.000000 0.520000 0.000000 
-4.000000 -0.240000 0.000000 
-1.000000 2.293333 0.000000 
-3.750000 -0.240000 0.000000 
-2.750000 0.013333 0.000000 
-1.500000 1.026667 0.000000 
-2.250000 0.266667 0.000000 
-3.500000 -0.240000 0.000000 
-1.000000 2.040000 0.000000 
-3.250000 -0.240000 0.000000 
-1.250000 1.280000 0.000000 
-2.500000 0.013333 0.000000 
-1.000000 1.786667 0.000000 
-3.000000 -0.240000 0.000000 
-1.750000 0.520000 0.000000 
-1.500000 0.773333 0.000000 
-2.000000 0.266667 0.000000 
-0.750000 2.800000 0.000000 
-1.000000 1.533333 0.000000 
-0.750000 2.546667 0.000000 
-1.250000 1.026667 0.000000 
-2.750000 -0.240000 0.000000 
-0.750000 2.293333 0.000000 
-2.250000 0.013333 0.000000 
-4.000000 -0.493333 0.000000 
-3.750000 -0.493333 0.000000 
-3.500000 -0.493333 0.000000 
-0.750000 2.040000 0.000000 
-1.000000 1.280000 0.000000 
-3.250000 -0.493333 0.000000 
-1.500000 0.520000 0.000000 
-1.750000 0.266667 0.000000 
-2.500000 -0.240000 0.000000 
-0.750000 1.786667 0.000000 
-1.250000 0.773333 0.000000 
-2.000000 0.013333 0.000000 
-3.000000 -0.493333 0.000000 
-1.000000 1.026667 0.000000 
-0.750000 1.533333 0.000000 
-0.500000 2.800000 0.000000 
-2.250000 -0.240000 0.000000 
-0.500000 2.546667 0.000000 
-2.750000 -0.493333 0.000000 
-0.500000 2.293333 0.000000 
-4.000000 -0.746667 0.000000 
-3.750000 -0.746667 0.000000 
-1.500000 0.266667 0.000000 
-1.250000 0.520000 0.000000 
-0.500000 2.040000 0.000000 
-1.750000 0.013333 0.000000 
-3.500000 -0.746667 0.000000 
-0.750000 1.280000 0.000000 
-2.500000 -0.493333 0.000000 
-1.000000 0.773333 0.000000 
-3.250000 -0.746667 0.000000 
-2.000000 -0.240000 0.000000 
-0.500000 1.786667 0.000000 
-3.000000 -0.746667 0.000000 
-0.750000 1.026667 0.000000 
-0.500000 1.533333 0.000000 
-2.250000 -0.493333 0.000000 
-1.250000 0.266667 0.000000 
-1.500000 0.013333 0.000000 
-0.250000 2.800000 0.000000 
-0.250000 2.546667 0.000000 
-2.750000 -0.746667 0.000000 
-1.000000 0.520000 0.000000 
-1.750000 -0.240000 0.000000 
-0.250000 2.293333 0.000000 
-4.000000 -1.000000 0.000000 
-3.750000 -1.000000 0.000000 
-0.500000 1.280000 0.000000 
-0.250000 2.040000 0.000000 
-0.750000 0.773333 0.000000 
-3.500000 -1.000000 0.000000 
-2.500000 -0.746667 0.000000 
-2.000000 -0.493333 0.000000 
-3.250000 -1.000000 0.000000 
-0.250000 1.786667 0.000000 
-1.250000 0.013333 0.000000 
-0.500000 1.026667 0.000000 
-1.000000 0.266667 0.000000 
-3.000000 -1.000000 0.000000 
-1.500000 -0.240000 0.000000 
-2.250000 -0.746667 0.000000 
-0.250000 1.533333 0.000000 
-0.750000 0.520000 0.000000 
-1.750000 -0.493333 0.000000 
0.000000 2.800000 0.000000 
-2.750000 -1.000000 0.000000 
0.000000 2.546667 0.000000 
0.000000 2.293333 0.000000 
-0.500000 0.773333 0.000000 
-0.250000 1.280000 0.000000 
0.000000 2.040000 0.000000 
-2.000000 -0.746667 0.000000 
-2.500000 -1.000000 0.000000 
-1.000000 0.013333 0.000000 
-1.250000 -0.240000 0.000000 
-0.750000 0.266667 0.000000 
0.000000 1.786667 0.000000 
-1.500000 -0.493333 0.000000 
-0.250000 1.026667 0.000000 
-0.500000 0.520000 0.000000 
-2.250000 -1.000000 0.000000 
0.000000 1.533333 0.000000 
-1.750000 -0.746667 0.000000 
0.250000 2.800000 0.000000 
0.250000 2.546667 0.000000 
-0.250000 0.773333 0.000000 
-1.000000 -0.240000 0.000000 
0.000000 1.280000 0.000000 
0.250000 2.293333 0.000000 
-0.750000 0.013333 0.000000 
-1.250000 -0.493333 0.000000 
-2.000000 -1.000000 0.000000 
0.250000 2.040000 0.000000 
-0.500000 0.266667 0.000000 
-1.500000 -0.746667 0.000000 
0.250000 1.786667 0.000000 
0.000000 1.026667 0.000000 
-0.250000 0.520000 0.000000 
-1.750000 -1.000000 0.000000 
0.250000 1.533333 0.000000 
-0.750000 -0.240000 0.000000 
-1.000000 -0.493333 0.000000 
-0.500000 0.013333 0.000000 
0.000000 0.773333 0.000000 
-1.250000 -0.746667 0.000000 
0.500000 2.800000 0.000000 
0.500000 2.546667 0.000000 
0.250000 1.280000 0.000000 
-0.250000 0.266667 0.000000 
0.500000 2.293333 0.000000 
-1.500000 -1.000000 0.000000 
0.500000 2.040000 0.000000 
0.000000 0.520000 0.000000 
0.250000 1.026667 0.000000 
0.500000 1.786667 0.000000 
-0.750000 -0.493333 0.000000 
-0.500000 -0.240000 0.000000 
-1.000000 -0.746667 0.000000 
-0.250000 0.013333 0.000000 
0.500000 1.533333 0.000000 
-1.250000 -1.000000 0.000000 
0.250000 0.773333 0.000000 
0.000000 0.266667 0.000000 
0.500000 1.280000 0.000000 
0.750000 2.800000 0.000000 
0.750000 2.546667 0.000000 
0.750000 2.293333 0.000000 
-0.500000 -0.493333 0.000000 
0.750000 2.040000 0.000000 
-0.750000 -0.746667 0.000000 
0.250000 0.520000 0.000000 
-0.250000 -0.240000 0.000000 
0.500000 1.026667 0.000000 
-1.000000 -1.000000 0.000000 
0.750000 1.786667 0.000000 
0.000000 0.013333 0.000000 
0.750000 1.533333 0.000000 
0.500000 0.773333 0.000000 
0.250000 0.266667 0.000000 
-0.500000 -0.746667 0.000000 
0.750000 1.280000 0.000000 
-0.250000 -0.493333 0.000000 
1.000000 2.800000 0.000000 
-0.750000 -1.000000 0.000000 
1.000000 2.546667 0.000000 
0.000000 -0.240000 0.000000 
1.000000 2.293333 0.000000 
0.500000 0.520000 0.000000 
1.000000 2.040000 0.000000 
0.750000 1.026667 0.000000 
0.250000 0.013333 0.000000 
1.000000 1.786667 0.000000 
1.000000 1.533333 0.000000 
-0.250000 -0.746667 0.000000 
0.500000 0.266667 0.000000 
0.750000 0.773333 0.000000 
-0.500000 -1.000000 0.000000 
0.000000 -0.493333 0.000000 
0.250000 -0.240000 0.000000 
1.000000 1.280000 0.000000 
0.750000 0.520000 0.000000 
0.500000 0.013333 0.000000 
1.000000 1.026667 0.000000 
-0.250000 -1.000000 0.000000 
0.000000 -0.746667 0.000000 
0.250000 -0.493333 0.000000 
0.750000 0.266667 0.000000 
1.000000 0.773333 0.000000 
0.500000 -0.240000 0.000000 
1.000000 0.520000 0.000000 
0.750000 0.013333 0.000000 
0.000000 -1.000000 0.000000 
0.250000 -0.746667 0.000000 
0.500000 -0.493333 0.000000 
1.000000 0.266667 0.000000 
0.750000 -0.240000 0.000000 
0.250000 -1.000000 0.000000 
1.000000 0.013333 0.000000 
0.500000 -0.746667 0.000000 
0.750000 -0.493333 0.000000 
1.000000 -0.240000 0.000000 
0.500000 -1.000000 0.000000 
0.750000 -0.746667 0.000000 
1.000000 -0.493333 0.000000 
0.750000 -1.000000 0.000000 
1.000000 -0.746667 0.000000 
1.000000 -1.000000 0.000000 
SCALARS Active_Nod_Active int 
LOOKUP_TABLE default 
0
0
0
0
0
0
0
4
4
0
0
0
5
0
13
0
0
0
1
9
0
12
0
1
21
0
0
0
0
3
15
0
13
0
0
0
0
0
0
7
21
0
1
0
0
0
21
0
4
7
0
0
0
0
17
14
0
0
4
0
0
0
0
0
13
0
13
0
0
5
0
0
0
0
0
0
14
0
0
16
0
0
0
12
0
10
0
19
0
0
0
0
0
26
0
0
0
0
17
12
28
21
0
0
0
0
0
0
0
43
0
0
21
0
14
17
0
21
33
13
0
0
0
46
13
25
0
0
0
0
9
29
0
0
0
17
19
28
0
11
5
25
0
40
0
5
0
0
31
0
0
0
0
15
0
6
13
7
37
2
19
0
5
52
0
21
0
0
0
0
0
15
5
21
15
0
17
1
4
0
20
69
0
4
61
11
25
39
0
0
0
7
16
0
0
0
16
27
6
0
0
24
0
57
52
5
24
0
40
2
36
11
22
0
0
0
0
6
9
10
11
0
33
44
25
22
18
6
14
0
15
13
0
0
9
22
8
0
32
19
0
12
26
6
28
12
22
0
24
28
18
26
24
6
0
0
22
32
2
0
34
38
40
55
32
28
10
17
48
0
49
46
49
0
0
3
46
30
18
43
8
46
0
41
29
33
32
53
28
33
23
0
0
0
4
1
19
4
15
49
3
0
16
31
1
0
0
26
0
0
38
0
0
0
29
3
0
32
0
7
0
19
39
0
10
0
0
23
10
0
0
4
0
0
0
0
VECTORS MOMENTUM float 
0.000000 0.000000 0.000000 
0.000000 0.000000 0.000000 
0.000000 0.000000 0.000000 
0.000000 0.000000 0.000000 
0.000000 0.000000 0.000000 
0.000000 0.000000 0.000000 
0.000000 0.000000 0.000000 
0.000000 -1.051625 0.000000 
-0.000000 -1.258124 0.000000 
0.000000 0.000000 0.000000 
0.000000 0.000000 0.000000 
0.000000 0.000000 0.000000 
0.000000 -2.743880 0.000000 
0.000000 0.000000 0.000000 
0.000000 -14.615566 0.000000 
0.000000 0.000000 0.000000 
0.000000 0.000000 0.000000 
0.000000 0.000000 0.000000 
0.000000 -0.009976 0.000000 
-0.000000 -3.449956 0.000000 
0.000000 0.000000 0.000000 
0.000000 -7.760297 0.000000 
0.000000 0.000000 0.000000 
0.000000 -0.022160 0.000000 
-0.000000 -18.073731 0.000000 
0.000000 0.000000 0.000000 
0.000000 0.000000 0.000000 
0.000000 0.000000 0.000000 
0.000000 0.000000 0.000000 
0.000000 -0.289614 0.000000 
0.000000 -10.165751 0.000000 
0.000000 0.000000 0.000000 
-0.000000 -7.539963 0.000000 
0.000000 0.000000 0.000000 
0.000000 0.000000 0.000000 
0.000000 0.000000 0.000000 
0.000000 0.000000 0.000000 
0.000000 0.000000 0.000000 
0.000000 0.000000 0.000000 
0.000000 -5.227418 0.000000 
-0.000000 -18.464428 0.000000 
0.000000 0.000000 0.000000 
-0.000000 -0.032206 0.000000 
0.000000 0.000000 0.000000 
0.000000 0.000000 0.000000 
0.000000 0.000000 0.000000 
0.000000 -21.268935 0.000000 
0.000000 0.000000 0.000000 
0.000000 -4.629022 0.000000 
-0.000000 -1.790332 0.000000 
0.000000 0.000000 0.000000 
0.000000 0.000000 0.000000 
0.000000 0.000000 0.000000 
0.000000 0.000000 0.000000 
-0.000000 -22.004489 0.000000 
0.000000 -6.895010 0.000000 
0.000000 0.000000 0.000000 
0.000000 0.000000 0.000000 
-0.000000 -3.090504 0.000000 
0.000000 0.000000 0.000000 
0.000000 0.000000 0.000000 
0.000000 0.000000 0.000000 
0.000000 0.000000 0.000000 
0.000000 0.000000 0.000000 
-0.000000 -12.010283 0.000000 
0.000000 0.000000 0.000000 
-0.000000 -21.212328 0.000000 
0.000000 0.000000 0.000000 
0.000000 0.000000 0.000000 
-0.000000 -0.588281 0.000000 
0.000000 0.000000 0.000000 
0.000000 0.000000 0.000000 
0.000000 0.000000 0.000000 
0.000000 0.000000 0.000000 
0.000000 0.000000 0.000000 
0.000000 0.000000 0.000000 
0.000000 -18.246346 0.000000 
0.000000 0.000000 0.000000 
0.000000 0.000000 0.000000 
-0.000000 -18.674757 0.000000 
0.000000 0.000000 0.000000 
0.000000 0.000000 0.000000 