# vtk DataFile Version 3.0 
vtk output 
ASCII 
DATASET UNSTRUCTURED_GRID 
POINTS 899 float 
-3.648847 2.332884 0.000000 
-3.619410 2.292332 0.000000 
-3.578536 2.256737 0.000000 
-3.540028 2.221086 0.000000 
-3.511690 2.188891 0.000000 
-3.481362 2.159033 0.000000 
-3.451569 2.118359 0.000000 
0.772356 2.235398 0.000000 
0.774615 2.209277 0.000000 
0.769962 2.180523 0.000000 
-3.399514 2.088083 0.000000 
0.413960 -0.556759 0.000000 
0.455573 -0.552456 0.000000 
-1.762619 -0.456654 0.000000 
-1.783389 -0.421258 0.000000 
-1.714437 -0.392469 0.000000 
0.732567 2.229722 0.000000 
0.698438 2.215886 0.000000 
0.491831 -0.538253 0.000000 
0.519501 -0.507848 0.000000 
0.530556 -0.467402 0.000000 
0.532354 -0.421597 0.000000 
0.531774 -0.371091 0.000000 
-3.460923 2.026351 0.000000 
0.663989 2.193940 0.000000 
0.631675 2.166545 0.000000 
0.601833 2.142490 0.000000 
0.569607 2.119232 0.000000 
0.534059 2.097155 0.000000 
0.492599 2.076015 0.000000 
0.444403 2.057350 0.000000 
0.762807 2.139548 0.000000 
-1.708694 -0.358086 0.000000 
-1.726386 -0.317823 0.000000 
-1.761257 -0.293802 0.000000 
-1.812853 -0.285954 0.000000 
-0.690422 -0.538289 0.000000 
-0.624256 -0.556217 0.000000 
-0.561079 -0.564398 0.000000 
-0.500739 -0.565854 0.000000 
-0.445387 -0.565916 0.000000 
0.532260 -0.312007 0.000000 
0.536647 -0.242674 0.000000 
-1.881389 -0.273453 0.000000 
-0.389303 -0.563642 0.000000 
-0.340338 -0.548356 0.000000 
-0.344339 -0.494221 0.000000 
-0.358558 -0.441682 0.000000 
-0.381750 -0.400770 0.000000 
-0.406193 -0.366595 0.000000 
-0.417316 -0.335098 0.000000 
-0.428320 -0.300841 0.000000 
-0.436973 -0.256576 0.000000 
-0.444212 -0.201033 0.000000 
-0.452662 -0.142175 0.000000 
-0.468602 -0.085276 0.000000 
0.553166 -0.177959 0.000000 
0.573193 -0.120288 0.000000 
0.574450 -0.068547 0.000000 
0.561087 -0.018227 0.000000 
0.550432 0.037096 0.000000 
0.748903 2.086230 0.000000 
0.730940 2.029738 0.000000 
0.715868 1.983579 0.000000 
0.699446 1.947451 0.000000 
0.684888 1.906461 0.000000 
0.675900 1.860257 0.000000 
0.669871 1.810697 0.000000 
0.664455 1.762840 0.000000 
0.668163 1.716421 0.000000 
0.672091 1.666587 0.000000 
0.674558 1.618564 0.000000 
0.673045 1.568484 0.000000 
0.386491 2.047670 0.000000 
0.664855 1.509745 0.000000 
0.652298 1.451668 0.000000 
0.638456 1.398018 0.000000 
0.623121 1.348508 0.000000 
0.616008 1.305481 0.000000 
0.600787 1.270538 0.000000 
0.571289 1.241090 0.000000 
0.539016 1.209928 0.000000 
0.513857 1.181029 0.000000 
0.493343 1.154794 0.000000 
0.469109 1.136982 0.000000 
0.444920 1.120537 0.000000 
0.415324 1.099571 0.000000 
0.383540 1.074819 0.000000 
0.356179 1.045487 0.000000 
0.343879 1.006587 0.000000 
0.337476 0.961067 0.000000 
0.332404 0.915780 0.000000 
0.328512 0.876090 0.000000 
0.319594 0.840011 0.000000 
0.304149 0.806600 0.000000 
0.290502 0.766209 0.000000 
0.275896 0.718347 0.000000 
0.261905 0.676377 0.000000 
0.250150 0.642782 0.000000 
0.250896 0.604977 0.000000 
0.259587 0.562374 0.000000 
0.284617 0.519601 0.000000 
0.315237 0.489940 0.000000 
0.340022 0.470503 0.000000 
0.354380 0.444654 0.000000 
0.368685 0.417511 0.000000 
0.385568 0.391115 0.000000 
0.415372 0.366318 0.000000 
0.447119 0.334606 0.000000 
0.477633 0.306689 0.000000 
0.503078 0.278753 0.000000 
0.518876 0.240699 0.000000 
0.527127 0.204730 0.000000 
0.534187 0.160185 0.000000 
0.543185 0.099405 0.000000 
0.322519 2.036614 0.000000 
0.263849 2.023497 0.000000 
0.208223 2.018077 0.000000 
0.150441 2.014249 0.000000 
-0.687392 -0.465222 0.000000 
-3.327058 2.061851 0.000000 
-3.276080 2.015430 0.000000 
-3.224941 1.981843 0.000000 
-3.181728 1.952685 0.000000 
-3.135074 1.915755 0.000000 
-3.078123 1.891462 0.000000 
-1.944260 -0.228575 0.000000 
0.083204 2.019405 0.000000 
0.005786 2.014052 0.000000 
-0.071812 2.023290 0.000000 
-0.135705 2.052832 0.000000 
-0.182391 2.094438 0.000000 
-1.999041 -0.157606 0.000000 
-1.843230 -0.432115 0.000000 
-0.491126 -0.021316 0.000000 
-0.512312 0.051927 0.000000 
-0.526535 0.114759 0.000000 
-0.527935 0.176881 0.000000 
-0.524207 0.244051 0.000000 
-0.505864 0.301183 0.000000 
-0.468875 0.350395 0.000000 
-0.410369 0.379640 0.000000 
-0.354013 0.400757 0.000000 
-0.301050 0.410702 0.000000 
-0.255730 0.411475 0.000000 
-0.695595 -0.386926 0.000000 
-0.726457 -0.310045 0.000000 
-0.747352 -0.240589 0.000000 
-3.396487 2.004716 0.000000 
-3.344056 1.925328 0.000000 
-3.294256 1.881927 0.000000 
-3.248246 1.843603 0.000000 
-3.196818 1.804250 0.000000 
-3.159669 1.752939 0.000000 
-3.113281 1.706235 0.000000 
-3.056061 1.686671 0.000000 
-2.996684 1.664047 0.000000 
-2.933161 1.634430 0.000000 
-2.879064 1.598288 0.000000 
-2.813006 1.573502 0.000000 
-2.751664 1.550452 0.000000 
-2.686782 1.521129 0.000000 
-1.922020 -0.429308 0.000000 
-1.999705 -0.430807 0.000000 
-2.060018 -0.409203 0.000000 
-2.032615 -0.074216 0.000000 
-2.048550 0.011506 0.000000 
-2.029059 0.077399 0.000000 
-2.105228 -0.352145 0.000000 
-2.154373 -0.284550 0.000000 
-2.203584 -0.229926 0.000000 
-2.237020 -0.168491 0.000000 
-2.250593 -0.103198 0.000000 
-2.270119 -0.031414 0.000000 
-2.297898 0.038896 0.000000 
-2.327118 0.100476 0.000000 
-2.346747 0.154446 0.000000 
-2.362840 0.207555 0.000000 
-2.374561 0.258600 0.000000 
-2.373128 0.310575 0.000000 
-2.334174 0.377166 0.000000 
-2.331842 0.417784 0.000000 
-2.284565 0.426543 0.000000 
-0.236368 2.143973 0.000000 
-0.299146 2.187800 0.000000 
-0.346614 2.207725 0.000000 
-0.382877 2.171222 0.000000 
-0.412447 2.142172 0.000000 
-0.433989 2.101884 0.000000 
-0.446472 2.058918 0.000000 
-0.451628 2.019600 0.000000 
-0.451047 1.981137 0.000000 
-0.449242 1.945134 0.000000 
-0.453345 1.913244 0.000000 
-0.460251 1.885551 0.000000 
-0.470304 1.856766 0.000000 
-0.475290 1.827276 0.000000 
-0.478341 1.797490 0.000000 
-0.479442 1.760754 0.000000 
-2.609147 1.507340 0.000000 
-2.517189 1.501841 0.000000 
-2.434013 1.502178 0.000000 
-2.352624 1.492146 0.000000 
-2.274410 1.472775 0.000000 
-2.204499 1.438127 0.000000 
-2.180326 1.369244 0.000000 
-2.178559 1.280708 0.000000 
-2.168273 1.190679 0.000000 
-2.159086 1.092615 0.000000 
-2.144575 1.003456 0.000000 
-2.163040 0.928239 0.000000 
-2.183612 0.854147 0.000000 
-2.172907 0.789590 0.000000 
-2.161614 0.726835 0.000000 
-2.169833 0.666723 0.000000 
-2.188987 0.604970 0.000000 
-2.218663 0.553724 0.000000 
-2.229021 0.497851 0.000000 
-2.997130 1.874665 0.000000 
-3.021908 1.776527 0.000000 
-2.902046 1.843158 0.000000 
-0.770600 -0.157996 0.000000 
-0.790096 -0.066337 0.000000 
-0.811857 0.014371 0.000000 
-0.835807 0.092935 0.000000 
-0.859157 0.163063 0.000000 
-0.881226 0.223114 0.000000 
-0.903169 0.282465 0.000000 
-0.928196 0.346509 0.000000 
-2.785442 1.810605 0.000000 
-2.944278 1.749863 0.000000 
-2.855014 1.712717 0.000000 
-2.796189 1.652637 0.000000 
-2.651235 1.795858 0.000000 
-2.517962 1.785511 0.000000 
-2.394240 1.776348 0.000000 
-2.275192 1.768352 0.000000 
-2.180847 1.743791 0.000000 
-2.099904 1.717311 0.000000 
-2.018420 1.686072 0.000000 
-1.945469 1.690369 0.000000 
-1.885190 1.723709 0.000000 
-1.829736 1.744278 0.000000 
-1.760875 1.769509 0.000000 
-1.680504 1.797934 0.000000 
-1.617798 1.816251 0.000000 
-1.570169 1.830774 0.000000 
-1.527149 1.844964 0.000000 
-1.482581 1.857093 0.000000 
-1.433927 1.863634 0.000000 
-1.386311 1.871549 0.000000 
-1.337319 1.880279 0.000000 
-1.286363 1.887359 0.000000 
-1.235962 1.888076 0.000000 
-1.188452 1.892889 0.000000 
-1.140860 1.902340 0.000000 
-1.091558 1.901649 0.000000 
-1.038962 1.890631 0.000000 
-0.982519 1.871633 0.000000 
-0.922315 1.854891 0.000000 
-0.869867 1.844566 0.000000 
-0.827747 1.838076 0.000000 
-0.785371 1.833164 0.000000 
-0.748025 1.823427 0.000000 
-0.712781 1.813160 0.000000 
-0.681690 1.799228 0.000000 
-0.657198 1.788094 0.000000 
-0.633895 1.781431 0.000000 
-0.612002 1.776976 0.000000 
-0.594184 1.769763 0.000000 
-0.577381 1.760313 0.000000 
-0.560109 1.745029 0.000000 
-0.540091 1.712575 0.000000 
-1.243914 0.073729 0.000000 
-1.232782 0.087446 0.000000 
-1.257376 0.059375 0.000000 
-1.224378 0.106146 0.000000 
-1.271472 0.040030 0.000000 
-1.215702 0.128143 0.000000 
-1.204660 0.154199 0.000000 
-1.290143 0.012288 0.000000 
-1.314447 -0.032752 0.000000 
-1.190204 0.184506 0.000000 
-1.318041 -0.086106 0.000000 
-1.171655 0.218662 0.000000 
-1.149359 0.254976 0.000000 
-1.123094 0.293225 0.000000 
-1.284246 -0.136086 0.000000 
-1.239750 -0.186812 0.000000 
-1.083297 0.337216 0.000000 
-1.028190 0.368887 0.000000 
-1.181630 -0.229168 0.000000 
-1.112789 -0.260596 0.000000 
-1.040643 -0.272766 0.000000 
-0.978118 -0.275853 0.000000 
-0.927392 -0.288878 0.000000 
-0.889718 -0.328013 0.000000 
-0.873564 -0.384563 0.000000 
-0.920771 -0.416757 0.000000 
-0.935346 -0.349489 0.000000 
-0.991249 -0.426333 0.000000 
-1.088918 -0.423605 0.000000 
-1.067426 -0.343953 0.000000 
-1.189474 -0.416041 0.000000 
-1.147229 -0.331286 0.000000 
-1.266509 -0.392751 0.000000 
-1.219913 -0.305108 0.000000 
-1.335307 -0.356925 0.000000 
-1.284456 -0.267109 0.000000 
-1.402357 -0.313021 0.000000 
-1.341444 -0.219309 0.000000 
-1.466758 -0.260345 0.000000 
-1.539152 -0.199546 0.000000 
-1.393011 -0.161378 0.000000 
-1.612839 -0.129275 0.000000 
-1.665320 -0.071697 0.000000 
-1.691220 -0.006870 0.000000 
-1.704696 0.078624 0.000000 
-1.850073 0.245493 0.000000 
-1.911042 0.189668 0.000000 
-1.969645 0.132831 0.000000 
-1.726970 0.185034 0.000000 
-0.222881 0.392864 0.000000 
-0.195707 0.365281 0.000000 
-0.164205 0.328334 0.000000 
-0.127520 0.295636 0.000000 
-0.095686 0.266144 0.000000 
-0.059027 0.237666 0.000000 
-0.018954 0.207683 0.000000 
0.030296 0.176412 0.000000 
0.086536 0.155886 0.000000 
0.141893 0.137155 0.000000 
0.202102 0.107875 0.000000 
0.263408 0.067958 0.000000 
0.311661 0.017971 0.000000 
0.333954 -0.041651 0.000000 
0.338621 -0.102102 0.000000 
0.341530 -0.156040 0.000000 
0.353165 -0.206229 0.000000 
0.365710 -0.264651 0.000000 
0.363543 -0.334180 0.000000 
[...]
POINT_DATA 899 
VECTORS X_GC float 
-3.648847 2.332884 0.000000 
-3.619410 2.292332 0.000000 
-3.578536 2.256737 0.000000 
-3.540028 2.221086 0.000000 
-3.511690 2.188891 0.000000 
-3.481362 2.159033 0.000000 
-3.451569 2.118359 0.000000 
0.772356 2.235398 0.000000 
0.774615 2.209277 0.000000 
0.769962 2.180523 0.000000 
-3.399514 2.088083 0.000000 
0.413960 -0.556759 0.000000 
0.455573 -0.552456 0.000000 
-1.762619 -0.456654 0.000000 
-1.783389 -0.421258 0.000000 
-1.714437 -0.392469 0.000000 
0.732567 2.229722 0.000000 
0.698438 2.215886 0.000000 
0.491831 -0.538253 0.000000 
0.519501 -0.507848 0.000000 
0.530556 -0.467402 0.000000 
0.532354 -0.421597 0.000000 
0.531774 -0.371091 0.000000 
-3.460923 2.026351 0.000000 
0.663989 2.193940 0.000000 
0.631675 2.166545 0.000000 
0.601833 2.142490 0.000000 
0.569607 2.119232 0.000000 
0.534059 2.097155 0.000000 
0.492599 2.076015 0.000000 
0.444403 2.057350 0.000000 
0.762807 2.139548 0.000000 
-1.708694 -0.358086 0.000000 
-1.726386 -0.317823 0.000000 
-1.761257 -0.293802 0.000000 
-1.812853 -0.285954 0.000000 
-0.690422 -0.538289 0.000000 
-0.624256 -0.556217 0.000000 
-0.561079 -0.564398 0.000000 
-0.500739 -0.565854 0.000000 
-0.445387 -0.565916 0.000000 
0.532260 -0.312007 0.000000 
0.536647 -0.242674 0.000000 
-1.881389 -0.273453 0.000000 
-0.389303 -0.563642 0.000000 
-0.340338 -0.548356 0.000000 
-0.344339 -0.494221 0.000000 
-0.358558 -0.441682 0.000000 
-0.381750 -0.400770 0.000000 
-0.406193 -0.366595 0.000000 
-0.417316 -0.335098 0.000000 
-0.428320 -0.300841 0.000000 
-0.436973 -0.256576 0.000000 
-0.444212 -0.201033 0.000000 
-0.452662 -0.142175 0.000000 
-0.468602 -0.085276 0.000000 
0.553166 -0.177959 0.000000 
0.573193 -0.120288 0.000000 
0.574450 -0.068547 0.000000 
0.561087 -0.018227 0.000000 
0.550432 0.037096 0.000000 
0.748903 2.086230 0.000000 
0.730940 2.029738 0.000000 
0.715868 1.983579 0.000000 
0.699446 1.947451 0.000000 
0.684888 1.906461 0.000000 
0.675900 1.860257 0.000000 
0.669871 1.810697 0.000000 
0.664455 1.762840 0.000000 
0.668163 1.716421 0.000000 
0.672091 1.666587 0.000000 
0.674558 1.618564 0.000000 
0.673045 1.568484 0.000000 
0.386491 2.047670 0.000000 
0.664855 1.509745 0.000000 
0.652298 1.451668 0.000000 
0.638456 1.398018 0.000000 
0.623121 1.348508 0.000000 
0.616008 1.305481 0.000000 
0.600787 1.270538 0.000000 
0.571289 1.241090 0.000000 
0.539016 1.209928 0.000000 
0.513857 1.181029 0.000000 
0.493343 1.154794 0.000000 
0.469109 1.136982 0.000000 
0.444920 1.120537 0.000000 
0.415324 1.099571 0.000000 
0.383540 1.074819 0.000000 
0.356179 1.045487 0.000000 
0.343879 1.006587 0.000000 
0.337476 0.961067 0.000000 
0.332404 0.915780 0.000000 
0.328512 0.876090 0.000000 
0.319594 0.840011 0.000000 
0.304149 0.806600 0.000000 
0.290502 0.766209 0.000000 
0.275896 0.718347 0.000000 
0.261905 0.676377 0.000000 
0.250150 0.642782 0.000000 
0.250896 0.604977 0.000000 
0.259587 0.562374 0.000000 
0.284617 0.519601 0.000000 
0.315237 0.489940 0.000000 
0.340022 0.470503 0.000000 
0.354380 0.444654 0.000000 
0.368685 0.417511 0.000000 
0.385568 0.391115 0.000000 
0.415372 0.366318 0.000000 
0.447119 0.334606 0.000000 
0.477633 0.306689 0.000000 
0.503078 0.278753 0.000000 
0.518876 0.240699 0.000000 
0.527127 0.204730 0.000000 
0.534187 0.160185 0.000000 
0.543185 0.099405 0.000000 
0.322519 2.036614 0.000000 
0.263849 2.023497 0.000000 
0.208223 2.018077 0.000000 
0.150441 2.014249 0.000000 
-0.687392 -0.465222 0.000000 
-3.327058 2.061851 0.000000 
-3.276080 2.015430 0.000000 
-3.224941 1.981843 0.000000 
-3.181728 1.952685 0.000000 
-3.135074 1.915755 0.000000 
-3.078123 1.891462 0.000000 
-1.944260 -0.228575 0.000000 
0.083204 2.019405 0.000000 
0.005786 2.014052 0.000000 
-0.071812 2.023290 0.000000 
-0.135705 2.052832 0.000000 
-0.182391 2.094438 0.000000 
-1.999041 -0.157606 0.000000 
-1.843230 -0.432115 0.000000 
-0.491126 -0.021316 0.000000 
-0.512312 0.051927 0.000000 
-0.526535 0.114759 0.000000 
-0.527935 0.176881 0.000000 
-0.524207 0.244051 0.000000 
-0.505864 0.301183 0.000000 
-0.468875 0.350395 0.000000 
-0.410369 0.379640 0.000000 
-0.354013 0.400757 0.000000 
-0.301050 0.410702 0.000000 
-0.255730 0.411475 0.000000 
-0.695595 -0.386926 0.000000 
-0.726457 -0.310045 0.000000 
-0.747352 -0.240589 0.000000 
-3.396487 2.004716 0.000000 
-3.344056 1.925328 0.000000 
-3.294256 1.881927 0.000000 
-3.248246 1.843603 0.000000 
-3.196818 1.804250 0.000000 
-3.159669 1.752939 0.000000 
-3.113281 1.706235 0.000000 
-3.056061 1.686671 0.000000 
-2.996684 1.664047 0.000000 
-2.933161 1.634430 0.000000 
-2.879064 1.598288 0.000000 
-2.813006 1.573502 0.000000 
-2.751664 1.550452 0.000000 
-2.686782 1.521129 0.000000 
-1.922020 -0.429308 0.000000 
-1.999705 -0.430807 0.000000 
-2.060018 -0.409203 0.000000 
-2.032615 -0.074216 0.000000 
-2.048550 0.011506 0.000000 
-2.029059 0.077399 0.000000 
-2.105228 -0.352145 0.000000 
-2.154373 -0.284550 0.000000 
-2.203584 -0.229926 0.000000 
-2.237020 -0.168491 0.000000 
-2.250593 -0.103198 0.000000 
-2.270119 -0.031414 0.000000 
-2.297898 0.038896 0.000000 
-2.327118 0.100476 0.000000 
-2.346747 0.154446 0.000000 
-2.362840 0.207555 0.000000 
-2.374561 0.258600 0.000000 
-2.373128 0.310575 0.000000 
-2.334174 0.377166 0.000000 
-2.331842 0.417784 0.000000 
-2.284565 0.426543 0.000000 
-0.236368 2.143973 0.000000 
-0.299146 2.187800 0.000000 
-0.346614 2.207725 0.000000 
-0.382877 2.171222 0.000000 
-0.412447 2.142172 0.000000 
-0.433989 2.101884 0.000000 
-0.446472 2.058918 0.000000 
-0.451628 2.019600 0.000000 
-0.451047 1.981137 0.000000 
-0.449242 1.945134 0.000000 
-0.453345 1.913244 0.000000 
-0.460251 1.885551 0.000000 
-0.470304 1.856766 0.000000 
-0.475290 1.827276 0.000000 
-0.478341 1.797490 0.000000 
-0.479442 1.760754 0.000000 
-2.609147 1.507340 0.000000 
-2.517189 1.501841 0.000000 
-2.434013 1.502178 0.000000 
-2.352624 1.492146 0.000000 
-2.274410 1.472775 0.000000 
-2.204499 1.438127 0.000000 
-2.180326 1.369244 0.000000 
-2.178559 1.280708 0.000000 
-2.168273 1.190679 0.000000 
-2.159086 1.092615 0.000000 
-2.144575 1.003456 0.000000 
-2.163040 0.928239 0.000000 
-2.183612 0.854147 0.000000 
-2.172907 0.789590 0.000000 
-2.161614 0.726835 0.000000 
-2.169833 0.666723 0.000000 
-2.188987 0.604970 0.000000 
-2.218663 0.553724 0.000000 
-2.229021 0.497851 0.000000 
-2.997130 1.874665 0.000000 
-3.021908 1.776527 0.000000 
-2.902046 1.843158 0.000000 
-0.770600 -0.157996 0.000000 
-0.790096 -0.066337 0.000000 
-0.811857 0.014371 0.000000 
-0.835807 0.092935 0.000000 
-0.859157 0.163063 0.000000 
-0.881226 0.223114 0.000000 
-0.903169 0.282465 0.000000 
-0.928196 0.346509 0.000000 
-2.785442 1.810605 0.000000 
-2.944278 1.749863 0.000000 
-2.855014 1.712717 0.000000 
-2.796189 1.652637 0.000000 
-2.651235 1.795858 0.000000 
-2.517962 1.785511 0.000000 
-2.394240 1.776348 0.000000 
-2.275192 1.768352 0.000000 
-2.180847 1.743791 0.000000 
-2.099904 1.717311 0.000000 
-2.018420 1.686072 0.000000 
-1.945469 1.690369 0.000000 
-1.885190 1.723709 0.000000 
-1.829736 1.744278 0.000000 
-1.760875 1.769509 0.000000 
-1.680504 1.797934 0.000000 
-1.617798 1.816251 0.000000 
-1.570169 1.830774 0.000000 
-1.527149 1.844964 0.000000 
-1.482581 1.857093 0.000000 
-1.433927 1.863634 0.000000 
-1.386311 1.871549 0.000000 
-1.337319 1.880279 0.000000 
-1.286363 1.887359 0.000000 
-1.235962 1.888076 0.000000 
-1.188452 1.892889 0.000000 
-1.140860 1.902340 0.000000 
-1.091558 1.901649 0.000000 
-1.038962 1.890631 0.000000 
-0.982519 1.871633 0.000000 
-0.922315 1.854891 0.000000 
-0.869867 1.844566 0.000000 
-0.827747 1.838076 0.000000 
-0.785371 1.833164 0.000000 
-0.748025 1.823427 0.000000 
-0.712781 1.813160 0.000000 
-0.681690 1.799228 0.000000 
-0.657198 1.788094 0.000000 
-0.633895 1.781431 0.000000 
-0.612002 1.776976 0.000000 
-0.594184 1.769763 0.000000 
-0.577381 1.760313 0.000000 
-0.560109 1.745029 0.000000 
-0.540091 1.712575 0.000000 
-1.243914 0.073729 0.000000 
-1.232782 0.087446 0.000000 
-1.257376 0.059375 0.000000 
-1.224378 0.106146 0.000000 
-1.271472 0.040030 0.000000 
-1.215702 0.128143 0.000000 
-1.204660 0.154199 0.000000 
-1.290143 0.012288 0.000000 
-1.314447 -0.032752 0.000000 
-1.190204 0.184506 0.000000 
-1.318041 -0.086106 0.000000 
-1.171655 0.218662 0.000000 
-1.149359 0.254976 0.000000 
-1.123094 0.293225 0.000000 
-1.284246 -0.136086 0.000000 
-1.239750 -0.186812 0.000000 
-1.083297 0.337216 0.000000 
-1.028190 0.368887 0.000000 
-1.181630 -0.229168 0.000000 
-1.112789 -0.260596 0.000000 
-1.040643 -0.272766 0.000000 
-0.978118 -0.275853 0.000000 
-0.927392 -0.288878 0.000000 
-0.889718 -0.328013 0.000000 
-0.873564 -0.384563 0.000000 
-0.920771 -0.416757 0.000000 
-0.935346 -0.349489 0.000000 
-0.991249 -0.426333 0.000000 
-1.088918 -0.423605 0.000000 
-1.067426 -0.343953 0.000000 
-1.189474 -0.416041 0.000000 
-1.147229 -0.331286 0.000000 
-1.266509 -0.392751 0.000000 
-1.219913 -0.305108 0.000000 
-1.335307 -0.356925 0.000000 
-1.284456 -0.267109 0.000000 
-1.402357 -0.313021 0.000000 
-1.341444 -0.219309 0.000000 
-1.466758 -0.260345 0.000000 
-1.539152 -0.199546 0.000000 
-1.393011 -0.161378 0.000000 
-1.612839 -0.129275 0.000000 
-1.665320 -0.071697 0.000000 
-1.691220 -0.006870 0.000000 
-1.704696 0.078624 0.000000 
-1.850073 0.245493 0.000000 
-1.911042 0.189668 0.000000 
-1.969645 0.132831 0.000000 
-1.726970 0.185034 0.000000 
-0.222881 0.392864 0.000000 
-0.195707 0.365281 0.000000 
-0.164205 0.328334 0.000000 
-0.127520 0.295636 0.000000 
-0.095686 0.266144 0.000000 
-0.059027 0.237666 0.000000 
-0.018954 0.207683 0.000000 
0.030296 0.176412 0.000000 
0.086536 0.155886 0.000000 
0.141893 0.137155 0.000000 
0.202102 0.107875 0.000000 
0.263408 0.067958 0.000000 
0.311661 0.017971 0.000000 
0.333954 -0.041651 0.000000 
0.338621 -0.102102 0.000000 
0.341530 -0.156040 0.000000 
0.353165 -0.206229 0.000000 
0.365710 -0.264651 0.000000 
0.363543 -0.334180 0.000000 
0.357353 -0.396295 0.000000 
0.351188 -0.447037 0.000000 
0.363842 -0.494065 0.000000 
-1.737069 -0.360716 0.000000 
-0.199590 0.445481 0.000000 
-0.156305 0.415565 0.000000 
-0.462327 1.681521 0.000000 
0.741313 2.204096 0.000000 
0.482415 -0.504836 0.000000 
0.446104 -0.512732 0.000000 
0.403556 -0.518386 0.000000 
-0.104001 0.387500 0.000000 
-0.514998 1.613576 0.000000 
-0.059937 0.353096 0.000000 
0.738519 2.178831 0.000000 
0.714572 2.191131 0.000000 
-0.249752 0.472305 0.000000 
-0.036232 0.309297 0.000000 
0.000772 0.281465 0.000000 
0.035161 0.255820 0.000000 
-1.776537 -0.360158 0.000000 
-1.836238 -0.355973 0.000000 
-0.309416 0.486405 0.000000 
-0.378944 0.484141 0.000000 
-2.292732 0.363729 0.000000 
-2.315166 0.313738 0.000000 
-2.314418 0.266181 0.000000 
-2.293418 0.219795 0.000000 
-2.279687 0.169916 0.000000 
-2.253462 0.122650 0.000000 
0.075120 0.228078 0.000000 
0.131113 0.215470 0.000000 
-0.977004 0.417453 0.000000 
-0.860050 0.407288 0.000000 
-1.912142 -0.347917 0.000000 
-1.989966 -0.356697 0.000000 
-2.023752 -0.289155 0.000000 
-2.082175 -0.217894 0.000000 
0.723889 2.147318 0.000000 
0.691466 2.166160 0.000000 
0.665980 2.133514 0.000000 
0.704783 2.106246 0.000000 
0.637970 2.095456 0.000000 
0.681732 2.059037 0.000000 
0.670916 2.012862 0.000000 
0.602858 2.063788 0.000000 
0.659584 1.972438 0.000000 
0.560783 2.037417 0.000000 
0.636111 1.936363 0.000000 
0.607495 1.886573 0.000000 
0.595324 1.823092 0.000000 
0.604052 1.758419 0.000000 
0.514160 2.008013 0.000000 
0.453857 1.980568 0.000000 
0.392525 1.978590 0.000000 
0.334098 1.977061 0.000000 
0.278675 1.958308 0.000000 
0.217273 1.940233 0.000000 
0.149449 1.922877 0.000000 
0.614128 1.706143 0.000000 
0.621313 1.658564 0.000000 
0.624262 1.613684 0.000000 
-2.197766 0.069462 0.000000 
-2.158682 -0.005462 0.000000 
-2.124695 0.128792 0.000000 
-2.150589 -0.171588 0.000000 
-2.141926 -0.094043 0.000000 
-0.393439 -0.510603 0.000000 
-0.412631 -0.466559 0.000000 
-0.436983 -0.425956 0.000000 
-0.445953 -0.382536 0.000000 
-0.458251 -0.349710 0.000000 
-0.479726 -0.314944 0.000000 
-0.496934 -0.266213 0.000000 
-0.509002 -0.211130 0.000000 
-0.517157 -0.156799 0.000000 
-0.545309 -0.105524 0.000000 
-0.442273 -0.507997 0.000000 
-0.496002 -0.498480 0.000000 
-0.557668 -0.500587 0.000000 
-0.618975 -0.485106 0.000000 
-0.334659 2.145912 0.000000 
-0.367985 2.116195 0.000000 
-0.385153 2.079769 0.000000 
-0.396797 2.045902 0.000000 
-0.406285 2.010380 0.000000 
-0.402558 1.971246 0.000000 
-0.406645 1.932803 0.000000 
-0.418378 1.900389 0.000000 
-0.428059 1.871263 0.000000 
-0.435849 1.841716 0.000000 
-0.442335 1.811681 0.000000 
-0.445406 1.778616 0.000000 
-0.444483 1.732900 0.000000 
0.619822 1.567952 0.000000 
-1.077870 0.464517 0.000000 
-1.149036 0.422558 0.000000 
-1.174735 0.347716 0.000000 
-1.192231 0.295993 0.000000 
-1.210811 0.254216 0.000000 
-1.228352 0.214876 0.000000 
-1.238869 0.176896 0.000000 
-1.244643 0.145399 0.000000 
-1.248534 0.120498 0.000000 
-1.252336 0.101210 0.000000 
-1.262323 0.087959 0.000000 
-1.280319 0.077043 0.000000 
-0.451814 0.461481 0.000000 
-0.526928 0.417959 0.000000 
0.194935 0.198478 0.000000 
0.069048 1.908777 0.000000 
-0.574175 0.347275 0.000000 
-0.593607 0.266172 0.000000 
-1.764101 0.305857 0.000000 
-2.210991 0.424713 0.000000 
-0.825996 0.322011 0.000000 
-0.799223 0.250930 0.000000 
-0.760911 0.184497 0.000000 
0.605964 1.517001 0.000000 
0.587834 1.459640 0.000000 
0.576354 1.399792 0.000000 
0.574971 1.344783 0.000000 
0.580375 1.301759 0.000000 
0.545179 1.279375 0.000000 
0.509957 1.247112 0.000000 
0.484198 1.210710 0.000000 
0.468721 1.179556 0.000000 
0.449386 1.161024 0.000000 
0.422962 1.148359 0.000000 
0.391379 1.129208 0.000000 
0.357154 1.105145 0.000000 
0.323730 1.076772 0.000000 
-0.582151 -0.044656 0.000000 
0.265957 0.172048 0.000000 
0.333763 0.125919 0.000000 
0.378371 0.058903 0.000000 
0.400918 -0.015492 0.000000 
0.401084 -0.078481 0.000000 
0.404345 -0.132582 0.000000 
0.432648 -0.183664 0.000000 
0.450030 -0.248105 0.000000 
0.529803 -0.094952 0.000000 
0.491947 -0.143089 0.000000 
0.453243 -0.093205 0.000000 
0.449550 -0.322429 0.000000 
0.498420 -0.049078 0.000000 
0.474171 0.010863 0.000000 
0.457863 0.085436 0.000000 
0.462195 -0.381083 0.000000 
0.478704 -0.427419 0.000000 
0.483460 -0.468385 0.000000 
0.412910 -0.406725 0.000000 
0.398390 -0.445438 0.000000 
0.404290 -0.479726 0.000000 
0.442452 -0.475167 0.000000 
0.436659 -0.440003 0.000000 
-0.727378 0.110364 0.000000 
-0.616071 0.192382 0.000000 
-0.623548 0.118102 0.000000 
-0.605779 0.037094 0.000000 
-0.706340 0.024646 0.000000 
-0.681483 -0.061616 0.000000 
-0.032304 1.903216 0.000000 
-0.128010 1.939366 0.000000 
-0.195732 2.006490 0.000000 
-0.243911 2.060404 0.000000 
-0.287859 2.107807 0.000000 
-0.335518 2.080112 0.000000 
-0.667608 -0.146997 0.000000 
-0.584906 -0.153765 0.000000 
-0.658169 -0.227005 0.000000 
-0.578442 -0.219135 0.000000 
-0.639050 -0.298448 0.000000 
-0.607982 -0.373965 0.000000 
-0.562541 -0.281835 0.000000 
-0.536184 -0.342858 0.000000 
-0.495978 -0.380820 0.000000 
-0.500680 -0.433214 0.000000 
-0.573051 -0.437667 0.000000 
-2.690892 1.676511 0.000000 
-2.684799 1.590498 0.000000 
-2.602920 1.589236 0.000000 
-2.574381 1.674229 0.000000 
-2.518122 1.609103 0.000000 
-2.424460 1.633001 0.000000 
-2.320006 1.624070 0.000000 
-2.229986 1.600452 0.000000 
-2.146342 1.559212 0.000000 
-1.455055 -0.102396 0.000000 
-1.387692 -0.022073 0.000000 
-1.339496 0.031255 0.000000 
-1.304977 0.059815 0.000000 
-1.531301 -0.036903 0.000000 
-1.604385 0.007209 0.000000 
-1.592423 0.107890 0.000000 
-1.608296 0.231853 0.000000 
-1.827918 0.430298 0.000000 
0.477873 0.199101 0.000000 
0.477147 0.234000 0.000000 
0.465631 0.268240 0.000000 
-0.587742 1.712449 0.000000 
-0.593403 1.736553 0.000000 
-0.604579 1.749209 0.000000 
-0.619289 1.754895 0.000000 
-0.639577 1.752722 0.000000 
-0.665912 1.754338 0.000000 
-0.697937 1.761325 0.000000 
-0.595692 1.658961 0.000000 
-0.726123 1.776136 0.000000 
-0.757398 1.786707 0.000000 
-0.794522 1.784131 0.000000 
-0.841416 1.781553 0.000000 
-0.894922 1.782914 0.000000 
-0.956071 1.791330 0.000000 
-1.020951 1.810251 0.000000 
-1.077937 1.837886 0.000000 
-1.120258 1.866614 0.000000 
-1.171769 1.842354 0.000000 
0.332207 0.395745 0.000000 
0.333662 0.354010 0.000000 
0.321472 0.424362 0.000000 
0.302407 0.451174 0.000000 
0.214022 0.465836 0.000000 
0.194081 0.526861 0.000000 
0.186716 0.582374 0.000000 
0.189303 0.635146 0.000000 
0.360023 0.314328 0.000000 
0.405131 0.289195 0.000000 
0.201671 0.684392 0.000000 
0.218038 0.734653 0.000000 
0.236652 0.783586 0.000000 
0.256885 0.825520 0.000000 
0.278373 0.854014 0.000000 
0.284019 0.887412 0.000000 
0.276718 0.934160 0.000000 
0.278735 0.990973 0.000000 
0.296322 1.041240 0.000000 
-1.507867 1.794112 0.000000 
-1.548116 1.769469 0.000000 
-1.598023 1.742090 0.000000 
-1.467251 1.808885 0.000000 
-1.422160 1.816169 0.000000 
-1.373311 1.822885 0.000000 
-1.322903 1.830662 0.000000 
-1.275577 1.839908 0.000000 
-1.225048 1.838508 0.000000 
-1.662214 1.718421 0.000000 
-1.732600 1.698481 0.000000 
-1.794687 1.684105 0.000000 
-1.841773 1.654918 0.000000 
-2.078405 0.722191 0.000000 
-2.079214 0.800780 0.000000 
-2.097651 0.644591 0.000000 
-2.129318 0.572852 0.000000 
-2.096743 0.881342 0.000000 
-2.169699 0.517508 0.000000 
-1.991686 0.444508 0.000000 
-1.642187 0.370064 0.000000 
-1.989898 0.277283 0.000000 
-2.064526 0.205471 0.000000 
-1.914688 0.350818 0.000000 
-2.037969 1.133895 0.000000 
-2.021377 1.018210 0.000000 
-2.055796 1.263056 0.000000 
-2.102728 1.365709 0.000000 
-2.047875 1.508012 0.000000 
0.428030 0.254743 0.000000 
0.375625 0.233507 0.000000 
0.313454 0.246607 0.000000 
0.290352 0.392642 0.000000 
0.238487 1.103560 0.000000 
0.440631 0.216635 0.000000 
0.396678 0.176858 0.000000 
0.460488 0.150938 0.000000 
0.523747 1.327050 0.000000 
-2.262588 0.290304 0.000000 
-2.220468 0.346332 0.000000 
-2.218579 0.236793 0.000000 
-2.146376 0.288643 0.000000 
-2.206503 0.171723 0.000000 
0.473879 1.288438 0.000000 
0.446488 1.236106 0.000000 
0.440978 1.192087 0.000000 
0.409581 1.184232 0.000000 
0.629179 2.013128 0.000000 
0.593839 1.980654 0.000000 
0.550362 1.936450 0.000000 
0.483841 1.896028 0.000000 
0.202470 1.037195 0.000000 
0.241245 0.889420 0.000000 
0.205152 0.864619 0.000000 
0.175878 0.816479 0.000000 
0.153326 0.757972 0.000000 
0.132079 0.697522 0.000000 
0.113278 0.633066 0.000000 
0.106000 0.564743 0.000000 
0.109640 0.495547 0.000000 
0.121648 0.424869 0.000000 
0.032483 0.335255 0.000000 
0.246820 0.417933 0.000000 
0.099619 0.283620 0.000000 
0.373127 1.169350 0.000000 
-0.307911 2.032490 0.000000 
-0.360136 2.014021 0.000000 
-0.343252 1.959675 0.000000 
-0.270247 1.967819 0.000000 
0.168337 0.280138 0.000000 
0.242346 0.269801 0.000000 
0.270369 0.338838 0.000000 
0.505525 1.394811 0.000000 
-0.689828 0.222066 0.000000 
-0.729540 0.279470 0.000000 
-0.746154 0.353943 0.000000 
-0.657668 0.370507 0.000000 
-0.661195 0.286220 0.000000 
-0.924642 0.523182 0.000000 
-1.137284 1.786546 0.000000 
-1.072920 1.741952 0.000000 
-1.248127 1.798843 0.000000 
-1.304069 1.782520 0.000000 
-1.360197 1.774860 0.000000 
-1.411221 1.770721 0.000000 
-1.453165 1.767491 0.000000 
-1.486003 1.750029 0.000000 
-1.510814 1.706560 0.000000 
-1.558800 1.661891 0.000000 
-0.995058 1.715199 0.000000 
-0.919611 1.704722 0.000000 
-0.852227 1.711655 0.000000 
-0.796966 1.728173 0.000000 
-0.752732 1.747342 0.000000 
-1.635591 1.634558 0.000000 
-1.992480 0.909259 0.000000 
-1.965104 0.799480 0.000000 
-1.974377 0.696147 0.000000 
-2.014368 0.602526 0.000000 
-2.065453 0.519339 0.000000 
-2.071492 0.366272 0.000000 
-2.131272 0.449809 0.000000 
-1.712039 1.621235 0.000000 
-1.781280 1.621185 0.000000 
-1.884796 1.591129 0.000000 
0.516332 1.810791 0.000000 
0.538779 1.739663 0.000000 
0.517174 1.469196 0.000000 
0.552532 1.531133 0.000000 
0.576896 1.573059 0.000000 
0.583356 1.610085 0.000000 
0.576083 1.647090 0.000000 
0.562288 1.689450 0.000000 