# vtk DataFile Version 3.0 
vtk output 
ASCII 
DATASET UNSTRUCTURED_GRID 
POINTS 899 float 
-3.648847 2.336808 0.000000 
-3.619410 2.296256 0.000000 
-3.578536 2.260661 0.000000 
-3.540028 2.225010 0.000000 
-3.511690 2.192815 0.000000 
-3.481362 2.162957 0.000000 
-3.451569 2.122283 0.000000 
0.772356 2.239322 0.000000 
0.774615 2.213201 0.000000 
0.769962 2.184447 0.000000 
-3.399514 2.092007 0.000000 
0.413960 -0.552835 0.000000 
0.455573 -0.548532 0.000000 
-1.762619 -0.452730 0.000000 
-1.783389 -0.417334 0.000000 
-1.714437 -0.388545 0.000000 
0.732567 2.233646 0.000000 
0.698438 2.219810 0.000000 
0.491831 -0.534329 0.000000 
0.519501 -0.503924 0.000000 
0.530556 -0.463478 0.000000 
0.532354 -0.417673 0.000000 
0.531774 -0.367167 0.000000 
-3.460923 2.030275 0.000000 
0.663989 2.197864 0.000000 
0.631675 2.170469 0.000000 
0.601833 2.146414 0.000000 
0.569607 2.123156 0.000000 
0.534059 2.101079 0.000000 
0.492599 2.079939 0.000000 
0.444403 2.061274 0.000000 
0.762807 2.143472 0.000000 
-1.708694 -0.354162 0.000000 
-1.726386 -0.313899 0.000000 
-1.761257 -0.289878 0.000000 
-1.812853 -0.282030 0.000000 
-0.690422 -0.534365 0.000000 
-0.624256 -0.552293 0.000000 
-0.561079 -0.560474 0.000000 
-0.500739 -0.561930 0.000000 
-0.445387 -0.561992 0.000000 
0.532260 -0.308083 0.000000 
0.536647 -0.238750 0.000000 
-1.881389 -0.269529 0.000000 
-0.389303 -0.559718 0.000000 
-0.340338 -0.544432 0.000000 
-0.344339 -0.490297 0.000000 
-0.358558 -0.437758 0.000000 
-0.381750 -0.396846 0.000000 
-0.406193 -0.362671 0.000000 
-0.417316 -0.331174 0.000000 
-0.428320 -0.296917 0.000000 
-0.436973 -0.252652 0.000000 
-0.444212 -0.197109 0.000000 
-0.452662 -0.138251 0.000000 
-0.468602 -0.081352 0.000000 
0.553166 -0.174035 0.000000 
0.573193 -0.116364 0.000000 
0.574450 -0.064623 0.000000 
0.561087 -0.014303 0.000000 
0.550432 0.041020 0.000000 
0.748903 2.090154 0.000000 
0.730940 2.033662 0.000000 
0.715868 1.987503 0.000000 
0.699446 1.951375 0.000000 
0.684888 1.910385 0.000000 
0.675900 1.864181 0.000000 
0.669871 1.814621 0.000000 
0.664455 1.766764 0.000000 
0.668163 1.720345 0.000000 
0.672091 1.670511 0.000000 
0.674558 1.622488 0.000000 
0.673045 1.572408 0.000000 
0.386491 2.051594 0.000000 
0.664855 1.513669 0.000000 
0.652298 1.455592 0.000000 
0.638456 1.401942 0.000000 
0.623121 1.352432 0.000000 
0.616008 1.309405 0.000000 
0.600787 1.274462 0.000000 
0.571289 1.245014 0.000000 
0.539016 1.213852 0.000000 
0.513857 1.184953 0.000000 
0.493343 1.158718 0.000000 
0.469109 1.140906 0.000000 
0.444920 1.124461 0.000000 
0.415324 1.103495 0.000000 
0.383540 1.078743 0.000000 
0.356179 1.049411 0.000000 
0.343879 1.010511 0.000000 
0.337476 0.964991 0.000000 
0.332404 0.919704 0.000000 
0.328512 0.880014 0.000000 
0.319594 0.843935 0.000000 
0.304149 0.810524 0.000000 
0.290502 0.770133 0.000000 
0.275896 0.722271 0.000000 
0.261905 0.680301 0.000000 
0.250150 0.646706 0.000000 
0.250896 0.608901 0.000000 
0.259587 0.566298 0.000000 
0.284617 0.523525 0.000000 
0.315237 0.493864 0.000000 
0.340022 0.474427 0.000000 
0.354380 0.448578 0.000000 
0.368685 0.421435 0.000000 
0.385568 0.395039 0.000000 
0.415372 0.370242 0.000000 
0.447119 0.338530 0.000000 
0.477633 0.310613 0.000000 
0.503078 0.282677 0.000000 
0.518876 0.244623 0.000000 
0.527127 0.208654 0.000000 
0.534187 0.164109 0.000000 
0.543185 0.103329 0.000000 
0.322519 2.040538 0.000000 
0.263849 2.027421 0.000000 
0.208223 2.022001 0.000000 
0.150441 2.018173 0.000000 
-0.687392 -0.461298 0.000000 
-3.327058 2.065775 0.000000 
-3.276080 2.019354 0.000000 
-3.224941 1.985767 0.000000 
-3.181728 1.956609 0.000000 
-3.135074 1.919679 0.000000 
-3.078123 1.895386 0.000000 
-1.944260 -0.224651 0.000000 
0.083204 2.023329 0.000000 
0.005786 2.017976 0.000000 
-0.071812 2.027214 0.000000 
-0.135705 2.056756 0.000000 
-0.182391 2.098362 0.000000 
-1.999041 -0.153682 0.000000 
-1.843230 -0.428191 0.000000 
-0.491126 -0.017392 0.000000 
-0.512312 0.055851 0.000000 
-0.526535 0.118683 0.000000 
-0.527935 0.180805 0.000000 
-0.524207 0.247975 0.000000 
-0.505864 0.305107 0.000000 
-0.468875 0.354319 0.000000 
-0.410369 0.383564 0.000000 
-0.354013 0.404681 0.000000 
-0.301050 0.414626 0.000000 
-0.255730 0.415399 0.000000 
-0.695595 -0.383002 0.000000 
-0.726457 -0.306121 0.000000 
-0.747352 -0.236665 0.000000 
-3.396487 2.008640 0.000000 
-3.344056 1.929252 0.000000 
-3.294256 1.885851 0.000000 
-3.248246 1.847527 0.000000 
-3.196818 1.808174 0.000000 
-3.159669 1.756863 0.000000 
-3.113281 1.710159 0.000000 
-3.056061 1.690595 0.000000 
-2.996684 1.667971 0.000000 
-2.933161 1.638354 0.000000 
-2.879064 1.602212 0.000000 
-2.813006 1.577426 0.000000 
-2.751664 1.554376 0.000000 
-2.686782 1.525053 0.000000 
-1.922020 -0.425384 0.000000 
-1.999705 -0.426883 0.000000 
-2.060018 -0.405279 0.000000 
-2.032615 -0.070292 0.000000 
-2.048550 0.015430 0.000000 
-2.029059 0.081323 0.000000 
-2.105228 -0.348221 0.000000 
-2.154373 -0.280626 0.000000 
-2.203584 -0.226002 0.000000 
-2.237020 -0.164567 0.000000 
-2.250593 -0.099274 0.000000 
-2.270119 -0.027490 0.000000 
-2.297898 0.042820 0.000000 
-2.327118 0.104400 0.000000 
-2.346747 0.158370 0.000000 
-2.362840 0.211479 0.000000 
-2.374561 0.262524 0.000000 
-2.373128 0.314499 0.000000 
-2.334174 0.381090 0.000000 
-2.331842 0.421708 0.000000 
-2.284565 0.430467 0.000000 
-0.236368 2.147897 0.000000 
-0.299146 2.191724 0.000000 
-0.346614 2.211649 0.000000 
-0.382877 2.175146 0.000000 
-0.412447 2.146096 0.000000 
-0.433989 2.105808 0.000000 
-0.446472 2.062842 0.000000 
-0.451628 2.023524 0.000000 
-0.451047 1.985061 0.000000 
-0.449242 1.949058 0.000000 
-0.453345 1.917168 0.000000 
-0.460251 1.889475 0.000000 
-0.470304 1.860690 0.000000 
-0.475290 1.831200 0.000000 
-0.478341 1.801414 0.000000 
-0.479442 1.764678 0.000000 
-2.609147 1.511264 0.000000 
-2.517189 1.505765 0.000000 
-2.434013 1.506102 0.000000 
-2.352624 1.496070 0.000000 
-2.274410 1.476699 0.000000 
-2.204499 1.442051 0.000000 
-2.180326 1.373168 0.000000 
-2.178559 1.284632 0.000000 
-2.168273 1.194603 0.000000 
-2.159086 1.096539 0.000000 
-2.144575 1.007380 0.000000 
-2.163040 0.932163 0.000000 
-2.183612 0.858071 0.000000 
-2.172907 0.793514 0.000000 
-2.161614 0.730759 0.000000 
-2.169833 0.670647 0.000000 
-2.188987 0.608894 0.000000 
-2.218663 0.557648 0.000000 
-2.229021 0.501775 0.000000 
-2.997130 1.878589 0.000000 
-3.021908 1.780451 0.000000 
-2.902046 1.847082 0.000000 
-0.770600 -0.154072 0.000000 
-0.790096 -0.062413 0.000000 
-0.811857 0.018295 0.000000 
-0.835807 0.096859 0.000000 
-0.859157 0.166987 0.000000 
-0.881226 0.227038 0.000000 
-0.903169 0.286389 0.000000 
-0.928196 0.350433 0.000000 
-2.785442 1.814529 0.000000 
-2.944278 1.753787 0.000000 
-2.855014 1.716641 0.000000 
-2.796189 1.656561 0.000000 
-2.651235 1.799782 0.000000 
-2.517962 1.789435 0.000000 
-2.394240 1.780272 0.000000 
-2.275192 1.772276 0.000000 
-2.180847 1.747715 0.000000 
-2.099904 1.721235 0.000000 
-2.018420 1.689996 0.000000 
-1.945469 1.694293 0.000000 
-1.885190 1.727633 0.000000 
-1.829736 1.748202 0.000000 
-1.760875 1.773433 0.000000 
-1.680504 1.801858 0.000000 
-1.617798 1.820175 0.000000 
-1.570169 1.834698 0.000000 
-1.527149 1.848888 0.000000 
-1.482581 1.861017 0.000000 
-1.433927 1.867558 0.000000 
-1.386311 1.875473 0.000000 
-1.337319 1.884203 0.000000 
-1.286363 1.891283 0.000000 
-1.235962 1.892000 0.000000 
-1.188452 1.896813 0.000000 
-1.140860 1.906264 0.000000 
-1.091558 1.905573 0.000000 
-1.038962 1.894555 0.000000 
-0.982519 1.875557 0.000000 
-0.922315 1.858815 0.000000 
-0.869867 1.848490 0.000000 
-0.827747 1.842000 0.000000 
-0.785371 1.837088 0.000000 
-0.748025 1.827351 0.000000 
-0.712781 1.817084 0.000000 
-0.681690 1.803152 0.000000 
-0.657198 1.792018 0.000000 
-0.633895 1.785355 0.000000 
-0.612002 1.780900 0.000000 
-0.594184 1.773687 0.000000 
-0.577381 1.764237 0.000000 
-0.560109 1.748953 0.000000 
-0.540091 1.716499 0.000000 
-1.243914 0.077653 0.000000 
-1.232782 0.091370 0.000000 
-1.257376 0.063299 0.000000 
-1.224378 0.110070 0.000000 
-1.271472 0.043954 0.000000 
-1.215702 0.132067 0.000000 
-1.204660 0.158123 0.000000 
-1.290143 0.016212 0.000000 
-1.314447 -0.028828 0.000000 
-1.190204 0.188430 0.000000 
-1.318041 -0.082182 0.000000 
-1.171655 0.222586 0.000000 
-1.149359 0.258900 0.000000 
-1.123094 0.297149 0.000000 
-1.284246 -0.132162 0.000000 
-1.239750 -0.182888 0.000000 
-1.083297 0.341140 0.000000 
-1.028190 0.372811 0.000000 
-1.181630 -0.225244 0.000000 
-1.112789 -0.256672 0.000000 
-1.040643 -0.268842 0.000000 
-0.978118 -0.271929 0.000000 
-0.927392 -0.284954 0.000000 
-0.889718 -0.324089 0.000000 
-0.873564 -0.380639 0.000000 
-0.920771 -0.412833 0.000000 
-0.935346 -0.345565 0.000000 
-0.991249 -0.422409 0.000000 
-1.088918 -0.419681 0.000000 
-1.067426 -0.340029 0.000000 
-1.189474 -0.412117 0.000000 
-1.147229 -0.327362 0.000000 
-1.266509 -0.388827 0.000000 
-1.219913 -0.301184 0.000000 
-1.335307 -0.353001 0.000000 
-1.284456 -0.263185 0.000000 
-1.402357 -0.309097 0.000000 
-1.341444 -0.215385 0.000000 
-1.466758 -0.256421 0.000000 
-1.539152 -0.195622 0.000000 
-1.393011 -0.157454 0.000000 
-1.612839 -0.125351 0.000000 
-1.665320 -0.067773 0.000000 
-1.691220 -0.002946 0.000000 
-1.704696 0.082548 0.000000 
-1.850073 0.249417 0.000000 
-1.911042 0.193592 0.000000 
-1.969645 0.136755 0.000000 
-1.726970 0.188958 0.000000 
-0.222881 0.396788 0.000000 
-0.195707 0.369205 0.000000 
-0.164205 0.332258 0.000000 
-0.127520 0.299560 0.000000 
-0.095686 0.270068 0.000000 
-0.059027 0.241590 0.000000 
-0.018954 0.211607 0.000000 
0.030296 0.180336 0.000000 
0.086536 0.159810 0.000000 
0.141893 0.141079 0.000000 
0.202102 0.111799 0.000000 
0.263408 0.071882 0.000000 
0.311661 0.021895 0.000000 
0.333954 -0.037727 0.000000 
0.338621 -0.098178 0.000000 
0.341530 -0.152116 0.000000 
0.353165 -0.202305 0.000000 
0.365710 -0.260727 0.000000 
0.363543 -0.330256 0.000000 
[...]
POINT_DATA 899 
VECTORS X_GC float 
-3.648847 2.336808 0.000000 
-3.619410 2.296256 0.000000 
-3.578536 2.260661 0.000000 
-3.540028 2.225010 0.000000 
-3.511690 2.192815 0.000000 
-3.481362 2.162957 0.000000 
-3.451569 2.122283 0.000000 
0.772356 2.239322 0.000000 
0.774615 2.213201 0.000000 
0.769962 2.184447 0.000000 
-3.399514 2.092007 0.000000 
0.413960 -0.552835 0.000000 
0.455573 -0.548532 0.000000 
-1.762619 -0.452730 0.000000 
-1.783389 -0.417334 0.000000 
-1.714437 -0.388545 0.000000 
0.732567 2.233646 0.000000 
0.698438 2.219810 0.000000 
0.491831 -0.534329 0.000000 
0.519501 -0.503924 0.000000 
0.530556 -0.463478 0.000000 
0.532354 -0.417673 0.000000 
0.531774 -0.367167 0.000000 
-3.460923 2.030275 0.000000 
0.663989 2.197864 0.000000 
0.631675 2.170469 0.000000 
0.601833 2.146414 0.000000 
0.569607 2.123156 0.000000 
0.534059 2.101079 0.000000 
0.492599 2.079939 0.000000 
0.444403 2.061274 0.000000 
0.762807 2.143472 0.000000 
-1.708694 -0.354162 0.000000 
-1.726386 -0.313899 0.000000 
-1.761257 -0.289878 0.000000 
-1.812853 -0.282030 0.000000 
-0.690422 -0.534365 0.000000 
-0.624256 -0.552293 0.000000 
-0.561079 -0.560474 0.000000 
-0.500739 -0.561930 0.000000 
-0.445387 -0.561992 0.000000 
0.532260 -0.308083 0.000000 
0.536647 -0.238750 0.000000 
-1.881389 -0.269529 0.000000 
-0.389303 -0.559718 0.000000 
-0.340338 -0.544432 0.000000 
-0.344339 -0.490297 0.000000 
-0.358558 -0.437758 0.000000 
-0.381750 -0.396846 0.000000 
-0.406193 -0.362671 0.000000 
-0.417316 -0.331174 0.000000 
-0.428320 -0.296917 0.000000 
-0.436973 -0.252652 0.000000 
-0.444212 -0.197109 0.000000 
-0.452662 -0.138251 0.000000 
-0.468602 -0.081352 0.000000 
0.553166 -0.174035 0.000000 
0.573193 -0.116364 0.000000 
0.574450 -0.064623 0.000000 
0.561087 -0.014303 0.000000 
0.550432 0.041020 0.000000 
0.748903 2.090154 0.000000 
0.730940 2.033662 0.000000 
0.715868 1.987503 0.000000 
0.699446 1.951375 0.000000 
0.684888 1.910385 0.000000 
0.675900 1.864181 0.000000 
0.669871 1.814621 0.000000 
0.664455 1.766764 0.000000 
0.668163 1.720345 0.000000 
0.672091 1.670511 0.000000 
0.674558 1.622488 0.000000 
0.673045 1.572408 0.000000 
0.386491 2.051594 0.000000 
0.664855 1.513669 0.000000 
0.652298 1.455592 0.000000 
0.638456 1.401942 0.000000 
0.623121 1.352432 0.000000 
0.616008 1.309405 0.000000 
0.600787 1.274462 0.000000 
0.571289 1.245014 0.000000 
0.539016 1.213852 0.000000 
0.513857 1.184953 0.000000 
0.493343 1.158718 0.000000 
0.469109 1.140906 0.000000 
0.444920 1.124461 0.000000 
0.415324 1.103495 0.000000 
0.383540 1.078743 0.000000 
0.356179 1.049411 0.000000 
0.343879 1.010511 0.000000 
0.337476 0.964991 0.000000 
0.332404 0.919704 0.000000 
0.328512 0.880014 0.000000 
0.319594 0.843935 0.000000 
0.304149 0.810524 0.000000 
0.290502 0.770133 0.000000 
0.275896 0.722271 0.000000 
0.261905 0.680301 0.000000 
0.250150 0.646706 0.000000 
0.250896 0.608901 0.000000 
0.259587 0.566298 0.000000 
0.284617 0.523525 0.000000 
0.315237 0.493864 0.000000 
0.340022 0.474427 0.000000 
0.354380 0.448578 0.000000 
0.368685 0.421435 0.000000 
0.385568 0.395039 0.000000 
0.415372 0.370242 0.000000 
0.447119 0.338530 0.000000 
0.477633 0.310613 0.000000 
0.503078 0.282677 0.000000 
0.518876 0.244623 0.000000 
0.527127 0.208654 0.000000 
0.534187 0.164109 0.000000 
0.543185 0.103329 0.000000 
0.322519 2.040538 0.000000 
0.263849 2.027421 0.000000 
0.208223 2.022001 0.000000 
0.150441 2.018173 0.000000 
-0.687392 -0.461298 0.000000 
-3.327058 2.065775 0.000000 
-3.276080 2.019354 0.000000 
-3.224941 1.985767 0.000000 
-3.181728 1.956609 0.000000 
-3.135074 1.919679 0.000000 
-3.078123 1.895386 0.000000 
-1.944260 -0.224651 0.000000 
0.083204 2.023329 0.000000 
0.005786 2.017976 0.000000 
-0.071812 2.027214 0.000000 
-0.135705 2.056756 0.000000 
-0.182391 2.098362 0.000000 
-1.999041 -0.153682 0.000000 
-1.843230 -0.428191 0.000000 
-0.491126 -0.017392 0.000000 
-0.512312 0.055851 0.000000 
-0.526535 0.118683 0.000000 
-0.527935 0.180805 0.000000 
-0.524207 0.247975 0.000000 
-0.505864 0.305107 0.000000 
-0.468875 0.354319 0.000000 
-0.410369 0.383564 0.000000 
-0.354013 0.404681 0.000000 
-0.301050 0.414626 0.000000 
-0.255730 0.415399 0.000000 
-0.695595 -0.383002 0.000000 
-0.726457 -0.306121 0.000000 
-0.747352 -0.236665 0.000000 
-3.396487 2.008640 0.000000 
-3.344056 1.929252 0.000000 
-3.294256 1.885851 0.000000 
-3.248246 1.847527 0.000000 
-3.196818 1.808174 0.000000 
-3.159669 1.756863 0.000000 
-3.113281 1.710159 0.000000 
-3.056061 1.690595 0.000000 
-2.996684 1.667971 0.000000 
-2.933161 1.638354 0.000000 
-2.879064 1.602212 0.000000 
-2.813006 1.577426 0.000000 
-2.751664 1.554376 0.000000 
-2.686782 1.525053 0.000000 
-1.922020 -0.425384 0.000000 
-1.999705 -0.426883 0.000000 
-2.060018 -0.405279 0.000000 
-2.032615 -0.070292 0.000000 
-2.048550 0.015430 0.000000 
-2.029059 0.081323 0.000000 
-2.105228 -0.348221 0.000000 
-2.154373 -0.280626 0.000000 
-2.203584 -0.226002 0.000000 
-2.237020 -0.164567 0.000000 
-2.250593 -0.099274 0.000000 
-2.270119 -0.027490 0.000000 
-2.297898 0.042820 0.000000 
-2.327118 0.104400 0.000000 
-2.346747 0.158370 0.000000 
-2.362840 0.211479 0.000000 
-2.374561 0.262524 0.000000 
-2.373128 0.314499 0.000000 
-2.334174 0.381090 0.000000 
-2.331842 0.421708 0.000000 
-2.284565 0.430467 0.000000 
-0.236368 2.147897 0.000000 
-0.299146 2.191724 0.000000 
-0.346614 2.211649 0.000000 
-0.382877 2.175146 0.000000 
-0.412447 2.146096 0.000000 
-0.433989 2.105808 0.000000 
-0.446472 2.062842 0.000000 
-0.451628 2.023524 0.000000 
-0.451047 1.985061 0.000000 
-0.449242 1.949058 0.000000 
-0.453345 1.917168 0.000000 
-0.460251 1.889475 0.000000 
-0.470304 1.860690 0.000000 
-0.475290 1.831200 0.000000 
-0.478341 1.801414 0.000000 
-0.479442 1.764678 0.000000 
-2.609147 1.511264 0.000000 
-2.517189 1.505765 0.000000 
-2.434013 1.506102 0.000000 
-2.352624 1.496070 0.000000 
-2.274410 1.476699 0.000000 
-2.204499 1.442051 0.000000 
-2.180326 1.373168 0.000000 
-2.178559 1.284632 0.000000 
-2.168273 1.194603 0.000000 
-2.159086 1.096539 0.000000 
-2.144575 1.007380 0.000000 
-2.163040 0.932163 0.000000 
-2.183612 0.858071 0.000000 
-2.172907 0.793514 0.000000 
-2.161614 0.730759 0.000000 
-2.169833 0.670647 0.000000 
-2.188987 0.608894 0.000000 
-2.218663 0.557648 0.000000 
-2.229021 0.501775 0.000000 
-2.997130 1.878589 0.000000 
-3.021908 1.780451 0.000000 
-2.902046 1.847082 0.000000 
-0.770600 -0.154072 0.000000 
-0.790096 -0.062413 0.000000 
-0.811857 0.018295 0.000000 
-0.835807 0.096859 0.000000 
-0.859157 0.166987 0.000000 
-0.881226 0.227038 0.000000 
-0.903169 0.286389 0.000000 
-0.928196 0.350433 0.000000 
-2.785442 1.814529 0.000000 
-2.944278 1.753787 0.000000 
-2.855014 1.716641 0.000000 
-2.796189 1.656561 0.000000 
-2.651235 1.799782 0.000000 
-2.517962 1.789435 0.000000 
-2.394240 1.780272 0.000000 
-2.275192 1.772276 0.000000 
-2.180847 1.747715 0.000000 
-2.099904 1.721235 0.000000 
-2.018420 1.689996 0.000000 
-1.945469 1.694293 0.000000 
-1.885190 1.727633 0.000000 
-1.829736 1.748202 0.000000 
-1.760875 1.773433 0.000000 
-1.680504 1.801858 0.000000 
-1.617798 1.820175 0.000000 
-1.570169 1.834698 0.000000 
-1.527149 1.848888 0.000000 
-1.482581 1.861017 0.000000 
-1.433927 1.867558 0.000000 
-1.386311 1.875473 0.000000 
-1.337319 1.884203 0.000000 
-1.286363 1.891283 0.000000 
-1.235962 1.892000 0.000000 
-1.188452 1.896813 0.000000 
-1.140860 1.906264 0.000000 
-1.091558 1.905573 0.000000 
-1.038962 1.894555 0.000000 
-0.982519 1.875557 0.000000 
-0.922315 1.858815 0.000000 
-0.869867 1.848490 0.000000 
-0.827747 1.842000 0.000000 
-0.785371 1.837088 0.000000 
-0.748025 1.827351 0.000000 
-0.712781 1.817084 0.000000 
-0.681690 1.803152 0.000000 
-0.657198 1.792018 0.000000 
-0.633895 1.785355 0.000000 
-0.612002 1.780900 0.000000 
-0.594184 1.773687 0.000000 
-0.577381 1.764237 0.000000 
-0.560109 1.748953 0.000000 
-0.540091 1.716499 0.000000 
-1.243914 0.077653 0.000000 
-1.232782 0.091370 0.000000 
-1.257376 0.063299 0.000000 
-1.224378 0.110070 0.000000 
-1.271472 0.043954 0.000000 
-1.215702 0.132067 0.000000 
-1.204660 0.158123 0.000000 
-1.290143 0.016212 0.000000 
-1.314447 -0.028828 0.000000 
-1.190204 0.188430 0.000000 
-1.318041 -0.082182 0.000000 
-1.171655 0.222586 0.000000 
-1.149359 0.258900 0.000000 
-1.123094 0.297149 0.000000 
-1.284246 -0.132162 0.000000 
-1.239750 -0.182888 0.000000 
-1.083297 0.341140 0.000000 
-1.028190 0.372811 0.000000 
-1.181630 -0.225244 0.000000 
-1.112789 -0.256672 0.000000 
-1.040643 -0.268842 0.000000 
-0.978118 -0.271929 0.000000 
-0.927392 -0.284954 0.000000 
-0.889718 -0.324089 0.000000 
-0.873564 -0.380639 0.000000 
-0.920771 -0.412833 0.000000 
-0.935346 -0.345565 0.000000 
-0.991249 -0.422409 0.000000 
-1.088918 -0.419681 0.000000 
-1.067426 -0.340029 0.000000 
-1.189474 -0.412117 0.000000 
-1.147229 -0.327362 0.000000 
-1.266509 -0.388827 0.000000 
-1.219913 -0.301184 0.000000 
-1.335307 -0.353001 0.000000 
-1.284456 -0.263185 0.000000 
-1.402357 -0.309097 0.000000 
-1.341444 -0.215385 0.000000 
-1.466758 -0.256421 0.000000 
-1.539152 -0.195622 0.000000 
-1.393011 -0.157454 0.000000 
-1.612839 -0.125351 0.000000 
-1.665320 -0.067773 0.000000 
-1.691220 -0.002946 0.000000 
-1.704696 0.082548 0.000000 
-1.850073 0.249417 0.000000 
-1.911042 0.193592 0.000000 
-1.969645 0.136755 0.000000 
-1.726970 0.188958 0.000000 
-0.222881 0.396788 0.000000 
-0.195707 0.369205 0.000000 
-0.164205 0.332258 0.000000 
-0.127520 0.299560 0.000000 
-0.095686 0.270068 0.000000 
-0.059027 0.241590 0.000000 
-0.018954 0.211607 0.000000 
0.030296 0.180336 0.000000 
0.086536 0.159810 0.000000 
0.141893 0.141079 0.000000 
0.202102 0.111799 0.000000 
0.263408 0.071882 0.000000 
0.311661 0.021895 0.000000 
0.333954 -0.037727 0.000000 
0.338621 -0.098178 0.000000 
0.341530 -0.152116 0.000000 
0.353165 -0.202305 0.000000 
0.365710 -0.260727 0.000000 
0.363543 -0.330256 0.000000 
0.357353 -0.392371 0.000000 
0.351188 -0.443113 0.000000 
0.363842 -0.490141 0.000000 
-1.737069 -0.356792 0.000000 
-0.199590 0.449405 0.000000 
-0.156305 0.419489 0.000000 
-0.462327 1.685445 0.000000 
0.741313 2.208020 0.000000 
0.482415 -0.500912 0.000000 
0.446104 -0.508808 0.000000 
0.403556 -0.514462 0.000000 
-0.104001 0.391424 0.000000 
-0.514998 1.617500 0.000000 
-0.059937 0.357020 0.000000 
0.738519 2.182755 0.000000 
0.714572 2.195055 0.000000 
-0.249752 0.476229 0.000000 
-0.036232 0.313221 0.000000 
0.000772 0.285389 0.000000 
0.035161 0.259744 0.000000 
-1.776537 -0.356234 0.000000 
-1.836238 -0.352049 0.000000 
-0.309416 0.490329 0.000000 
-0.378944 0.488065 0.000000 
-2.292732 0.367653 0.000000 
-2.315166 0.317662 0.000000 
-2.314418 0.270105 0.000000 
-2.293418 0.223719 0.000000 
-2.279687 0.173840 0.000000 
-2.253462 0.126574 0.000000 
0.075120 0.232002 0.000000 
0.131113 0.219394 0.000000 
-0.977004 0.421377 0.000000 
-0.860050 0.411212 0.000000 
-1.912142 -0.343993 0.000000 
-1.989966 -0.352773 0.000000 
-2.023752 -0.285231 0.000000 
-2.082175 -0.213970 0.000000 
0.723889 2.151242 0.000000 
0.691466 2.170084 0.000000 
0.665980 2.137438 0.000000 
0.704783 2.110170 0.000000 
0.637970 2.099380 0.000000 
0.681732 2.062961 0.000000 
0.670916 2.016786 0.000000 
0.602858 2.067712 0.000000 
0.659584 1.976362 0.000000 
0.560783 2.041341 0.000000 
0.636111 1.940287 0.000000 
0.607495 1.890497 0.000000 
0.595324 1.827016 0.000000 
0.604052 1.762343 0.000000 
0.514160 2.011937 0.000000 
0.453857 1.984492 0.000000 
0.392525 1.982514 0.000000 
0.334098 1.980985 0.000000 
0.278675 1.962232 0.000000 
0.217273 1.944157 0.000000 
0.149449 1.926801 0.000000 
0.614128 1.710067 0.000000 
0.621313 1.662488 0.000000 
0.624262 1.617608 0.000000 
-2.197766 0.073386 0.000000 
-2.158682 -0.001538 0.000000 
-2.124695 0.132716 0.000000 
-2.150589 -0.167664 0.000000 
-2.141926 -0.090119 0.000000 
-0.393439 -0.506679 0.000000 
-0.412631 -0.462635 0.000000 
-0.436983 -0.422032 0.000000 
-0.445953 -0.378612 0.000000 
-0.458251 -0.345786 0.000000 
-0.479726 -0.311020 0.000000 
-0.496934 -0.262289 0.000000 
-0.509002 -0.207206 0.000000 
-0.517157 -0.152875 0.000000 
-0.545309 -0.101600 0.000000 
-0.442273 -0.504073 0.000000 
-0.496002 -0.494556 0.000000 
-0.557668 -0.496663 0.000000 
-0.618975 -0.481182 0.000000 
-0.334659 2.149836 0.000000 
-0.367985 2.120119 0.000000 
-0.385153 2.083693 0.000000 
-0.396797 2.049826 0.000000 
-0.406285 2.014304 0.000000 
-0.402558 1.975170 0.000000 
-0.406645 1.936727 0.000000 
-0.418378 1.904313 0.000000 
-0.428059 1.875187 0.000000 
-0.435849 1.845640 0.000000 
-0.442335 1.815605 0.000000 
-0.445406 1.782540 0.000000 
-0.444483 1.736824 0.000000 
0.619822 1.571876 0.000000 
-1.077870 0.468441 0.000000 
-1.149036 0.426482 0.000000 
-1.174735 0.351640 0.000000 
-1.192231 0.299917 0.000000 
-1.210811 0.258140 0.000000 
-1.228352 0.218800 0.000000 
-1.238869 0.180820 0.000000 
-1.244643 0.149323 0.000000 
-1.248534 0.124422 0.000000 
-1.252336 0.105134 0.000000 
-1.262323 0.091883 0.000000 
-1.280319 0.080967 0.000000 
-0.451814 0.465405 0.000000 
-0.526928 0.421883 0.000000 
0.194935 0.202402 0.000000 
0.069048 1.912701 0.000000 
-0.574175 0.351199 0.000000 
-0.593607 0.270096 0.000000 
-1.764101 0.309781 0.000000 
-2.210991 0.428637 0.000000 
-0.825996 0.325935 0.000000 
-0.799223 0.254854 0.000000 
-0.760911 0.188421 0.000000 
0.605964 1.520925 0.000000 
0.587834 1.463564 0.000000 
0.576354 1.403716 0.000000 
0.574971 1.348707 0.000000 
0.580375 1.305683 0.000000 
0.545179 1.283299 0.000000 
0.509957 1.251036 0.000000 
0.484198 1.214634 0.000000 
0.468721 1.183480 0.000000 
0.449386 1.164948 0.000000 
0.422962 1.152283 0.000000 
0.391379 1.133132 0.000000 
0.357154 1.109069 0.000000 
0.323730 1.080696 0.000000 
-0.582151 -0.040732 0.000000 
0.265957 0.175972 0.000000 
0.333763 0.129843 0.000000 
0.378371 0.062827 0.000000 
0.400918 -0.011568 0.000000 
0.401084 -0.074557 0.000000 
0.404345 -0.128658 0.000000 
0.432648 -0.179740 0.000000 
0.450030 -0.244181 0.000000 
0.529803 -0.091028 0.000000 
0.491947 -0.139165 0.000000 
0.453243 -0.089281 0.000000 
0.449550 -0.318505 0.000000 
0.498420 -0.045154 0.000000 
0.474171 0.014787 0.000000 
0.457863 0.089360 0.000000 
0.462195 -0.377159 0.000000 
0.478704 -0.423495 0.000000 
0.483460 -0.464461 0.000000 
0.412910 -0.402801 0.000000 
0.398390 -0.441514 0.000000 
0.404290 -0.475802 0.000000 
0.442452 -0.471243 0.000000 
0.436659 -0.436079 0.000000 
-0.727378 0.114288 0.000000 
-0.616071 0.196306 0.000000 
-0.623548 0.122026 0.000000 
-0.605779 0.041018 0.000000 
-0.706340 0.028570 0.000000 
-0.681483 -0.057692 0.000000 
-0.032304 1.907140 0.000000 
-0.128010 1.943290 0.000000 
-0.195732 2.010414 0.000000 
-0.243911 2.064328 0.000000 
-0.287859 2.111731 0.000000 
-0.335518 2.084036 0.000000 
-0.667608 -0.143073 0.000000 
-0.584906 -0.149841 0.000000 
-0.658169 -0.223081 0.000000 
-0.578442 -0.215211 0.000000 
-0.639050 -0.294524 0.000000 
-0.607982 -0.370041 0.000000 
-0.562541 -0.277911 0.000000 
-0.536184 -0.338934 0.000000 
-0.495978 -0.376896 0.000000 
-0.500680 -0.429290 0.000000 
-0.573051 -0.433743 0.000000 
-2.690892 1.680435 0.000000 
-2.684799 1.594422 0.000000 
-2.602920 1.593160 0.000000 
-2.574381 1.678153 0.000000 
-2.518122 1.613027 0.000000 
-2.424460 1.636925 0.000000 
-2.320006 1.627994 0.000000 
-2.229986 1.604376 0.000000 
-2.146342 1.563136 0.000000 
-1.455055 -0.098472 0.000000 
-1.387692 -0.018149 0.000000 
-1.339496 0.035179 0.000000 
-1.304977 0.063739 0.000000 
-1.531301 -0.032979 0.000000 
-1.604385 0.011133 0.000000 
-1.592423 0.111814 0.000000 
-1.608296 0.235777 0.000000 
-1.827918 0.434222 0.000000 
0.477873 0.203025 0.000000 
0.477147 0.237924 0.000000 
0.465631 0.272164 0.000000 
-0.587742 1.716373 0.000000 
-0.593403 1.740477 0.000000 
-0.604579 1.753133 0.000000 
-0.619289 1.758819 0.000000 
-0.639577 1.756646 0.000000 
-0.665912 1.758262 0.000000 
-0.697937 1.765249 0.000000 
-0.595692 1.662885 0.000000 
-0.726123 1.780060 0.000000 
-0.757398 1.790631 0.000000 
-0.794522 1.788055 0.000000 
-0.841416 1.785477 0.000000 
-0.894922 1.786838 0.000000 
-0.956071 1.795254 0.000000 
-1.020951 1.814175 0.000000 
-1.077937 1.841810 0.000000 
-1.120258 1.870538 0.000000 
-1.171769 1.846278 0.000000 
0.332207 0.399669 0.000000 
0.333662 0.357934 0.000000 
0.321472 0.428286 0.000000 
0.302407 0.455098 0.000000 
0.214022 0.469760 0.000000 
0.194081 0.530785 0.000000 
0.186716 0.586298 0.000000 
0.189303 0.639070 0.000000 
0.360023 0.318252 0.000000 
0.405131 0.293119 0.000000 
0.201671 0.688316 0.000000 
0.218038 0.738577 0.000000 
0.236652 0.787510 0.000000 
0.256885 0.829444 0.000000 
0.278373 0.857938 0.000000 
0.284019 0.891336 0.000000 
0.276718 0.938084 0.000000 
0.278735 0.994897 0.000000 
0.296322 1.045164 0.000000 
-1.507867 1.798036 0.000000 
-1.548116 1.773393 0.000000 
-1.598023 1.746014 0.000000 
-1.467251 1.812809 0.000000 
-1.422160 1.820093 0.000000 
-1.373311 1.826809 0.000000 
-1.322903 1.834586 0.000000 
-1.275577 1.843832 0.000000 
-1.225048 1.842432 0.000000 
-1.662214 1.722345 0.000000 
-1.732600 1.702405 0.000000 
-1.794687 1.688029 0.000000 
-1.841773 1.658842 0.000000 
-2.078405 0.726115 0.000000 
-2.079214 0.804704 0.000000 
-2.097651 0.648515 0.000000 
-2.129318 0.576776 0.000000 
-2.096743 0.885266 0.000000 
-2.169699 0.521432 0.000000 
-1.991686 0.448432 0.000000 
-1.642187 0.373988 0.000000 
-1.989898 0.281207 0.000000 
-2.064526 0.209395 0.000000 
-1.914688 0.354742 0.000000 
-2.037969 1.137819 0.000000 
-2.021377 1.022134 0.000000 
-2.055796 1.266980 0.000000 
-2.102728 1.369633 0.000000 
-2.047875 1.511936 0.000000 
0.428030 0.258667 0.000000 
0.375625 0.237431 0.000000 
0.313454 0.250531 0.000000 
0.290352 0.396566 0.000000 
0.238487 1.107484 0.000000 
0.440631 0.220559 0.000000 
0.396678 0.180782 0.000000 
0.460488 0.154862 0.000000 
0.523747 1.330974 0.000000 
-2.262588 0.294228 0.000000 
-2.220468 0.350256 0.000000 
-2.218579 0.240717 0.000000 
-2.146376 0.292567 0.000000 
-2.206503 0.175647 0.000000 
0.473879 1.292362 0.000000 
0.446488 1.240030 0.000000 
0.440978 1.196011 0.000000 
0.409581 1.188156 0.000000 
0.629179 2.017052 0.000000 
0.593839 1.984578 0.000000 
0.550362 1.940374 0.000000 
0.483841 1.899952 0.000000 
0.202470 1.041119 0.000000 
0.241245 0.893344 0.000000 
0.205152 0.868543 0.000000 
0.175878 0.820403 0.000000 
0.153326 0.761896 0.000000 
0.132079 0.701446 0.000000 
0.113278 0.636990 0.000000 
0.106000 0.568667 0.000000 
0.109640 0.499471 0.000000 
0.121648 0.428793 0.000000 
0.032483 0.339179 0.000000 
0.246820 0.421857 0.000000 
0.099619 0.287544 0.000000 
0.373127 1.173274 0.000000 
-0.307911 2.036414 0.000000 
-0.360136 2.017945 0.000000 
-0.343252 1.963599 0.000000 
-0.270247 1.971743 0.000000 
0.168337 0.284062 0.000000 
0.242346 0.273725 0.000000 
0.270369 0.342762 0.000000 
0.505525 1.398735 0.000000 
-0.689828 0.225990 0.000000 
-0.729540 0.283394 0.000000 
-0.746154 0.357867 0.000000 
-0.657668 0.374431 0.000000 
-0.661195 0.290144 0.000000 
-0.924642 0.527106 0.000000 
-1.137284 1.790470 0.000000 
-1.072920 1.745876 0.000000 
-1.248127 1.802767 0.000000 
-1.304069 1.786444 0.000000 
-1.360197 1.778784 0.000000 
-1.411221 1.774645 0.000000 
-1.453165 1.771415 0.000000 
-1.486003 1.753953 0.000000 
-1.510814 1.710484 0.000000 
-1.558800 1.665815 0.000000 
-0.995058 1.719123 0.000000 
-0.919611 1.708646 0.000000 
-0.852227 1.715579 0.000000 
-0.796966 1.732097 0.000000 
-0.752732 1.751266 0.000000 
-1.635591 1.638482 0.000000 
-1.992480 0.913183 0.000000 
-1.965104 0.803404 0.000000 
-1.974377 0.700071 0.000000 
-2.014368 0.606450 0.000000 
-2.065453 0.523263 0.000000 
-2.071492 0.370196 0.000000 
-2.131272 0.453733 0.000000 
-1.712039 1.625159 0.000000 
-1.781280 1.625109 0.000000 
-1.884796 1.595053 0.000000 
0.516332 1.814715 0.000000 
0.538779 1.743587 0.000000 
0.517174 1.473120 0.000000 
0.552532 1.535057 0.000000 
0.576896 1.576983 0.000000 
0.583356 1.614009 0.000000 
0.576083 1.651014 0.000000 
0.562288 1.693374 0.000000 