# vtk DataFile Version 3.0 
vtk output 
ASCII 
DATASET UNSTRUCTURED_GRID 
POINTS 899 float 
-3.648847 2.330333 0.000000 
-3.619410 2.289781 0.000000 
-3.578536 2.254187 0.000000 
-3.540028 2.218536 0.000000 
-3.511690 2.186340 0.000000 
-3.481362 2.156482 0.000000 
-3.451569 2.115809 0.000000 
0.772356 2.232847 0.000000 
0.774615 2.206726 0.000000 
0.769962 2.177972 0.000000 
-3.399514 2.085533 0.000000 
0.413960 -0.559309 0.000000 
0.455573 -0.555007 0.000000 
-1.762619 -0.459205 0.000000 
-1.783389 -0.423809 0.000000 
-1.714437 -0.395019 0.000000 
0.732567 2.227172 0.000000 
0.698438 2.213336 0.000000 
0.491831 -0.540804 0.000000 
0.519501 -0.510399 0.000000 
0.530556 -0.469952 0.000000 
0.532354 -0.424148 0.000000 
0.531774 -0.373641 0.000000 
-3.460923 2.023800 0.000000 
0.663989 2.191389 0.000000 
0.631675 2.163995 0.000000 
0.601833 2.139939 0.000000 
0.569607 2.116682 0.000000 
0.534059 2.094604 0.000000 
0.492599 2.073464 0.000000 
0.444403 2.054799 0.000000 
0.762807 2.136998 0.000000 
-1.708694 -0.360637 0.000000 
-1.726386 -0.320373 0.000000 
-1.761257 -0.296353 0.000000 
-1.812853 -0.288504 0.000000 
-0.690422 -0.540839 0.000000 
-0.624256 -0.558767 0.000000 
-0.561079 -0.566949 0.000000 
-0.500739 -0.568404 0.000000 
-0.445387 -0.568467 0.000000 
0.532260 -0.314558 0.000000 
0.536647 -0.245224 0.000000 
-1.881389 -0.276003 0.000000 
-0.389303 -0.566192 0.000000 
-0.340338 -0.550907 0.000000 
-0.344339 -0.496772 0.000000 
-0.358558 -0.444232 0.000000 
-0.381750 -0.403321 0.000000 
-0.406193 -0.369146 0.000000 
-0.417316 -0.337648 0.000000 
-0.428320 -0.303391 0.000000 
-0.436973 -0.259127 0.000000 
-0.444212 -0.203584 0.000000 
-0.452662 -0.144726 0.000000 
-0.468602 -0.087827 0.000000 
0.553166 -0.180509 0.000000 
0.573193 -0.122838 0.000000 
0.574450 -0.071098 0.000000 
0.561087 -0.020778 0.000000 
0.550432 0.034545 0.000000 
0.748903 2.083680 0.000000 
0.730940 2.027187 0.000000 
0.715868 1.981028 0.000000 
0.699446 1.944900 0.000000 
0.684888 1.903911 0.000000 
0.675900 1.857706 0.000000 
0.669871 1.808146 0.000000 
0.664455 1.760289 0.000000 
0.668163 1.713870 0.000000 
0.672091 1.664037 0.000000 
0.674558 1.616013 0.000000 
0.673045 1.565934 0.000000 
0.386491 2.045119 0.000000 
0.664855 1.507195 0.000000 
0.652298 1.449117 0.000000 
0.638456 1.395467 0.000000 
0.623121 1.345957 0.000000 
0.616008 1.302930 0.000000 
0.600787 1.267988 0.000000 
0.571289 1.238539 0.000000 
0.539016 1.207378 0.000000 
0.513857 1.178479 0.000000 
0.493343 1.152243 0.000000 
0.469109 1.134431 0.000000 
0.444920 1.117987 0.000000 
0.415324 1.097021 0.000000 
0.383540 1.072268 0.000000 
0.356179 1.042936 0.000000 
0.343879 1.004036 0.000000 
0.337476 0.958516 0.000000 
0.332404 0.913230 0.000000 
0.328512 0.873540 0.000000 
0.319594 0.837460 0.000000 
0.304149 0.804049 0.000000 
0.290502 0.763658 0.000000 
0.275896 0.715796 0.000000 
0.261905 0.673827 0.000000 
0.250150 0.640232 0.000000 
0.250896 0.602427 0.000000 
0.259587 0.559823 0.000000 
0.284617 0.517050 0.000000 
0.315237 0.487389 0.000000 
0.340022 0.467952 0.000000 
0.354380 0.442104 0.000000 
0.368685 0.414961 0.000000 
0.385568 0.388565 0.000000 
0.415372 0.363768 0.000000 
0.447119 0.332055 0.000000 
0.477633 0.304139 0.000000 
0.503078 0.276202 0.000000 
0.518876 0.238148 0.000000 
0.527127 0.202179 0.000000 
0.534187 0.157634 0.000000 
0.543185 0.096854 0.000000 
0.322519 2.034063 0.000000 
0.263849 2.020947 0.000000 
0.208223 2.015527 0.000000 
0.150441 2.011698 0.000000 
-0.687392 -0.467772 0.000000 
-3.327058 2.059301 0.000000 
-3.276080 2.012879 0.000000 
-3.224941 1.979293 0.000000 
-3.181728 1.950134 0.000000 
-3.135074 1.913204 0.000000 
-3.078123 1.888911 0.000000 
-1.944260 -0.231125 0.000000 
0.083204 2.016854 0.000000 
0.005786 2.011501 0.000000 
-0.071812 2.020740 0.000000 
-0.135705 2.050281 0.000000 
-0.182391 2.091887 0.000000 
-1.999041 -0.160157 0.000000 
-1.843230 -0.434665 0.000000 
-0.491126 -0.023867 0.000000 
-0.512312 0.049376 0.000000 
-0.526535 0.112209 0.000000 
-0.527935 0.174330 0.000000 
-0.524207 0.241500 0.000000 
-0.505864 0.298632 0.000000 
-0.468875 0.347844 0.000000 
-0.410369 0.377089 0.000000 
-0.354013 0.398206 0.000000 
-0.301050 0.408152 0.000000 
-0.255730 0.408924 0.000000 
-0.695595 -0.389477 0.000000 
-0.726457 -0.312595 0.000000 
-0.747352 -0.243140 0.000000 
-3.396487 2.002166 0.000000 
-3.344056 1.922778 0.000000 
-3.294256 1.879377 0.000000 
-3.248246 1.841053 0.000000 
-3.196818 1.801699 0.000000 
-3.159669 1.750389 0.000000 
-3.113281 1.703684 0.000000 
-3.056061 1.684121 0.000000 
-2.996684 1.661496 0.000000 
-2.933161 1.631880 0.000000 
-2.879064 1.595737 0.000000 
-2.813006 1.570952 0.000000 
-2.751664 1.547901 0.000000 
-2.686782 1.518578 0.000000 
-1.922020 -0.431859 0.000000 
-1.999705 -0.433357 0.000000 
-2.060018 -0.411754 0.000000 
-2.032615 -0.076766 0.000000 
-2.048550 0.008956 0.000000 
-2.029059 0.074849 0.000000 
-2.105228 -0.354695 0.000000 
-2.154373 -0.287101 0.000000 
-2.203584 -0.232477 0.000000 
-2.237020 -0.171042 0.000000 
-2.250593 -0.105749 0.000000 
-2.270119 -0.033965 0.000000 
-2.297898 0.036346 0.000000 
-2.327118 0.097925 0.000000 
-2.346747 0.151895 0.000000 
-2.362840 0.205005 0.000000 
-2.374561 0.256049 0.000000 
-2.373128 0.308025 0.000000 
-2.334174 0.374615 0.000000 
-2.331842 0.415233 0.000000 
-2.284565 0.423992 0.000000 
-0.236368 2.141422 0.000000 
-0.299146 2.185249 0.000000 
-0.346614 2.205174 0.000000 
-0.382877 2.168671 0.000000 
-0.412447 2.139622 0.000000 
-0.433989 2.099334 0.000000 
-0.446472 2.056368 0.000000 
-0.451628 2.017049 0.000000 
-0.451047 1.978587 0.000000 
-0.449242 1.942583 0.000000 
-0.453345 1.910694 0.000000 
-0.460251 1.883001 0.000000 
-0.470304 1.854215 0.000000 
-0.475290 1.824725 0.000000 
-0.478341 1.794940 0.000000 
-0.479442 1.758204 0.000000 
-2.609147 1.504789 0.000000 
-2.517189 1.499291 0.000000 
-2.434013 1.499627 0.000000 
-2.352624 1.489596 0.000000 
-2.274410 1.470225 0.000000 
-2.204499 1.435576 0.000000 
-2.180326 1.366694 0.000000 
-2.178559 1.278157 0.000000 
-2.168273 1.188128 0.000000 
-2.159086 1.090064 0.000000 
-2.144575 1.000906 0.000000 
-2.163040 0.925689 0.000000 
-2.183612 0.851597 0.000000 
-2.172907 0.787039 0.000000 
-2.161614 0.724284 0.000000 
-2.169833 0.664172 0.000000 
-2.188987 0.602419 0.000000 
-2.218663 0.551173 0.000000 
-2.229021 0.495300 0.000000 
-2.997130 1.872114 0.000000 
-3.021908 1.773977 0.000000 
-2.902046 1.840607 0.000000 
-0.770600 -0.160546 0.000000 
-0.790096 -0.068887 0.000000 
-0.811857 0.011820 0.000000 
-0.835807 0.090384 0.000000 
-0.859157 0.160512 0.000000 
-0.881226 0.220564 0.000000 
-0.903169 0.279914 0.000000 
-0.928196 0.343958 0.000000 
-2.785442 1.808054 0.000000 
-2.944278 1.747312 0.000000 
-2.855014 1.710166 0.000000 
-2.796189 1.650086 0.000000 
-2.651235 1.793308 0.000000 
-2.517962 1.782961 0.000000 
-2.394240 1.773798 0.000000 
-2.275192 1.765801 0.000000 
-2.180847 1.741240 0.000000 
-2.099904 1.714761 0.000000 
-2.018420 1.683521 0.000000 
-1.945469 1.687819 0.000000 
-1.885190 1.721158 0.000000 
-1.829736 1.741727 0.000000 
-1.760875 1.766959 0.000000 
-1.680504 1.795383 0.000000 
-1.617798 1.813700 0.000000 
-1.570169 1.828224 0.000000 
-1.527149 1.842414 0.000000 
-1.482581 1.854543 0.000000 
-1.433927 1.861083 0.000000 
-1.386311 1.868998 0.000000 
-1.337319 1.877728 0.000000 
-1.286363 1.884808 0.000000 
-1.235962 1.885526 0.000000 
-1.188452 1.890339 0.000000 
-1.140860 1.899790 0.000000 
-1.091558 1.899099 0.000000 
-1.038962 1.888080 0.000000 
-0.982519 1.869082 0.000000 
-0.922315 1.852340 0.000000 
-0.869867 1.842015 0.000000 
-0.827747 1.835526 0.000000 
-0.785371 1.830614 0.000000 
-0.748025 1.820877 0.000000 
-0.712781 1.810610 0.000000 
-0.681690 1.796678 0.000000 
-0.657198 1.785544 0.000000 
-0.633895 1.778880 0.000000 
-0.612002 1.774425 0.000000 
-0.594184 1.767212 0.000000 
-0.577381 1.757762 0.000000 
-0.560109 1.742479 0.000000 
-0.540091 1.710024 0.000000 
-1.243914 0.071179 0.000000 
-1.232782 0.084896 0.000000 
-1.257376 0.056825 0.000000 
-1.224378 0.103595 0.000000 
-1.271472 0.037479 0.000000 
-1.215702 0.125592 0.000000 
-1.204660 0.151649 0.000000 
-1.290143 0.009738 0.000000 
-1.314447 -0.035302 0.000000 
-1.190204 0.181955 0.000000 
-1.318041 -0.088657 0.000000 
-1.171655 0.216111 0.000000 
-1.149359 0.252426 0.000000 
-1.123094 0.290674 0.000000 
-1.284246 -0.138636 0.000000 
-1.239750 -0.189362 0.000000 
-1.083297 0.334665 0.000000 
-1.028190 0.366337 0.000000 
-1.181630 -0.231719 0.000000 
-1.112789 -0.263146 0.000000 
-1.040643 -0.275317 0.000000 
-0.978118 -0.278403 0.000000 
-0.927392 -0.291429 0.000000 
-0.889718 -0.330563 0.000000 
-0.873564 -0.387114 0.000000 
-0.920771 -0.419308 0.000000 
-0.935346 -0.352039 0.000000 
-0.991249 -0.428883 0.000000 
-1.088918 -0.426155 0.000000 
-1.067426 -0.346503 0.000000 
-1.189474 -0.418592 0.000000 
-1.147229 -0.333836 0.000000 
-1.266509 -0.395302 0.000000 
-1.219913 -0.307659 0.000000 
-1.335307 -0.359475 0.000000 
-1.284456 -0.269660 0.000000 
-1.402357 -0.315571 0.000000 
-1.341444 -0.221859 0.000000 
-1.466758 -0.262896 0.000000 
-1.539152 -0.202097 0.000000 
-1.393011 -0.163928 0.000000 
-1.612839 -0.131825 0.000000 
-1.665320 -0.074247 0.000000 
-1.691220 -0.009421 0.000000 
-1.704696 0.076073 0.000000 
-1.850073 0.242942 0.000000 
-1.911042 0.187117 0.000000 
-1.969645 0.130281 0.000000 
-1.726970 0.182484 0.000000 
-0.222881 0.390314 0.000000 
-0.195707 0.362730 0.000000 
-0.164205 0.325783 0.000000 
-0.127520 0.293085 0.000000 
-0.095686 0.263594 0.000000 
-0.059027 0.235116 0.000000 
-0.018954 0.205132 0.000000 
0.030296 0.173861 0.000000 
0.086536 0.153336 0.000000 
0.141893 0.134604 0.000000 
0.202102 0.105324 0.000000 
0.263408 0.065407 0.000000 
0.311661 0.015421 0.000000 
0.333954 -0.044202 0.000000 
0.338621 -0.104652 0.000000 
0.341530 -0.158591 0.000000 
0.353165 -0.208779 0.000000 
0.365710 -0.267202 0.000000 
0.363543 -0.336731 0.000000 
[...]
POINT_DATA 899 
VECTORS X_GC float 
-3.648847 2.330333 0.000000 
-3.619410 2.289781 0.000000 
-3.578536 2.254187 0.000000 
-3.540028 2.218536 0.000000 
-3.511690 2.186340 0.000000 
-3.481362 2.156482 0.000000 
-3.451569 2.115809 0.000000 
0.772356 2.232847 0.000000 
0.774615 2.206726 0.000000 
0.769962 2.177972 0.000000 
-3.399514 2.085533 0.000000 
0.413960 -0.559309 0.000000 
0.455573 -0.555007 0.000000 
-1.762619 -0.459205 0.000000 
-1.783389 -0.423809 0.000000 
-1.714437 -0.395019 0.000000 
0.732567 2.227172 0.000000 
0.698438 2.213336 0.000000 
0.491831 -0.540804 0.000000 
0.519501 -0.510399 0.000000 
0.530556 -0.469952 0.000000 
0.532354 -0.424148 0.000000 
0.531774 -0.373641 0.000000 
-3.460923 2.023800 0.000000 
0.663989 2.191389 0.000000 
0.631675 2.163995 0.000000 
0.601833 2.139939 0.000000 
0.569607 2.116682 0.000000 
0.534059 2.094604 0.000000 
0.492599 2.073464 0.000000 
0.444403 2.054799 0.000000 
0.762807 2.136998 0.000000 
-1.708694 -0.360637 0.000000 
-1.726386 -0.320373 0.000000 
-1.761257 -0.296353 0.000000 
-1.812853 -0.288504 0.000000 
-0.690422 -0.540839 0.000000 
-0.624256 -0.558767 0.000000 
-0.561079 -0.566949 0.000000 
-0.500739 -0.568404 0.000000 
-0.445387 -0.568467 0.000000 
0.532260 -0.314558 0.000000 
0.536647 -0.245224 0.000000 
-1.881389 -0.276003 0.000000 
-0.389303 -0.566192 0.000000 
-0.340338 -0.550907 0.000000 
-0.344339 -0.496772 0.000000 
-0.358558 -0.444232 0.000000 
-0.381750 -0.403321 0.000000 
-0.406193 -0.369146 0.000000 
-0.417316 -0.337648 0.000000 
-0.428320 -0.303391 0.000000 
-0.436973 -0.259127 0.000000 
-0.444212 -0.203584 0.000000 
-0.452662 -0.144726 0.000000 
-0.468602 -0.087827 0.000000 
0.553166 -0.180509 0.000000 
0.573193 -0.122838 0.000000 
0.574450 -0.071098 0.000000 
0.561087 -0.020778 0.000000 
0.550432 0.034545 0.000000 
0.748903 2.083680 0.000000 
0.730940 2.027187 0.000000 
0.715868 1.981028 0.000000 
0.699446 1.944900 0.000000 
0.684888 1.903911 0.000000 
0.675900 1.857706 0.000000 
0.669871 1.808146 0.000000 
0.664455 1.760289 0.000000 
0.668163 1.713870 0.000000 
0.672091 1.664037 0.000000 
0.674558 1.616013 0.000000 
0.673045 1.565934 0.000000 
0.386491 2.045119 0.000000 
0.664855 1.507195 0.000000 
0.652298 1.449117 0.000000 
0.638456 1.395467 0.000000 
0.623121 1.345957 0.000000 
0.616008 1.302930 0.000000 
0.600787 1.267988 0.000000 
0.571289 1.238539 0.000000 
0.539016 1.207378 0.000000 
0.513857 1.178479 0.000000 
0.493343 1.152243 0.000000 
0.469109 1.134431 0.000000 
0.444920 1.117987 0.000000 
0.415324 1.097021 0.000000 
0.383540 1.072268 0.000000 
0.356179 1.042936 0.000000 
0.343879 1.004036 0.000000 
0.337476 0.958516 0.000000 
0.332404 0.913230 0.000000 
0.328512 0.873540 0.000000 
0.319594 0.837460 0.000000 
0.304149 0.804049 0.000000 
0.290502 0.763658 0.000000 
0.275896 0.715796 0.000000 
0.261905 0.673827 0.000000 
0.250150 0.640232 0.000000 
0.250896 0.602427 0.000000 
0.259587 0.559823 0.000000 
0.284617 0.517050 0.000000 
0.315237 0.487389 0.000000 
0.340022 0.467952 0.000000 
0.354380 0.442104 0.000000 
0.368685 0.414961 0.000000 
0.385568 0.388565 0.000000 
0.415372 0.363768 0.000000 
0.447119 0.332055 0.000000 
0.477633 0.304139 0.000000 
0.503078 0.276202 0.000000 
0.518876 0.238148 0.000000 
0.527127 0.202179 0.000000 
0.534187 0.157634 0.000000 
0.543185 0.096854 0.000000 
0.322519 2.034063 0.000000 
0.263849 2.020947 0.000000 
0.208223 2.015527 0.000000 
0.150441 2.011698 0.000000 
-0.687392 -0.467772 0.000000 
-3.327058 2.059301 0.000000 
-3.276080 2.012879 0.000000 
-3.224941 1.979293 0.000000 
-3.181728 1.950134 0.000000 
-3.135074 1.913204 0.000000 
-3.078123 1.888911 0.000000 
-1.944260 -0.231125 0.000000 
0.083204 2.016854 0.000000 
0.005786 2.011501 0.000000 
-0.071812 2.020740 0.000000 
-0.135705 2.050281 0.000000 
-0.182391 2.091887 0.000000 
-1.999041 -0.160157 0.000000 
-1.843230 -0.434665 0.000000 
-0.491126 -0.023867 0.000000 
-0.512312 0.049376 0.000000 
-0.526535 0.112209 0.000000 
-0.527935 0.174330 0.000000 
-0.524207 0.241500 0.000000 
-0.505864 0.298632 0.000000 
-0.468875 0.347844 0.000000 
-0.410369 0.377089 0.000000 
-0.354013 0.398206 0.000000 
-0.301050 0.408152 0.000000 
-0.255730 0.408924 0.000000 
-0.695595 -0.389477 0.000000 
-0.726457 -0.312595 0.000000 
-0.747352 -0.243140 0.000000 
-3.396487 2.002166 0.000000 
-3.344056 1.922778 0.000000 
-3.294256 1.879377 0.000000 
-3.248246 1.841053 0.000000 
-3.196818 1.801699 0.000000 
-3.159669 1.750389 0.000000 
-3.113281 1.703684 0.000000 
-3.056061 1.684121 0.000000 
-2.996684 1.661496 0.000000 
-2.933161 1.631880 0.000000 
-2.879064 1.595737 0.000000 
-2.813006 1.570952 0.000000 
-2.751664 1.547901 0.000000 
-2.686782 1.518578 0.000000 
-1.922020 -0.431859 0.000000 
-1.999705 -0.433357 0.000000 
-2.060018 -0.411754 0.000000 
-2.032615 -0.076766 0.000000 
-2.048550 0.008956 0.000000 
-2.029059 0.074849 0.000000 
-2.105228 -0.354695 0.000000 
-2.154373 -0.287101 0.000000 
-2.203584 -0.232477 0.000000 
-2.237020 -0.171042 0.000000 
-2.250593 -0.105749 0.000000 
-2.270119 -0.033965 0.000000 
-2.297898 0.036346 0.000000 
-2.327118 0.097925 0.000000 
-2.346747 0.151895 0.000000 
-2.362840 0.205005 0.000000 
-2.374561 0.256049 0.000000 
-2.373128 0.308025 0.000000 
-2.334174 0.374615 0.000000 
-2.331842 0.415233 0.000000 
-2.284565 0.423992 0.000000 
-0.236368 2.141422 0.000000 
-0.299146 2.185249 0.000000 
-0.346614 2.205174 0.000000 
-0.382877 2.168671 0.000000 
-0.412447 2.139622 0.000000 
-0.433989 2.099334 0.000000 
-0.446472 2.056368 0.000000 
-0.451628 2.017049 0.000000 
-0.451047 1.978587 0.000000 
-0.449242 1.942583 0.000000 
-0.453345 1.910694 0.000000 
-0.460251 1.883001 0.000000 
-0.470304 1.854215 0.000000 
-0.475290 1.824725 0.000000 
-0.478341 1.794940 0.000000 
-0.479442 1.758204 0.000000 
-2.609147 1.504789 0.000000 
-2.517189 1.499291 0.000000 
-2.434013 1.499627 0.000000 
-2.352624 1.489596 0.000000 
-2.274410 1.470225 0.000000 
-2.204499 1.435576 0.000000 
-2.180326 1.366694 0.000000 
-2.178559 1.278157 0.000000 
-2.168273 1.188128 0.000000 
-2.159086 1.090064 0.000000 
-2.144575 1.000906 0.000000 
-2.163040 0.925689 0.000000 
-2.183612 0.851597 0.000000 
-2.172907 0.787039 0.000000 
-2.161614 0.724284 0.000000 
-2.169833 0.664172 0.000000 
-2.188987 0.602419 0.000000 
-2.218663 0.551173 0.000000 
-2.229021 0.495300 0.000000 
-2.997130 1.872114 0.000000 
-3.021908 1.773977 0.000000 
-2.902046 1.840607 0.000000 
-0.770600 -0.160546 0.000000 
-0.790096 -0.068887 0.000000 
-0.811857 0.011820 0.000000 
-0.835807 0.090384 0.000000 
-0.859157 0.160512 0.000000 
-0.881226 0.220564 0.000000 
-0.903169 0.279914 0.000000 
-0.928196 0.343958 0.000000 
-2.785442 1.808054 0.000000 
-2.944278 1.747312 0.000000 
-2.855014 1.710166 0.000000 
-2.796189 1.650086 0.000000 
-2.651235 1.793308 0.000000 
-2.517962 1.782961 0.000000 
-2.394240 1.773798 0.000000 
-2.275192 1.765801 0.000000 
-2.180847 1.741240 0.000000 
-2.099904 1.714761 0.000000 
-2.018420 1.683521 0.000000 
-1.945469 1.687819 0.000000 
-1.885190 1.721158 0.000000 
-1.829736 1.741727 0.000000 
-1.760875 1.766959 0.000000 
-1.680504 1.795383 0.000000 
-1.617798 1.813700 0.000000 
-1.570169 1.828224 0.000000 
-1.527149 1.842414 0.000000 
-1.482581 1.854543 0.000000 
-1.433927 1.861083 0.000000 
-1.386311 1.868998 0.000000 
-1.337319 1.877728 0.000000 
-1.286363 1.884808 0.000000 
-1.235962 1.885526 0.000000 
-1.188452 1.890339 0.000000 
-1.140860 1.899790 0.000000 
-1.091558 1.899099 0.000000 
-1.038962 1.888080 0.000000 
-0.982519 1.869082 0.000000 
-0.922315 1.852340 0.000000 
-0.869867 1.842015 0.000000 
-0.827747 1.835526 0.000000 
-0.785371 1.830614 0.000000 
-0.748025 1.820877 0.000000 
-0.712781 1.810610 0.000000 
-0.681690 1.796678 0.000000 
-0.657198 1.785544 0.000000 
-0.633895 1.778880 0.000000 
-0.612002 1.774425 0.000000 
-0.594184 1.767212 0.000000 
-0.577381 1.757762 0.000000 
-0.560109 1.742479 0.000000 
-0.540091 1.710024 0.000000 
-1.243914 0.071179 0.000000 
-1.232782 0.084896 0.000000 
-1.257376 0.056825 0.000000 
-1.224378 0.103595 0.000000 
-1.271472 0.037479 0.000000 
-1.215702 0.125592 0.000000 
-1.204660 0.151649 0.000000 
-1.290143 0.009738 0.000000 
-1.314447 -0.035302 0.000000 
-1.190204 0.181955 0.000000 
-1.318041 -0.088657 0.000000 
-1.171655 0.216111 0.000000 
-1.149359 0.252426 0.000000 
-1.123094 0.290674 0.000000 
-1.284246 -0.138636 0.000000 
-1.239750 -0.189362 0.000000 
-1.083297 0.334665 0.000000 
-1.028190 0.366337 0.000000 
-1.181630 -0.231719 0.000000 
-1.112789 -0.263146 0.000000 
-1.040643 -0.275317 0.000000 
-0.978118 -0.278403 0.000000 
-0.927392 -0.291429 0.000000 
-0.889718 -0.330563 0.000000 
-0.873564 -0.387114 0.000000 
-0.920771 -0.419308 0.000000 
-0.935346 -0.352039 0.000000 
-0.991249 -0.428883 0.000000 
-1.088918 -0.426155 0.000000 
-1.067426 -0.346503 0.000000 
-1.189474 -0.418592 0.000000 
-1.147229 -0.333836 0.000000 
-1.266509 -0.395302 0.000000 
-1.219913 -0.307659 0.000000 
-1.335307 -0.359475 0.000000 
-1.284456 -0.269660 0.000000 
-1.402357 -0.315571 0.000000 
-1.341444 -0.221859 0.000000 
-1.466758 -0.262896 0.000000 
-1.539152 -0.202097 0.000000 
-1.393011 -0.163928 0.000000 
-1.612839 -0.131825 0.000000 
-1.665320 -0.074247 0.000000 
-1.691220 -0.009421 0.000000 
-1.704696 0.076073 0.000000 
-1.850073 0.242942 0.000000 
-1.911042 0.187117 0.000000 
-1.969645 0.130281 0.000000 
-1.726970 0.182484 0.000000 
-0.222881 0.390314 0.000000 
-0.195707 0.362730 0.000000 
-0.164205 0.325783 0.000000 
-0.127520 0.293085 0.000000 
-0.095686 0.263594 0.000000 
-0.059027 0.235116 0.000000 
-0.018954 0.205132 0.000000 
0.030296 0.173861 0.000000 
0.086536 0.153336 0.000000 
0.141893 0.134604 0.000000 
0.202102 0.105324 0.000000 
0.263408 0.065407 0.000000 
0.311661 0.015421 0.000000 
0.333954 -0.044202 0.000000 
0.338621 -0.104652 0.000000 
0.341530 -0.158591 0.000000 
0.353165 -0.208779 0.000000 
0.365710 -0.267202 0.000000 
0.363543 -0.336731 0.000000 
0.357353 -0.398845 0.000000 
0.351188 -0.449588 0.000000 
0.363842 -0.496616 0.000000 
-1.737069 -0.363267 0.000000 
-0.199590 0.442931 0.000000 
-0.156305 0.413015 0.000000 
-0.462327 1.678971 0.000000 
0.741313 2.201545 0.000000 
0.482415 -0.507387 0.000000 
0.446104 -0.515283 0.000000 
0.403556 -0.520937 0.000000 
-0.104001 0.384950 0.000000 
-0.514998 1.611025 0.000000 
-0.059937 0.350545 0.000000 
0.738519 2.176280 0.000000 
0.714572 2.188580 0.000000 
-0.249752 0.469754 0.000000 
-0.036232 0.306747 0.000000 
0.000772 0.278915 0.000000 
0.035161 0.253270 0.000000 
-1.776537 -0.362708 0.000000 
-1.836238 -0.358524 0.000000 
-0.309416 0.483854 0.000000 
-0.378944 0.481590 0.000000 
-2.292732 0.361178 0.000000 
-2.315166 0.311187 0.000000 
-2.314418 0.263631 0.000000 
-2.293418 0.217244 0.000000 
-2.279687 0.167365 0.000000 
-2.253462 0.120100 0.000000 
0.075120 0.225527 0.000000 
0.131113 0.212919 0.000000 
-0.977004 0.414903 0.000000 
-0.860050 0.404737 0.000000 
-1.912142 -0.350467 0.000000 
-1.989966 -0.359248 0.000000 
-2.023752 -0.291706 0.000000 
-2.082175 -0.220445 0.000000 
0.723889 2.144767 0.000000 
0.691466 2.163610 0.000000 
0.665980 2.130963 0.000000 
0.704783 2.103695 0.000000 
0.637970 2.092905 0.000000 
0.681732 2.056486 0.000000 
0.670916 2.010311 0.000000 
0.602858 2.061237 0.000000 
0.659584 1.969887 0.000000 
0.560783 2.034866 0.000000 
0.636111 1.933813 0.000000 
0.607495 1.884022 0.000000 
0.595324 1.820542 0.000000 
0.604052 1.755868 0.000000 
0.514160 2.005463 0.000000 
0.453857 1.978018 0.000000 
0.392525 1.976039 0.000000 
0.334098 1.974511 0.000000 
0.278675 1.955757 0.000000 
0.217273 1.937682 0.000000 
0.149449 1.920326 0.000000 
0.614128 1.703593 0.000000 
0.621313 1.656013 0.000000 
0.624262 1.611134 0.000000 
-2.197766 0.066911 0.000000 
-2.158682 -0.008013 0.000000 
-2.124695 0.126241 0.000000 
-2.150589 -0.174139 0.000000 
-2.141926 -0.096593 0.000000 
-0.393439 -0.513153 0.000000 
-0.412631 -0.469110 0.000000 
-0.436983 -0.428506 0.000000 
-0.445953 -0.385087 0.000000 
-0.458251 -0.352261 0.000000 
-0.479726 -0.317495 0.000000 
-0.496934 -0.268764 0.000000 
-0.509002 -0.213680 0.000000 
-0.517157 -0.159350 0.000000 
-0.545309 -0.108074 0.000000 
-0.442273 -0.510548 0.000000 
-0.496002 -0.501030 0.000000 
-0.557668 -0.503137 0.000000 
-0.618975 -0.487657 0.000000 
-0.334659 2.143361 0.000000 
-0.367985 2.113644 0.000000 
-0.385153 2.077218 0.000000 
-0.396797 2.043351 0.000000 
-0.406285 2.007829 0.000000 
-0.402558 1.968696 0.000000 
-0.406645 1.930252 0.000000 
-0.418378 1.897838 0.000000 
-0.428059 1.868713 0.000000 
-0.435849 1.839165 0.000000 
-0.442335 1.809130 0.000000 
-0.445406 1.776065 0.000000 
-0.444483 1.730349 0.000000 
0.619822 1.565402 0.000000 
-1.077870 0.461967 0.000000 
-1.149036 0.420008 0.000000 
-1.174735 0.345165 0.000000 
-1.192231 0.293442 0.000000 
-1.210811 0.251665 0.000000 
-1.228352 0.212326 0.000000 
-1.238869 0.174346 0.000000 
-1.244643 0.142849 0.000000 
-1.248534 0.117947 0.000000 
-1.252336 0.098660 0.000000 
-1.262323 0.085408 0.000000 
-1.280319 0.074492 0.000000 
-0.451814 0.458930 0.000000 
-0.526928 0.415408 0.000000 
0.194935 0.195927 0.000000 
0.069048 1.906227 0.000000 
-0.574175 0.344724 0.000000 
-0.593607 0.263621 0.000000 
-1.764101 0.303306 0.000000 
-2.210991 0.422162 0.000000 
-0.825996 0.319460 0.000000 
-0.799223 0.248380 0.000000 
-0.760911 0.181947 0.000000 
0.605964 1.514450 0.000000 
0.587834 1.457090 0.000000 
0.576354 1.397241 0.000000 
0.574971 1.342233 0.000000 
0.580375 1.299208 0.000000 
0.545179 1.276824 0.000000 
0.509957 1.244562 0.000000 
0.484198 1.208159 0.000000 
0.468721 1.177005 0.000000 
0.449386 1.158474 0.000000 
0.422962 1.145809 0.000000 
0.391379 1.126658 0.000000 
0.357154 1.102594 0.000000 
0.323730 1.074222 0.000000 
-0.582151 -0.047207 0.000000 
0.265957 0.169497 0.000000 
0.333763 0.123368 0.000000 
0.378371 0.056352 0.000000 
0.400918 -0.018043 0.000000 
0.401084 -0.081032 0.000000 
0.404345 -0.135132 0.000000 
0.432648 -0.186214 0.000000 
0.450030 -0.250656 0.000000 
0.529803 -0.097502 0.000000 
0.491947 -0.145640 0.000000 
0.453243 -0.095756 0.000000 
0.449550 -0.324980 0.000000 
0.498420 -0.051629 0.000000 
0.474171 0.008313 0.000000 
0.457863 0.082886 0.000000 
0.462195 -0.383634 0.000000 
0.478704 -0.429970 0.000000 
0.483460 -0.470936 0.000000 
0.412910 -0.409275 0.000000 
0.398390 -0.447989 0.000000 
0.404290 -0.482276 0.000000 
0.442452 -0.477718 0.000000 
0.436659 -0.442553 0.000000 
-0.727378 0.107813 0.000000 
-0.616071 0.189832 0.000000 
-0.623548 0.115551 0.000000 
-0.605779 0.034543 0.000000 
-0.706340 0.022095 0.000000 
-0.681483 -0.064167 0.000000 
-0.032304 1.900666 0.000000 
-0.128010 1.936815 0.000000 
-0.195732 2.003939 0.000000 
-0.243911 2.057853 0.000000 
-0.287859 2.105257 0.000000 
-0.335518 2.077561 0.000000 
-0.667608 -0.149547 0.000000 
-0.584906 -0.156315 0.000000 
-0.658169 -0.229556 0.000000 
-0.578442 -0.221686 0.000000 
-0.639050 -0.300999 0.000000 
-0.607982 -0.376516 0.000000 
-0.562541 -0.284385 0.000000 
-0.536184 -0.345408 0.000000 
-0.495978 -0.383370 0.000000 
-0.500680 -0.435764 0.000000 
-0.573051 -0.440218 0.000000 
-2.690892 1.673960 0.000000 
-2.684799 1.587948 0.000000 
-2.602920 1.586686 0.000000 
-2.574381 1.671679 0.000000 
-2.518122 1.606553 0.000000 
-2.424460 1.630451 0.000000 
-2.320006 1.621520 0.000000 
-2.229986 1.597902 0.000000 
-2.146342 1.556662 0.000000 
-1.455055 -0.104947 0.000000 
-1.387692 -0.024623 0.000000 
-1.339496 0.028705 0.000000 
-1.304977 0.057265 0.000000 
-1.531301 -0.039454 0.000000 
-1.604385 0.004659 0.000000 
-1.592423 0.105339 0.000000 
-1.608296 0.229302 0.000000 
-1.827918 0.427748 0.000000 
0.477873 0.196551 0.000000 
0.477147 0.231449 0.000000 
0.465631 0.265689 0.000000 
-0.587742 1.709899 0.000000 
-0.593403 1.734002 0.000000 
-0.604579 1.746658 0.000000 
-0.619289 1.752344 0.000000 
-0.639577 1.750171 0.000000 
-0.665912 1.751787 0.000000 
-0.697937 1.758774 0.000000 
-0.595692 1.656410 0.000000 
-0.726123 1.773585 0.000000 
-0.757398 1.784156 0.000000 
-0.794522 1.781581 0.000000 
-0.841416 1.779003 0.000000 
-0.894922 1.780364 0.000000 
-0.956071 1.788779 0.000000 
-1.020951 1.807701 0.000000 
-1.077937 1.835336 0.000000 
-1.120258 1.864064 0.000000 
-1.171769 1.839803 0.000000 
0.332207 0.393194 0.000000 
0.333662 0.351459 0.000000 
0.321472 0.421811 0.000000 
0.302407 0.448624 0.000000 
0.214022 0.463286 0.000000 
0.194081 0.524310 0.000000 
0.186716 0.579823 0.000000 
0.189303 0.632595 0.000000 
0.360023 0.311778 0.000000 
0.405131 0.286644 0.000000 
0.201671 0.681841 0.000000 
0.218038 0.732102 0.000000 
0.236652 0.781036 0.000000 
0.256885 0.822970 0.000000 
0.278373 0.851464 0.000000 
0.284019 0.884862 0.000000 
0.276718 0.931609 0.000000 
0.278735 0.988422 0.000000 
0.296322 1.038690 0.000000 
-1.507867 1.791561 0.000000 
-1.548116 1.766919 0.000000 
-1.598023 1.739539 0.000000 
-1.467251 1.806335 0.000000 
-1.422160 1.813618 0.000000 
-1.373311 1.820335 0.000000 
-1.322903 1.828111 0.000000 
-1.275577 1.837357 0.000000 
-1.225048 1.835958 0.000000 
-1.662214 1.715870 0.000000 
-1.732600 1.695930 0.000000 
-1.794687 1.681555 0.000000 
-1.841773 1.652368 0.000000 
-2.078405 0.719640 0.000000 
-2.079214 0.798230 0.000000 
-2.097651 0.642040 0.000000 
-2.129318 0.570301 0.000000 
-2.096743 0.878792 0.000000 
-2.169699 0.514958 0.000000 
-1.991686 0.441958 0.000000 
-1.642187 0.367514 0.000000 
-1.989898 0.274733 0.000000 
-2.064526 0.202920 0.000000 
-1.914688 0.348267 0.000000 
-2.037969 1.131344 0.000000 
-2.021377 1.015659 0.000000 
-2.055796 1.260506 0.000000 
-2.102728 1.363159 0.000000 
-2.047875 1.505461 0.000000 
0.428030 0.252192 0.000000 
0.375625 0.230956 0.000000 
0.313454 0.244057 0.000000 
0.290352 0.390092 0.000000 
0.238487 1.101009 0.000000 
0.440631 0.214084 0.000000 
0.396678 0.174307 0.000000 
0.460488 0.148387 0.000000 
0.523747 1.324499 0.000000 
-2.262588 0.287754 0.000000 
-2.220468 0.343781 0.000000 
-2.218579 0.234243 0.000000 
-2.146376 0.286093 0.000000 
-2.206503 0.169172 0.000000 
0.473879 1.285887 0.000000 
0.446488 1.233556 0.000000 
0.440978 1.189537 0.000000 
0.409581 1.181682 0.000000 
0.629179 2.010577 0.000000 
0.593839 1.978104 0.000000 
0.550362 1.933900 0.000000 
0.483841 1.893477 0.000000 
0.202470 1.034645 0.000000 
0.241245 0.886869 0.000000 
0.205152 0.862069 0.000000 
0.175878 0.813928 0.000000 
0.153326 0.755422 0.000000 
0.132079 0.694972 0.000000 
0.113278 0.630516 0.000000 
0.106000 0.562193 0.000000 
0.109640 0.492996 0.000000 
0.121648 0.422318 0.000000 
0.032483 0.332704 0.000000 
0.246820 0.415382 0.000000 
0.099619 0.281069 0.000000 
0.373127 1.166799 0.000000 
-0.307911 2.029939 0.000000 
-0.360136 2.011470 0.000000 
-0.343252 1.957124 0.000000 
-0.270247 1.965269 0.000000 
0.168337 0.277588 0.000000 
0.242346 0.267250 0.000000 
0.270369 0.336287 0.000000 
0.505525 1.392260 0.000000 
-0.689828 0.219516 0.000000 
-0.729540 0.276920 0.000000 
-0.746154 0.351392 0.000000 
-0.657668 0.367956 0.000000 
-0.661195 0.283669 0.000000 
-0.924642 0.520632 0.000000 
-1.137284 1.783995 0.000000 
-1.072920 1.739401 0.000000 
-1.248127 1.796292 0.000000 
-1.304069 1.779970 0.000000 
-1.360197 1.772310 0.000000 
-1.411221 1.768170 0.000000 
-1.453165 1.764940 0.000000 
-1.486003 1.747478 0.000000 
-1.510814 1.704009 0.000000 
-1.558800 1.659340 0.000000 
-0.995058 1.712648 0.000000 
-0.919611 1.702172 0.000000 
-0.852227 1.709104 0.000000 
-0.796966 1.725623 0.000000 
-0.752732 1.744791 0.000000 
-1.635591 1.632007 0.000000 
-1.992480 0.906709 0.000000 
-1.965104 0.796929 0.000000 
-1.974377 0.693597 0.000000 
-2.014368 0.599975 0.000000 
-2.065453 0.516789 0.000000 
-2.071492 0.363722 0.000000 
-2.131272 0.447258 0.000000 
-1.712039 1.618684 0.000000 
-1.781280 1.618635 0.000000 
-1.884796 1.588578 0.000000 
0.516332 1.808241 0.000000 
0.538779 1.737112 0.000000 
0.517174 1.466646 0.000000 
0.552532 1.528582 0.000000 
0.576896 1.570509 0.000000 
0.583356 1.607535 0.000000 
0.576083 1.644539 0.000000 
0.562288 1.686900 0.000000 