# vtk DataFile Version 3.0 
vtk output 
ASCII 
DATASET UNSTRUCTURED_GRID 
POINTS 899 float 
-3.648847 2.326713 0.000000 
-3.619410 2.286161 0.000000 
-3.578536 2.250567 0.000000 
-3.540028 2.214916 0.000000 
-3.511690 2.182720 0.000000 
-3.481362 2.152862 0.000000 
-3.451569 2.112189 0.000000 
0.772356 2.229227 0.000000 
0.774615 2.203106 0.000000 
0.769962 2.174352 0.000000 
-3.399514 2.081913 0.000000 
0.413960 -0.562929 0.000000 
0.455573 -0.558627 0.000000 
-1.762619 -0.462825 0.000000 
-1.783389 -0.427428 0.000000 
-1.714437 -0.398639 0.000000 
0.732567 2.223552 0.000000 
0.698438 2.209716 0.000000 
0.491831 -0.544424 0.000000 
0.519501 -0.514019 0.000000 
0.530556 -0.473572 0.000000 
0.532354 -0.427768 0.000000 
0.531774 -0.377261 0.000000 
-3.460923 2.020180 0.000000 
0.663989 2.187770 0.000000 
0.631675 2.160375 0.000000 
0.601833 2.136319 0.000000 
0.569607 2.113062 0.000000 
0.534059 2.090984 0.000000 
0.492599 2.069844 0.000000 
0.444403 2.051179 0.000000 
0.762807 2.133378 0.000000 
-1.708694 -0.364257 0.000000 
-1.726386 -0.323993 0.000000 
-1.761257 -0.299972 0.000000 
-1.812853 -0.292124 0.000000 
-0.690422 -0.544459 0.000000 
-0.624256 -0.562387 0.000000 
-0.561079 -0.570569 0.000000 
-0.500739 -0.572024 0.000000 
-0.445387 -0.572087 0.000000 
0.532260 -0.318177 0.000000 
0.536647 -0.248844 0.000000 
-1.881389 -0.279623 0.000000 
-0.389303 -0.569812 0.000000 
-0.340338 -0.554527 0.000000 
-0.344339 -0.500392 0.000000 
-0.358558 -0.447852 0.000000 
-0.381750 -0.406941 0.000000 
-0.406193 -0.372766 0.000000 
-0.417316 -0.341268 0.000000 
-0.428320 -0.307011 0.000000 
-0.436973 -0.262747 0.000000 
-0.444212 -0.207204 0.000000 
-0.452662 -0.148346 0.000000 
-0.468602 -0.091447 0.000000 
0.553166 -0.184129 0.000000 
0.573193 -0.126458 0.000000 
0.574450 -0.074718 0.000000 
0.561087 -0.024398 0.000000 
0.550432 0.030925 0.000000 
0.748903 2.080060 0.000000 
0.730940 2.023568 0.000000 
0.715868 1.977408 0.000000 
0.699446 1.941280 0.000000 
0.684888 1.900291 0.000000 
0.675900 1.854086 0.000000 
0.669871 1.804527 0.000000 
0.664455 1.756670 0.000000 
0.668163 1.710250 0.000000 
0.672091 1.660417 0.000000 
0.674558 1.612393 0.000000 
0.673045 1.562314 0.000000 
0.386491 2.041499 0.000000 
0.664855 1.503575 0.000000 
0.652298 1.445497 0.000000 
0.638456 1.391847 0.000000 
0.623121 1.342337 0.000000 
0.616008 1.299310 0.000000 
0.600787 1.264368 0.000000 
0.571289 1.234919 0.000000 
0.539016 1.203758 0.000000 
0.513857 1.174859 0.000000 
0.493343 1.148624 0.000000 
0.469109 1.130811 0.000000 
0.444920 1.114367 0.000000 
0.415324 1.093401 0.000000 
0.383540 1.068649 0.000000 
0.356179 1.039316 0.000000 
0.343879 1.000417 0.000000 
0.337476 0.954896 0.000000 
0.332404 0.909610 0.000000 
0.328512 0.869920 0.000000 
0.319594 0.833840 0.000000 
0.304149 0.800429 0.000000 
0.290502 0.760039 0.000000 
0.275896 0.712176 0.000000 
0.261905 0.670207 0.000000 
0.250150 0.636612 0.000000 
0.250896 0.598807 0.000000 
0.259587 0.556204 0.000000 
0.284617 0.513431 0.000000 
0.315237 0.483769 0.000000 
0.340022 0.464333 0.000000 
0.354380 0.438484 0.000000 
0.368685 0.411341 0.000000 
0.385568 0.384945 0.000000 
0.415372 0.360148 0.000000 
0.447119 0.328435 0.000000 
0.477633 0.300519 0.000000 
0.503078 0.272582 0.000000 
0.518876 0.234528 0.000000 
0.527127 0.198560 0.000000 
0.534187 0.154014 0.000000 
0.543185 0.093234 0.000000 
0.322519 2.030443 0.000000 
0.263849 2.017327 0.000000 
0.208223 2.011907 0.000000 
0.150441 2.008078 0.000000 
-0.687392 -0.471392 0.000000 
-3.327058 2.055681 0.000000 
-3.276080 2.009260 0.000000 
-3.224941 1.975673 0.000000 
-3.181728 1.946514 0.000000 
-3.135074 1.909584 0.000000 
-3.078123 1.885291 0.000000 
-1.944260 -0.234745 0.000000 
0.083204 2.013234 0.000000 
0.005786 2.007882 0.000000 
-0.071812 2.017120 0.000000 
-0.135705 2.046661 0.000000 
-0.182391 2.088267 0.000000 
-1.999041 -0.163777 0.000000 
-1.843230 -0.438285 0.000000 
-0.491126 -0.027487 0.000000 
-0.512312 0.045756 0.000000 
-0.526535 0.108589 0.000000 
-0.527935 0.170710 0.000000 
-0.524207 0.237880 0.000000 
-0.505864 0.295012 0.000000 
-0.468875 0.344224 0.000000 
-0.410369 0.373469 0.000000 
-0.354013 0.394586 0.000000 
-0.301050 0.404532 0.000000 
-0.255730 0.405304 0.000000 
-0.695595 -0.393097 0.000000 
-0.726457 -0.316215 0.000000 
-0.747352 -0.246760 0.000000 
-3.396487 1.998546 0.000000 
-3.344056 1.919158 0.000000 
-3.294256 1.875757 0.000000 
-3.248246 1.837433 0.000000 
-3.196818 1.798079 0.000000 
-3.159669 1.746769 0.000000 
-3.113281 1.700064 0.000000 
-3.056061 1.680501 0.000000 
-2.996684 1.657876 0.000000 
-2.933161 1.628260 0.000000 
-2.879064 1.592117 0.000000 
-2.813006 1.567332 0.000000 
-2.751664 1.544281 0.000000 
-2.686782 1.514959 0.000000 
-1.922020 -0.435479 0.000000 
-1.999705 -0.436977 0.000000 
-2.060018 -0.415374 0.000000 
-2.032615 -0.080386 0.000000 
-2.048550 0.005336 0.000000 
-2.029059 0.071229 0.000000 
-2.105228 -0.358315 0.000000 
-2.154373 -0.290721 0.000000 
-2.203584 -0.236097 0.000000 
-2.237020 -0.174661 0.000000 
-2.250593 -0.109369 0.000000 
-2.270119 -0.037585 0.000000 
-2.297898 0.032726 0.000000 
-2.327118 0.094305 0.000000 
-2.346747 0.148275 0.000000 
-2.362840 0.201385 0.000000 
-2.374561 0.252429 0.000000 
-2.373128 0.304405 0.000000 
-2.334174 0.370995 0.000000 
-2.331842 0.411613 0.000000 
-2.284565 0.420372 0.000000 
-0.236368 2.137802 0.000000 
-0.299146 2.181629 0.000000 
-0.346614 2.201554 0.000000 
-0.382877 2.165051 0.000000 
-0.412447 2.136002 0.000000 
-0.433989 2.095714 0.000000 
-0.446472 2.052748 0.000000 
-0.451628 2.013429 0.000000 
-0.451047 1.974967 0.000000 
-0.449242 1.938964 0.000000 
-0.453345 1.907074 0.000000 
-0.460251 1.879381 0.000000 
-0.470304 1.850595 0.000000 
-0.475290 1.821105 0.000000 
-0.478341 1.791320 0.000000 
-0.479442 1.754584 0.000000 
-2.609147 1.501169 0.000000 
-2.517189 1.495671 0.000000 
-2.434013 1.496008 0.000000 
-2.352624 1.485976 0.000000 
-2.274410 1.466605 0.000000 
-2.204499 1.431957 0.000000 
-2.180326 1.363074 0.000000 
-2.178559 1.274538 0.000000 
-2.168273 1.184509 0.000000 
-2.159086 1.086445 0.000000 
-2.144575 0.997286 0.000000 
-2.163040 0.922069 0.000000 
-2.183612 0.847977 0.000000 
-2.172907 0.783419 0.000000 
-2.161614 0.720664 0.000000 
-2.169833 0.660552 0.000000 
-2.188987 0.598799 0.000000 
-2.218663 0.547553 0.000000 
-2.229021 0.491680 0.000000 
-2.997130 1.868494 0.000000 
-3.021908 1.770357 0.000000 
-2.902046 1.836987 0.000000 
-0.770600 -0.164166 0.000000 
-0.790096 -0.072507 0.000000 
-0.811857 0.008200 0.000000 
-0.835807 0.086764 0.000000 
-0.859157 0.156892 0.000000 
-0.881226 0.216944 0.000000 
-0.903169 0.276294 0.000000 
-0.928196 0.340338 0.000000 
-2.785442 1.804434 0.000000 
-2.944278 1.743692 0.000000 
-2.855014 1.706546 0.000000 
-2.796189 1.646466 0.000000 
-2.651235 1.789688 0.000000 
-2.517962 1.779341 0.000000 
-2.394240 1.770178 0.000000 
-2.275192 1.762182 0.000000 
-2.180847 1.737620 0.000000 
-2.099904 1.711141 0.000000 
-2.018420 1.679901 0.000000 
-1.945469 1.684199 0.000000 
-1.885190 1.717539 0.000000 
-1.829736 1.738107 0.000000 
-1.760875 1.763339 0.000000 
-1.680504 1.791763 0.000000 
-1.617798 1.810080 0.000000 
-1.570169 1.824604 0.000000 
-1.527149 1.838794 0.000000 
-1.482581 1.850923 0.000000 
-1.433927 1.857463 0.000000 
-1.386311 1.865378 0.000000 
-1.337319 1.874108 0.000000 
-1.286363 1.881188 0.000000 
-1.235962 1.881906 0.000000 
-1.188452 1.886719 0.000000 
-1.140860 1.896170 0.000000 
-1.091558 1.895479 0.000000 
-1.038962 1.884460 0.000000 
-0.982519 1.865462 0.000000 
-0.922315 1.848720 0.000000 
-0.869867 1.838395 0.000000 
-0.827747 1.831906 0.000000 
-0.785371 1.826994 0.000000 
-0.748025 1.817257 0.000000 
-0.712781 1.806990 0.000000 
-0.681690 1.793058 0.000000 
-0.657198 1.781924 0.000000 
-0.633895 1.775260 0.000000 
-0.612002 1.770805 0.000000 
-0.594184 1.763592 0.000000 
-0.577381 1.754142 0.000000 
-0.560109 1.738859 0.000000 
-0.540091 1.706404 0.000000 
-1.243914 0.067559 0.000000 
-1.232782 0.081276 0.000000 
-1.257376 0.053205 0.000000 
-1.224378 0.099975 0.000000 
-1.271472 0.033859 0.000000 
-1.215702 0.121972 0.000000 
-1.204660 0.148029 0.000000 
-1.290143 0.006118 0.000000 
-1.314447 -0.038922 0.000000 
-1.190204 0.178335 0.000000 
-1.318041 -0.092276 0.000000 
-1.171655 0.212491 0.000000 
-1.149359 0.248806 0.000000 
-1.123094 0.287054 0.000000 
-1.284246 -0.142256 0.000000 
-1.239750 -0.192982 0.000000 
-1.083297 0.331045 0.000000 
-1.028190 0.362717 0.000000 
-1.181630 -0.235339 0.000000 
-1.112789 -0.266766 0.000000 
-1.040643 -0.278936 0.000000 
-0.978118 -0.282023 0.000000 
-0.927392 -0.295049 0.000000 
-0.889718 -0.334183 0.000000 
-0.873564 -0.390734 0.000000 
-0.920771 -0.422928 0.000000 
-0.935346 -0.355659 0.000000 
-0.991249 -0.432503 0.000000 
-1.088918 -0.429775 0.000000 
-1.067426 -0.350123 0.000000 
-1.189474 -0.422212 0.000000 
-1.147229 -0.337456 0.000000 
-1.266509 -0.398922 0.000000 
-1.219913 -0.311279 0.000000 
-1.335307 -0.363095 0.000000 
-1.284456 -0.273280 0.000000 
-1.402357 -0.319191 0.000000 
-1.341444 -0.225479 0.000000 
-1.466758 -0.266516 0.000000 
-1.539152 -0.205717 0.000000 
-1.393011 -0.167548 0.000000 
-1.612839 -0.135445 0.000000 
-1.665320 -0.077867 0.000000 
-1.691220 -0.013041 0.000000 
-1.704696 0.072453 0.000000 
-1.850073 0.239322 0.000000 
-1.911042 0.183498 0.000000 
-1.969645 0.126661 0.000000 
-1.726970 0.178864 0.000000 
-0.222881 0.386694 0.000000 
-0.195707 0.359111 0.000000 
-0.164205 0.322163 0.000000 
-0.127520 0.289465 0.000000 
-0.095686 0.259974 0.000000 
-0.059027 0.231496 0.000000 
-0.018954 0.201512 0.000000 
0.030296 0.170242 0.000000 
0.086536 0.149716 0.000000 
0.141893 0.130984 0.000000 
0.202102 0.101704 0.000000 
0.263408 0.061788 0.000000 
0.311661 0.011801 0.000000 
0.333954 -0.047822 0.000000 
0.338621 -0.108272 0.000000 
0.341530 -0.162211 0.000000 
0.353165 -0.212399 0.000000 
0.365710 -0.270822 0.000000 
0.363543 -0.340351 0.000000 
[...]
POINT_DATA 899 
VECTORS X_GC float 
-3.648847 2.326713 0.000000 
-3.619410 2.286161 0.000000 
-3.578536 2.250567 0.000000 
-3.540028 2.214916 0.000000 
-3.511690 2.182720 0.000000 
-3.481362 2.152862 0.000000 
-3.451569 2.112189 0.000000 
0.772356 2.229227 0.000000 
0.774615 2.203106 0.000000 
0.769962 2.174352 0.000000 
-3.399514 2.081913 0.000000 
0.413960 -0.562929 0.000000 
0.455573 -0.558627 0.000000 
-1.762619 -0.462825 0.000000 
-1.783389 -0.427428 0.000000 
-1.714437 -0.398639 0.000000 
0.732567 2.223552 0.000000 
0.698438 2.209716 0.000000 
0.491831 -0.544424 0.000000 
0.519501 -0.514019 0.000000 
0.530556 -0.473572 0.000000 
0.532354 -0.427768 0.000000 
0.531774 -0.377261 0.000000 
-3.460923 2.020180 0.000000 
0.663989 2.187770 0.000000 
0.631675 2.160375 0.000000 
0.601833 2.136319 0.000000 
0.569607 2.113062 0.000000 
0.534059 2.090984 0.000000 
0.492599 2.069844 0.000000 
0.444403 2.051179 0.000000 
0.762807 2.133378 0.000000 
-1.708694 -0.364257 0.000000 
-1.726386 -0.323993 0.000000 
-1.761257 -0.299972 0.000000 
-1.812853 -0.292124 0.000000 
-0.690422 -0.544459 0.000000 
-0.624256 -0.562387 0.000000 
-0.561079 -0.570569 0.000000 
-0.500739 -0.572024 0.000000 
-0.445387 -0.572087 0.000000 
0.532260 -0.318177 0.000000 
0.536647 -0.248844 0.000000 
-1.881389 -0.279623 0.000000 
-0.389303 -0.569812 0.000000 
-0.340338 -0.554527 0.000000 
-0.344339 -0.500392 0.000000 
-0.358558 -0.447852 0.000000 
-0.381750 -0.406941 0.000000 
-0.406193 -0.372766 0.000000 
-0.417316 -0.341268 0.000000 
-0.428320 -0.307011 0.000000 
-0.436973 -0.262747 0.000000 
-0.444212 -0.207204 0.000000 
-0.452662 -0.148346 0.000000 
-0.468602 -0.091447 0.000000 
0.553166 -0.184129 0.000000 
0.573193 -0.126458 0.000000 
0.574450 -0.074718 0.000000 
0.561087 -0.024398 0.000000 
0.550432 0.030925 0.000000 
0.748903 2.080060 0.000000 
0.730940 2.023568 0.000000 
0.715868 1.977408 0.000000 
0.699446 1.941280 0.000000 
0.684888 1.900291 0.000000 
0.675900 1.854086 0.000000 
0.669871 1.804527 0.000000 
0.664455 1.756670 0.000000 
0.668163 1.710250 0.000000 
0.672091 1.660417 0.000000 
0.674558 1.612393 0.000000 
0.673045 1.562314 0.000000 
0.386491 2.041499 0.000000 
0.664855 1.503575 0.000000 
0.652298 1.445497 0.000000 
0.638456 1.391847 0.000000 
0.623121 1.342337 0.000000 
0.616008 1.299310 0.000000 
0.600787 1.264368 0.000000 
0.571289 1.234919 0.000000 
0.539016 1.203758 0.000000 
0.513857 1.174859 0.000000 
0.493343 1.148624 0.000000 
0.469109 1.130811 0.000000 
0.444920 1.114367 0.000000 
0.415324 1.093401 0.000000 
0.383540 1.068649 0.000000 
0.356179 1.039316 0.000000 
0.343879 1.000417 0.000000 
0.337476 0.954896 0.000000 
0.332404 0.909610 0.000000 
0.328512 0.869920 0.000000 
0.319594 0.833840 0.000000 
0.304149 0.800429 0.000000 
0.290502 0.760039 0.000000 
0.275896 0.712176 0.000000 
0.261905 0.670207 0.000000 
0.250150 0.636612 0.000000 
0.250896 0.598807 0.000000 
0.259587 0.556204 0.000000 
0.284617 0.513431 0.000000 
0.315237 0.483769 0.000000 
0.340022 0.464333 0.000000 
0.354380 0.438484 0.000000 
0.368685 0.411341 0.000000 
0.385568 0.384945 0.000000 
0.415372 0.360148 0.000000 
0.447119 0.328435 0.000000 
0.477633 0.300519 0.000000 
0.503078 0.272582 0.000000 
0.518876 0.234528 0.000000 
0.527127 0.198560 0.000000 
0.534187 0.154014 0.000000 
0.543185 0.093234 0.000000 
0.322519 2.030443 0.000000 
0.263849 2.017327 0.000000 
0.208223 2.011907 0.000000 
0.150441 2.008078 0.000000 
-0.687392 -0.471392 0.000000 
-3.327058 2.055681 0.000000 
-3.276080 2.009260 0.000000 
-3.224941 1.975673 0.000000 
-3.181728 1.946514 0.000000 
-3.135074 1.909584 0.000000 
-3.078123 1.885291 0.000000 
-1.944260 -0.234745 0.000000 
0.083204 2.013234 0.000000 
0.005786 2.007882 0.000000 
-0.071812 2.017120 0.000000 
-0.135705 2.046661 0.000000 
-0.182391 2.088267 0.000000 
-1.999041 -0.163777 0.000000 
-1.843230 -0.438285 0.000000 
-0.491126 -0.027487 0.000000 
-0.512312 0.045756 0.000000 
-0.526535 0.108589 0.000000 
-0.527935 0.170710 0.000000 
-0.524207 0.237880 0.000000 
-0.505864 0.295012 0.000000 
-0.468875 0.344224 0.000000 
-0.410369 0.373469 0.000000 
-0.354013 0.394586 0.000000 
-0.301050 0.404532 0.000000 
-0.255730 0.405304 0.000000 
-0.695595 -0.393097 0.000000 
-0.726457 -0.316215 0.000000 
-0.747352 -0.246760 0.000000 
-3.396487 1.998546 0.000000 
-3.344056 1.919158 0.000000 
-3.294256 1.875757 0.000000 
-3.248246 1.837433 0.000000 
-3.196818 1.798079 0.000000 
-3.159669 1.746769 0.000000 
-3.113281 1.700064 0.000000 
-3.056061 1.680501 0.000000 
-2.996684 1.657876 0.000000 
-2.933161 1.628260 0.000000 
-2.879064 1.592117 0.000000 
-2.813006 1.567332 0.000000 
-2.751664 1.544281 0.000000 
-2.686782 1.514959 0.000000 
-1.922020 -0.435479 0.000000 
-1.999705 -0.436977 0.000000 
-2.060018 -0.415374 0.000000 
-2.032615 -0.080386 0.000000 
-2.048550 0.005336 0.000000 
-2.029059 0.071229 0.000000 
-2.105228 -0.358315 0.000000 
-2.154373 -0.290721 0.000000 
-2.203584 -0.236097 0.000000 
-2.237020 -0.174661 0.000000 
-2.250593 -0.109369 0.000000 
-2.270119 -0.037585 0.000000 
-2.297898 0.032726 0.000000 
-2.327118 0.094305 0.000000 
-2.346747 0.148275 0.000000 
-2.362840 0.201385 0.000000 
-2.374561 0.252429 0.000000 
-2.373128 0.304405 0.000000 
-2.334174 0.370995 0.000000 
-2.331842 0.411613 0.000000 
-2.284565 0.420372 0.000000 
-0.236368 2.137802 0.000000 
-0.299146 2.181629 0.000000 
-0.346614 2.201554 0.000000 
-0.382877 2.165051 0.000000 
-0.412447 2.136002 0.000000 
-0.433989 2.095714 0.000000 
-0.446472 2.052748 0.000000 
-0.451628 2.013429 0.000000 
-0.451047 1.974967 0.000000 
-0.449242 1.938964 0.000000 
-0.453345 1.907074 0.000000 
-0.460251 1.879381 0.000000 
-0.470304 1.850595 0.000000 
-0.475290 1.821105 0.000000 
-0.478341 1.791320 0.000000 
-0.479442 1.754584 0.000000 
-2.609147 1.501169 0.000000 
-2.517189 1.495671 0.000000 
-2.434013 1.496008 0.000000 
-2.352624 1.485976 0.000000 
-2.274410 1.466605 0.000000 
-2.204499 1.431957 0.000000 
-2.180326 1.363074 0.000000 
-2.178559 1.274538 0.000000 
-2.168273 1.184509 0.000000 
-2.159086 1.086445 0.000000 
-2.144575 0.997286 0.000000 
-2.163040 0.922069 0.000000 
-2.183612 0.847977 0.000000 
-2.172907 0.783419 0.000000 
-2.161614 0.720664 0.000000 
-2.169833 0.660552 0.000000 
-2.188987 0.598799 0.000000 
-2.218663 0.547553 0.000000 
-2.229021 0.491680 0.000000 
-2.997130 1.868494 0.000000 
-3.021908 1.770357 0.000000 
-2.902046 1.836987 0.000000 
-0.770600 -0.164166 0.000000 
-0.790096 -0.072507 0.000000 
-0.811857 0.008200 0.000000 
-0.835807 0.086764 0.000000 
-0.859157 0.156892 0.000000 
-0.881226 0.216944 0.000000 
-0.903169 0.276294 0.000000 
-0.928196 0.340338 0.000000 
-2.785442 1.804434 0.000000 
-2.944278 1.743692 0.000000 
-2.855014 1.706546 0.000000 
-2.796189 1.646466 0.000000 
-2.651235 1.789688 0.000000 
-2.517962 1.779341 0.000000 
-2.394240 1.770178 0.000000 
-2.275192 1.762182 0.000000 
-2.180847 1.737620 0.000000 
-2.099904 1.711141 0.000000 
-2.018420 1.679901 0.000000 
-1.945469 1.684199 0.000000 
-1.885190 1.717539 0.000000 
-1.829736 1.738107 0.000000 
-1.760875 1.763339 0.000000 
-1.680504 1.791763 0.000000 
-1.617798 1.810080 0.000000 
-1.570169 1.824604 0.000000 
-1.527149 1.838794 0.000000 
-1.482581 1.850923 0.000000 
-1.433927 1.857463 0.000000 
-1.386311 1.865378 0.000000 
-1.337319 1.874108 0.000000 
-1.286363 1.881188 0.000000 
-1.235962 1.881906 0.000000 
-1.188452 1.886719 0.000000 
-1.140860 1.896170 0.000000 
-1.091558 1.895479 0.000000 
-1.038962 1.884460 0.000000 
-0.982519 1.865462 0.000000 
-0.922315 1.848720 0.000000 
-0.869867 1.838395 0.000000 
-0.827747 1.831906 0.000000 
-0.785371 1.826994 0.000000 
-0.748025 1.817257 0.000000 
-0.712781 1.806990 0.000000 
-0.681690 1.793058 0.000000 
-0.657198 1.781924 0.000000 
-0.633895 1.775260 0.000000 
-0.612002 1.770805 0.000000 
-0.594184 1.763592 0.000000 
-0.577381 1.754142 0.000000 
-0.560109 1.738859 0.000000 
-0.540091 1.706404 0.000000 
-1.243914 0.067559 0.000000 
-1.232782 0.081276 0.000000 
-1.257376 0.053205 0.000000 
-1.224378 0.099975 0.000000 
-1.271472 0.033859 0.000000 
-1.215702 0.121972 0.000000 
-1.204660 0.148029 0.000000 
-1.290143 0.006118 0.000000 
-1.314447 -0.038922 0.000000 
-1.190204 0.178335 0.000000 
-1.318041 -0.092276 0.000000 
-1.171655 0.212491 0.000000 
-1.149359 0.248806 0.000000 
-1.123094 0.287054 0.000000 
-1.284246 -0.142256 0.000000 
-1.239750 -0.192982 0.000000 
-1.083297 0.331045 0.000000 
-1.028190 0.362717 0.000000 
-1.181630 -0.235339 0.000000 
-1.112789 -0.266766 0.000000 
-1.040643 -0.278936 0.000000 
-0.978118 -0.282023 0.000000 
-0.927392 -0.295049 0.000000 
-0.889718 -0.334183 0.000000 
-0.873564 -0.390734 0.000000 
-0.920771 -0.422928 0.000000 
-0.935346 -0.355659 0.000000 
-0.991249 -0.432503 0.000000 
-1.088918 -0.429775 0.000000 
-1.067426 -0.350123 0.000000 
-1.189474 -0.422212 0.000000 
-1.147229 -0.337456 0.000000 
-1.266509 -0.398922 0.000000 
-1.219913 -0.311279 0.000000 
-1.335307 -0.363095 0.000000 
-1.284456 -0.273280 0.000000 
-1.402357 -0.319191 0.000000 
-1.341444 -0.225479 0.000000 
-1.466758 -0.266516 0.000000 
-1.539152 -0.205717 0.000000 
-1.393011 -0.167548 0.000000 
-1.612839 -0.135445 0.000000 
-1.665320 -0.077867 0.000000 
-1.691220 -0.013041 0.000000 
-1.704696 0.072453 0.000000 
-1.850073 0.239322 0.000000 
-1.911042 0.183498 0.000000 
-1.969645 0.126661 0.000000 
-1.726970 0.178864 0.000000 
-0.222881 0.386694 0.000000 
-0.195707 0.359111 0.000000 
-0.164205 0.322163 0.000000 
-0.127520 0.289465 0.000000 
-0.095686 0.259974 0.000000 
-0.059027 0.231496 0.000000 
-0.018954 0.201512 0.000000 
0.030296 0.170242 0.000000 
0.086536 0.149716 0.000000 
0.141893 0.130984 0.000000 
0.202102 0.101704 0.000000 
0.263408 0.061788 0.000000 
0.311661 0.011801 0.000000 
0.333954 -0.047822 0.000000 
0.338621 -0.108272 0.000000 
0.341530 -0.162211 0.000000 
0.353165 -0.212399 0.000000 
0.365710 -0.270822 0.000000 
0.363543 -0.340351 0.000000 
0.357353 -0.402465 0.000000 
0.351188 -0.453208 0.000000 
0.363842 -0.500236 0.000000 
-1.737069 -0.366887 0.000000 
-0.199590 0.439311 0.000000 
-0.156305 0.409395 0.000000 
-0.462327 1.675351 0.000000 
0.741313 2.197925 0.000000 
0.482415 -0.511007 0.000000 
0.446104 -0.518903 0.000000 
0.403556 -0.524557 0.000000 
-0.104001 0.381330 0.000000 
-0.514998 1.607405 0.000000 
-0.059937 0.346925 0.000000 
0.738519 2.172660 0.000000 
0.714572 2.184960 0.000000 
-0.249752 0.466134 0.000000 
-0.036232 0.303127 0.000000 
0.000772 0.275295 0.000000 
0.035161 0.249650 0.000000 
-1.776537 -0.366328 0.000000 
-1.836238 -0.362144 0.000000 
-0.309416 0.480235 0.000000 
-0.378944 0.477970 0.000000 
-2.292732 0.357559 0.000000 
-2.315166 0.307568 0.000000 
-2.314418 0.260011 0.000000 
-2.293418 0.213624 0.000000 
-2.279687 0.163745 0.000000 
-2.253462 0.116480 0.000000 
0.075120 0.221907 0.000000 
0.131113 0.209299 0.000000 
-0.977004 0.411283 0.000000 
-0.860050 0.401117 0.000000 
-1.912142 -0.354087 0.000000 
-1.989966 -0.362868 0.000000 
-2.023752 -0.295326 0.000000 
-2.082175 -0.224065 0.000000 
0.723889 2.141147 0.000000 
0.691466 2.159990 0.000000 
0.665980 2.127343 0.000000 
0.704783 2.100075 0.000000 
0.637970 2.089285 0.000000 
0.681732 2.052867 0.000000 
0.670916 2.006691 0.000000 
0.602858 2.057617 0.000000 
0.659584 1.966268 0.000000 
0.560783 2.031246 0.000000 
0.636111 1.930193 0.000000 
0.607495 1.880402 0.000000 
0.595324 1.816922 0.000000 
0.604052 1.752248 0.000000 
0.514160 2.001843 0.000000 
0.453857 1.974398 0.000000 
0.392525 1.972419 0.000000 
0.334098 1.970891 0.000000 
0.278675 1.952137 0.000000 
0.217273 1.934062 0.000000 
0.149449 1.916706 0.000000 
0.614128 1.699973 0.000000 
0.621313 1.652393 0.000000 
0.624262 1.607514 0.000000 
-2.197766 0.063291 0.000000 
-2.158682 -0.011632 0.000000 
-2.124695 0.122621 0.000000 
-2.150589 -0.177759 0.000000 
-2.141926 -0.100213 0.000000 
-0.393439 -0.516773 0.000000 
-0.412631 -0.472730 0.000000 
-0.436983 -0.432126 0.000000 
-0.445953 -0.388707 0.000000 
-0.458251 -0.355881 0.000000 
-0.479726 -0.321114 0.000000 
-0.496934 -0.272384 0.000000 
-0.509002 -0.217300 0.000000 
-0.517157 -0.162969 0.000000 
-0.545309 -0.111694 0.000000 
-0.442273 -0.514168 0.000000 
-0.496002 -0.504650 0.000000 
-0.557668 -0.506757 0.000000 
-0.618975 -0.491277 0.000000 
-0.334659 2.139742 0.000000 
-0.367985 2.110024 0.000000 
-0.385153 2.073598 0.000000 
-0.396797 2.039731 0.000000 
-0.406285 2.004209 0.000000 
-0.402558 1.965076 0.000000 
-0.406645 1.926633 0.000000 
-0.418378 1.894218 0.000000 
-0.428059 1.865093 0.000000 
-0.435849 1.835545 0.000000 
-0.442335 1.805510 0.000000 
-0.445406 1.772445 0.000000 
-0.444483 1.726729 0.000000 
0.619822 1.561782 0.000000 
-1.077870 0.458347 0.000000 
-1.149036 0.416388 0.000000 
-1.174735 0.341545 0.000000 
-1.192231 0.289822 0.000000 
-1.210811 0.248045 0.000000 
-1.228352 0.208706 0.000000 
-1.238869 0.170726 0.000000 
-1.244643 0.139229 0.000000 
-1.248534 0.114328 0.000000 
-1.252336 0.095040 0.000000 
-1.262323 0.081788 0.000000 
-1.280319 0.070872 0.000000 
-0.451814 0.455310 0.000000 
-0.526928 0.411788 0.000000 
0.194935 0.192307 0.000000 
0.069048 1.902607 0.000000 
-0.574175 0.341104 0.000000 
-0.593607 0.260001 0.000000 
-1.764101 0.299686 0.000000 
-2.210991 0.418542 0.000000 
-0.825996 0.315840 0.000000 
-0.799223 0.244760 0.000000 
-0.760911 0.178327 0.000000 
0.605964 1.510830 0.000000 
0.587834 1.453470 0.000000 
0.576354 1.393622 0.000000 
0.574971 1.338613 0.000000 
0.580375 1.295588 0.000000 
0.545179 1.273204 0.000000 
0.509957 1.240942 0.000000 
0.484198 1.204539 0.000000 
0.468721 1.173385 0.000000 
0.449386 1.154854 0.000000 
0.422962 1.142189 0.000000 
0.391379 1.123038 0.000000 
0.357154 1.098974 0.000000 
0.323730 1.070602 0.000000 
-0.582151 -0.050826 0.000000 
0.265957 0.165877 0.000000 
0.333763 0.119748 0.000000 
0.378371 0.052732 0.000000 
0.400918 -0.021663 0.000000 
0.401084 -0.084651 0.000000 
0.404345 -0.138752 0.000000 
0.432648 -0.189834 0.000000 
0.450030 -0.254275 0.000000 
0.529803 -0.101122 0.000000 
0.491947 -0.149260 0.000000 
0.453243 -0.099376 0.000000 
0.449550 -0.328600 0.000000 
0.498420 -0.055249 0.000000 
0.474171 0.004693 0.000000 
0.457863 0.079266 0.000000 
0.462195 -0.387254 0.000000 
0.478704 -0.433590 0.000000 
0.483460 -0.474556 0.000000 
0.412910 -0.412895 0.000000 
0.398390 -0.451609 0.000000 
0.404290 -0.485896 0.000000 
0.442452 -0.481338 0.000000 
0.436659 -0.446173 0.000000 
-0.727378 0.104194 0.000000 
-0.616071 0.186212 0.000000 
-0.623548 0.111931 0.000000 
-0.605779 0.030923 0.000000 
-0.706340 0.018475 0.000000 
-0.681483 -0.067786 0.000000 
-0.032304 1.897046 0.000000 
-0.128010 1.933196 0.000000 
-0.195732 2.000319 0.000000 
-0.243911 2.054233 0.000000 
-0.287859 2.101637 0.000000 
-0.335518 2.073941 0.000000 
-0.667608 -0.153167 0.000000 
-0.584906 -0.159935 0.000000 
-0.658169 -0.233176 0.000000 
-0.578442 -0.225306 0.000000 
-0.639050 -0.304618 0.000000 
-0.607982 -0.380135 0.000000 
-0.562541 -0.288005 0.000000 
-0.536184 -0.349028 0.000000 
-0.495978 -0.386990 0.000000 
-0.500680 -0.439384 0.000000 
-0.573051 -0.443837 0.000000 
-2.690892 1.670340 0.000000 
-2.684799 1.584328 0.000000 
-2.602920 1.583066 0.000000 
-2.574381 1.668059 0.000000 
-2.518122 1.602933 0.000000 
-2.424460 1.626831 0.000000 
-2.320006 1.617900 0.000000 
-2.229986 1.594282 0.000000 
-2.146342 1.553042 0.000000 
-1.455055 -0.108567 0.000000 
-1.387692 -0.028243 0.000000 
-1.339496 0.025085 0.000000 
-1.304977 0.053645 0.000000 
-1.531301 -0.043074 0.000000 
-1.604385 0.001039 0.000000 
-1.592423 0.101719 0.000000 
-1.608296 0.225682 0.000000 
-1.827918 0.424128 0.000000 
0.477873 0.192931 0.000000 
0.477147 0.227830 0.000000 
0.465631 0.262070 0.000000 
-0.587742 1.706279 0.000000 
-0.593403 1.730383 0.000000 
-0.604579 1.743038 0.000000 
-0.619289 1.748725 0.000000 
-0.639577 1.746551 0.000000 
-0.665912 1.748167 0.000000 
-0.697937 1.755154 0.000000 
-0.595692 1.652791 0.000000 
-0.726123 1.769966 0.000000 
-0.757398 1.780536 0.000000 
-0.794522 1.777961 0.000000 
-0.841416 1.775383 0.000000 
-0.894922 1.776744 0.000000 
-0.956071 1.785159 0.000000 
-1.020951 1.804081 0.000000 
-1.077937 1.831716 0.000000 
-1.120258 1.860444 0.000000 
-1.171769 1.836183 0.000000 
0.332207 0.389575 0.000000 
0.333662 0.347839 0.000000 
0.321472 0.418191 0.000000 
0.302407 0.445004 0.000000 
0.214022 0.459666 0.000000 
0.194081 0.520690 0.000000 
0.186716 0.576203 0.000000 
0.189303 0.628975 0.000000 
0.360023 0.308158 0.000000 
0.405131 0.283024 0.000000 
0.201671 0.678221 0.000000 
0.218038 0.728482 0.000000 
0.236652 0.777416 0.000000 
0.256885 0.819350 0.000000 
0.278373 0.847844 0.000000 
0.284019 0.881242 0.000000 
0.276718 0.927989 0.000000 
0.278735 0.984802 0.000000 
0.296322 1.035070 0.000000 
-1.507867 1.787941 0.000000 
-1.548116 1.763299 0.000000 
-1.598023 1.735919 0.000000 
-1.467251 1.802715 0.000000 
-1.422160 1.809998 0.000000 
-1.373311 1.816715 0.000000 
-1.322903 1.824491 0.000000 
-1.275577 1.833737 0.000000 
-1.225048 1.832338 0.000000 
-1.662214 1.712250 0.000000 
-1.732600 1.692310 0.000000 
-1.794687 1.677935 0.000000 
-1.841773 1.648748 0.000000 
-2.078405 0.716020 0.000000 
-2.079214 0.794610 0.000000 
-2.097651 0.638420 0.000000 
-2.129318 0.566681 0.000000 
-2.096743 0.875172 0.000000 
-2.169699 0.511338 0.000000 
-1.991686 0.438338 0.000000 
-1.642187 0.363894 0.000000 
-1.989898 0.271113 0.000000 
-2.064526 0.199300 0.000000 
-1.914688 0.344648 0.000000 
-2.037969 1.127724 0.000000 
-2.021377 1.012039 0.000000 
-2.055796 1.256886 0.000000 
-2.102728 1.359539 0.000000 
-2.047875 1.501841 0.000000 
0.428030 0.248572 0.000000 
0.375625 0.227336 0.000000 
0.313454 0.240437 0.000000 
0.290352 0.386472 0.000000 
0.238487 1.097389 0.000000 
0.440631 0.210465 0.000000 
0.396678 0.170688 0.000000 
0.460488 0.144767 0.000000 
0.523747 1.320879 0.000000 
-2.262588 0.284134 0.000000 
-2.220468 0.340161 0.000000 
-2.218579 0.230623 0.000000 
-2.146376 0.282473 0.000000 
-2.206503 0.165552 0.000000 
0.473879 1.282267 0.000000 
0.446488 1.229936 0.000000 
0.440978 1.185917 0.000000 
0.409581 1.178062 0.000000 
0.629179 2.006957 0.000000 
0.593839 1.974484 0.000000 
0.550362 1.930280 0.000000 
0.483841 1.889857 0.000000 
0.202470 1.031025 0.000000 
0.241245 0.883249 0.000000 
0.205152 0.858449 0.000000 
0.175878 0.810308 0.000000 
0.153326 0.751802 0.000000 
0.132079 0.691352 0.000000 
0.113278 0.626896 0.000000 
0.106000 0.558573 0.000000 
0.109640 0.489376 0.000000 
0.121648 0.418698 0.000000 
0.032483 0.329084 0.000000 
0.246820 0.411763 0.000000 
0.099619 0.277450 0.000000 
0.373127 1.163180 0.000000 
-0.307911 2.026319 0.000000 
-0.360136 2.007850 0.000000 
-0.343252 1.953505 0.000000 
-0.270247 1.961649 0.000000 
0.168337 0.273968 0.000000 
0.242346 0.263631 0.000000 
0.270369 0.332667 0.000000 
0.505525 1.388641 0.000000 
-0.689828 0.215896 0.000000 
-0.729540 0.273300 0.000000 
-0.746154 0.347772 0.000000 
-0.657668 0.364336 0.000000 
-0.661195 0.280050 0.000000 
-0.924642 0.517012 0.000000 
-1.137284 1.780375 0.000000 
-1.072920 1.735781 0.000000 
-1.248127 1.792672 0.000000 
-1.304069 1.776350 0.000000 
-1.360197 1.768690 0.000000 
-1.411221 1.764550 0.000000 
-1.453165 1.761320 0.000000 
-1.486003 1.743858 0.000000 
-1.510814 1.700389 0.000000 
-1.558800 1.655720 0.000000 
-0.995058 1.709028 0.000000 
-0.919611 1.698552 0.000000 
-0.852227 1.705484 0.000000 
-0.796966 1.722003 0.000000 
-0.752732 1.741171 0.000000 
-1.635591 1.628387 0.000000 
-1.992480 0.903089 0.000000 
-1.965104 0.793310 0.000000 
-1.974377 0.689977 0.000000 
-2.014368 0.596355 0.000000 
-2.065453 0.513169 0.000000 
-2.071492 0.360102 0.000000 
-2.131272 0.443639 0.000000 
-1.712039 1.615064 0.000000 
-1.781280 1.615015 0.000000 
-1.884796 1.584958 0.000000 
0.516332 1.804621 0.000000 
0.538779 1.733492 0.000000 
0.517174 1.463026 0.000000 
0.552532 1.524962 0.000000 
0.576896 1.566889 0.000000 
0.583356 1.603915 0.000000 
0.576083 1.640919 0.000000 
0.562288 1.683280 0.000000 