# vtk DataFile Version 3.0 
vtk output 
ASCII 
DATASET UNSTRUCTURED_GRID 
POINTS 899 float 
-3.648847 2.250755 0.000000 
-3.619410 2.210203 0.000000 
-3.578536 2.174608 0.000000 
-3.540028 2.138957 0.000000 
-3.511690 2.106762 0.000000 
-3.481362 2.076903 0.000000 
-3.451569 2.036230 0.000000 
0.772356 2.153269 0.000000 
0.774615 2.127148 0.000000 
0.769962 2.098393 0.000000 
-3.399514 2.005954 0.000000 
0.413960 -0.638888 0.000000 
0.455573 -0.634585 0.000000 
-1.762619 -0.538784 0.000000 
-1.783389 -0.503387 0.000000 
-1.714437 -0.474598 0.000000 
0.732567 2.147593 0.000000 
0.698438 2.133757 0.000000 
0.491831 -0.620383 0.000000 
0.519501 -0.589977 0.000000 
0.530556 -0.549531 0.000000 
0.532354 -0.503727 0.000000 
0.531774 -0.453220 0.000000 
-3.460923 1.944221 0.000000 
0.663989 2.111811 0.000000 
0.631675 2.084416 0.000000 
0.601833 2.060360 0.000000 
0.569607 2.037103 0.000000 
0.534059 2.015025 0.000000 
0.492599 1.993886 0.000000 
0.444403 1.975221 0.000000 
0.762807 2.057419 0.000000 
-1.708694 -0.440216 0.000000 
-1.726386 -0.399952 0.000000 
-1.761257 -0.375931 0.000000 
-1.812853 -0.368083 0.000000 
-0.690422 -0.620418 0.000000 
-0.624256 -0.638346 0.000000 
-0.561079 -0.646528 0.000000 
-0.500739 -0.647983 0.000000 
-0.445387 -0.648045 0.000000 
0.532260 -0.394136 0.000000 
0.536647 -0.324803 0.000000 
-1.881389 -0.355582 0.000000 
-0.389303 -0.645771 0.000000 
-0.340338 -0.630486 0.000000 
-0.344339 -0.576351 0.000000 
-0.358558 -0.523811 0.000000 
-0.381750 -0.482900 0.000000 
-0.406193 -0.448725 0.000000 
-0.417316 -0.417227 0.000000 
-0.428320 -0.382970 0.000000 
-0.436973 -0.338706 0.000000 
-0.444212 -0.283163 0.000000 
-0.452662 -0.224305 0.000000 
-0.468602 -0.167405 0.000000 
0.553166 -0.260088 0.000000 
0.573193 -0.202417 0.000000 
0.574450 -0.150677 0.000000 
0.561087 -0.100357 0.000000 
0.550432 -0.045034 0.000000 
0.748903 2.004101 0.000000 
0.730940 1.947609 0.000000 
0.715868 1.901450 0.000000 
0.699446 1.865322 0.000000 
0.684888 1.824332 0.000000 
0.675900 1.778128 0.000000 
0.669871 1.728568 0.000000 
0.664455 1.680711 0.000000 
0.668163 1.634291 0.000000 
0.672091 1.584458 0.000000 
0.674558 1.536434 0.000000 
0.673045 1.486355 0.000000 
0.386491 1.965540 0.000000 
0.664855 1.427616 0.000000 
0.652298 1.369538 0.000000 
0.638456 1.315889 0.000000 
0.623121 1.266378 0.000000 
0.616008 1.223351 0.000000 
0.600787 1.188409 0.000000 
0.571289 1.158960 0.000000 
0.539016 1.127799 0.000000 
0.513857 1.098900 0.000000 
0.493343 1.072665 0.000000 
0.469109 1.054852 0.000000 
0.444920 1.038408 0.000000 
0.415324 1.017442 0.000000 
0.383540 0.992690 0.000000 
0.356179 0.963357 0.000000 
0.343879 0.924458 0.000000 
0.337476 0.878937 0.000000 
0.332404 0.833651 0.000000 
0.328512 0.793961 0.000000 
0.319594 0.757882 0.000000 
0.304149 0.724471 0.000000 
0.290502 0.684080 0.000000 
0.275896 0.636217 0.000000 
0.261905 0.594248 0.000000 
0.250150 0.560653 0.000000 
0.250896 0.522848 0.000000 
0.259587 0.480245 0.000000 
0.284617 0.437472 0.000000 
0.315237 0.407810 0.000000 
0.340022 0.388374 0.000000 
0.354380 0.362525 0.000000 
0.368685 0.335382 0.000000 
0.385568 0.308986 0.000000 
0.415372 0.284189 0.000000 
0.447119 0.252476 0.000000 
0.477633 0.224560 0.000000 
0.503078 0.196623 0.000000 
0.518876 0.158569 0.000000 
0.527127 0.122601 0.000000 
0.534187 0.078055 0.000000 
0.543185 0.017275 0.000000 
0.322519 1.954485 0.000000 
0.263849 1.941368 0.000000 
0.208223 1.935948 0.000000 
0.150441 1.932119 0.000000 
-0.687392 -0.547351 0.000000 
-3.327058 1.979722 0.000000 
-3.276080 1.933301 0.000000 
-3.224941 1.899714 0.000000 
-3.181728 1.870556 0.000000 
-3.135074 1.833626 0.000000 
-3.078123 1.809333 0.000000 
-1.944260 -0.310704 0.000000 
0.083204 1.937276 0.000000 
0.005786 1.931923 0.000000 
-0.071812 1.941161 0.000000 
-0.135705 1.970703 0.000000 
-0.182391 2.012308 0.000000 
-1.999041 -0.239735 0.000000 
-1.843230 -0.514244 0.000000 
-0.491126 -0.103446 0.000000 
-0.512312 -0.030203 0.000000 
-0.526535 0.032630 0.000000 
-0.527935 0.094752 0.000000 
-0.524207 0.161921 0.000000 
-0.505864 0.219053 0.000000 
-0.468875 0.268265 0.000000 
-0.410369 0.297510 0.000000 
-0.354013 0.318627 0.000000 
-0.301050 0.328573 0.000000 
-0.255730 0.329346 0.000000 
-0.695595 -0.469056 0.000000 
-0.726457 -0.392174 0.000000 
-0.747352 -0.322719 0.000000 
-3.396487 1.922587 0.000000 
-3.344056 1.843199 0.000000 
-3.294256 1.799798 0.000000 
-3.248246 1.761474 0.000000 
-3.196818 1.722120 0.000000 
-3.159669 1.670810 0.000000 
-3.113281 1.624105 0.000000 
-3.056061 1.604542 0.000000 
-2.996684 1.581917 0.000000 
-2.933161 1.552301 0.000000 
-2.879064 1.516158 0.000000 
-2.813006 1.491373 0.000000 
-2.751664 1.468323 0.000000 
-2.686782 1.439000 0.000000 
-1.922020 -0.511437 0.000000 
-1.999705 -0.512936 0.000000 
-2.060018 -0.491332 0.000000 
-2.032615 -0.156345 0.000000 
-2.048550 -0.070623 0.000000 
-2.029059 -0.004730 0.000000 
-2.105228 -0.434274 0.000000 
-2.154373 -0.366679 0.000000 
-2.203584 -0.312056 0.000000 
-2.237020 -0.250620 0.000000 
-2.250593 -0.185328 0.000000 
-2.270119 -0.113544 0.000000 
-2.297898 -0.043233 0.000000 
-2.327118 0.018347 0.000000 
-2.346747 0.072317 0.000000 
-2.362840 0.125426 0.000000 
-2.374561 0.176471 0.000000 
-2.373128 0.228446 0.000000 
-2.334174 0.295036 0.000000 
-2.331842 0.335655 0.000000 
-2.284565 0.344413 0.000000 
-0.236368 2.061844 0.000000 
-0.299146 2.105670 0.000000 
-0.346614 2.125596 0.000000 
-0.382877 2.089092 0.000000 
-0.412447 2.060043 0.000000 
-0.433989 2.019755 0.000000 
-0.446472 1.976789 0.000000 
-0.451628 1.937471 0.000000 
-0.451047 1.899008 0.000000 
-0.449242 1.863005 0.000000 
-0.453345 1.831115 0.000000 
-0.460251 1.803422 0.000000 
-0.470304 1.774637 0.000000 
-0.475290 1.745147 0.000000 
-0.478341 1.715361 0.000000 
-0.479442 1.678625 0.000000 
-2.609147 1.425210 0.000000 
-2.517189 1.419712 0.000000 
-2.434013 1.420049 0.000000 
-2.352624 1.410017 0.000000 
-2.274410 1.390646 0.000000 
-2.204499 1.355998 0.000000 
-2.180326 1.287115 0.000000 
-2.178559 1.198579 0.000000 
-2.168273 1.108550 0.000000 
-2.159086 1.010486 0.000000 
-2.144575 0.921327 0.000000 
-2.163040 0.846110 0.000000 
-2.183612 0.772018 0.000000 
-2.172907 0.707461 0.000000 
-2.161614 0.644706 0.000000 
-2.169833 0.584594 0.000000 
-2.188987 0.522840 0.000000 
-2.218663 0.471595 0.000000 
-2.229021 0.415721 0.000000 
-2.997130 1.792536 0.000000 
-3.021908 1.694398 0.000000 
-2.902046 1.761028 0.000000 
-0.770600 -0.240125 0.000000 
-0.790096 -0.148466 0.000000 
-0.811857 -0.067758 0.000000 
-0.835807 0.010806 0.000000 
-0.859157 0.080933 0.000000 
-0.881226 0.140985 0.000000 
-0.903169 0.200335 0.000000 
-0.928196 0.264380 0.000000 
-2.785442 1.728475 0.000000 
-2.944278 1.667733 0.000000 
-2.855014 1.630587 0.000000 
-2.796189 1.570507 0.000000 
-2.651235 1.713729 0.000000 
-2.517962 1.703382 0.000000 
-2.394240 1.694219 0.000000 
-2.275192 1.686223 0.000000 
-2.180847 1.661662 0.000000 
-2.099904 1.635182 0.000000 
-2.018420 1.603942 0.000000 
-1.945469 1.608240 0.000000 
-1.885190 1.641580 0.000000 
-1.829736 1.662148 0.000000 
-1.760875 1.687380 0.000000 
-1.680504 1.715804 0.000000 
-1.617798 1.734121 0.000000 
-1.570169 1.748645 0.000000 
-1.527149 1.762835 0.000000 
-1.482581 1.774964 0.000000 
-1.433927 1.781504 0.000000 
-1.386311 1.789419 0.000000 
-1.337319 1.798150 0.000000 
-1.286363 1.805229 0.000000 
-1.235962 1.805947 0.000000 
-1.188452 1.810760 0.000000 
-1.140860 1.820211 0.000000 
-1.091558 1.819520 0.000000 
-1.038962 1.808501 0.000000 
-0.982519 1.789503 0.000000 
-0.922315 1.772761 0.000000 
-0.869867 1.762437 0.000000 
-0.827747 1.755947 0.000000 
-0.785371 1.751035 0.000000 
-0.748025 1.741298 0.000000 
-0.712781 1.731031 0.000000 
-0.681690 1.717099 0.000000 
-0.657198 1.705965 0.000000 
-0.633895 1.699302 0.000000 
-0.612002 1.694846 0.000000 
-0.594184 1.687633 0.000000 
-0.577381 1.678183 0.000000 
-0.560109 1.662900 0.000000 
-0.540091 1.630446 0.000000 
-1.243914 -0.008400 0.000000 
-1.232782 0.005317 0.000000 
-1.257376 -0.022754 0.000000 
-1.224378 0.024016 0.000000 
-1.271472 -0.042099 0.000000 
-1.215702 0.046013 0.000000 
-1.204660 0.072070 0.000000 
-1.290143 -0.069841 0.000000 
-1.314447 -0.114881 0.000000 
-1.190204 0.102376 0.000000 
-1.318041 -0.168235 0.000000 
-1.171655 0.136532 0.000000 
-1.149359 0.172847 0.000000 
-1.123094 0.211095 0.000000 
-1.284246 -0.218215 0.000000 
-1.239750 -0.268941 0.000000 
-1.083297 0.255087 0.000000 
-1.028190 0.286758 0.000000 
-1.181630 -0.311298 0.000000 
-1.112789 -0.342725 0.000000 
-1.040643 -0.354895 0.000000 
-0.978118 -0.357982 0.000000 
-0.927392 -0.371008 0.000000 
-0.889718 -0.410142 0.000000 
-0.873564 -0.466692 0.000000 
-0.920771 -0.498886 0.000000 
-0.935346 -0.431618 0.000000 
-0.991249 -0.508462 0.000000 
-1.088918 -0.505734 0.000000 
-1.067426 -0.426082 0.000000 
-1.189474 -0.498171 0.000000 
-1.147229 -0.413415 0.000000 
-1.266509 -0.474881 0.000000 
-1.219913 -0.387238 0.000000 
-1.335307 -0.439054 0.000000 
-1.284456 -0.349238 0.000000 
-1.402357 -0.395150 0.000000 
-1.341444 -0.301438 0.000000 
-1.466758 -0.342475 0.000000 
-1.539152 -0.281676 0.000000 
-1.393011 -0.243507 0.000000 
-1.612839 -0.211404 0.000000 
-1.665320 -0.153826 0.000000 
-1.691220 -0.088999 0.000000 
-1.704696 -0.003506 0.000000 
-1.850073 0.163364 0.000000 
-1.911042 0.107539 0.000000 
-1.969645 0.050702 0.000000 
-1.726970 0.102905 0.000000 
-0.222881 0.310735 0.000000 
-0.195707 0.283152 0.000000 
-0.164205 0.246204 0.000000 
-0.127520 0.213507 0.000000 
-0.095686 0.184015 0.000000 
-0.059027 0.155537 0.000000 
-0.018954 0.125553 0.000000 
0.030296 0.094283 0.000000 
0.086536 0.073757 0.000000 
0.141893 0.055025 0.000000 
0.202102 0.025746 0.000000 
0.263408 -0.014171 0.000000 
0.311661 -0.064158 0.000000 
0.333954 -0.123781 0.000000 
0.338621 -0.184231 0.000000 
0.341530 -0.238169 0.000000 
0.353165 -0.288358 0.000000 
0.365710 -0.346781 0.000000 
0.363543 -0.416309 0.000000 
[...]
POINT_DATA 899 
VECTORS X_GC float 
-3.648847 2.250755 0.000000 
-3.619410 2.210203 0.000000 
-3.578536 2.174608 0.000000 
-3.540028 2.138957 0.000000 
-3.511690 2.106762 0.000000 
-3.481362 2.076903 0.000000 
-3.451569 2.036230 0.000000 
0.772356 2.153269 0.000000 
0.774615 2.127148 0.000000 
0.769962 2.098393 0.000000 
-3.399514 2.005954 0.000000 
0.413960 -0.638888 0.000000 
0.455573 -0.634585 0.000000 
-1.762619 -0.538784 0.000000 
-1.783389 -0.503387 0.000000 
-1.714437 -0.474598 0.000000 
0.732567 2.147593 0.000000 
0.698438 2.133757 0.000000 
0.491831 -0.620383 0.000000 
0.519501 -0.589977 0.000000 
0.530556 -0.549531 0.000000 
0.532354 -0.503727 0.000000 
0.531774 -0.453220 0.000000 
-3.460923 1.944221 0.000000 
0.663989 2.111811 0.000000 
0.631675 2.084416 0.000000 
0.601833 2.060360 0.000000 
0.569607 2.037103 0.000000 
0.534059 2.015025 0.000000 
0.492599 1.993886 0.000000 
0.444403 1.975221 0.000000 
0.762807 2.057419 0.000000 
-1.708694 -0.440216 0.000000 
-1.726386 -0.399952 0.000000 
-1.761257 -0.375931 0.000000 
-1.812853 -0.368083 0.000000 
-0.690422 -0.620418 0.000000 
-0.624256 -0.638346 0.000000 
-0.561079 -0.646528 0.000000 
-0.500739 -0.647983 0.000000 
-0.445387 -0.648045 0.000000 
0.532260 -0.394136 0.000000 
0.536647 -0.324803 0.000000 
-1.881389 -0.355582 0.000000 
-0.389303 -0.645771 0.000000 
-0.340338 -0.630486 0.000000 
-0.344339 -0.576351 0.000000 
-0.358558 -0.523811 0.000000 
-0.381750 -0.482900 0.000000 
-0.406193 -0.448725 0.000000 
-0.417316 -0.417227 0.000000 
-0.428320 -0.382970 0.000000 
-0.436973 -0.338706 0.000000 
-0.444212 -0.283163 0.000000 
-0.452662 -0.224305 0.000000 
-0.468602 -0.167405 0.000000 
0.553166 -0.260088 0.000000 
0.573193 -0.202417 0.000000 
0.574450 -0.150677 0.000000 
0.561087 -0.100357 0.000000 
0.550432 -0.045034 0.000000 
0.748903 2.004101 0.000000 
0.730940 1.947609 0.000000 
0.715868 1.901450 0.000000 
0.699446 1.865322 0.000000 
0.684888 1.824332 0.000000 
0.675900 1.778128 0.000000 
0.669871 1.728568 0.000000 
0.664455 1.680711 0.000000 
0.668163 1.634291 0.000000 
0.672091 1.584458 0.000000 
0.674558 1.536434 0.000000 
0.673045 1.486355 0.000000 
0.386491 1.965540 0.000000 
0.664855 1.427616 0.000000 
0.652298 1.369538 0.000000 
0.638456 1.315889 0.000000 
0.623121 1.266378 0.000000 
0.616008 1.223351 0.000000 
0.600787 1.188409 0.000000 
0.571289 1.158960 0.000000 
0.539016 1.127799 0.000000 
0.513857 1.098900 0.000000 
0.493343 1.072665 0.000000 
0.469109 1.054852 0.000000 
0.444920 1.038408 0.000000 
0.415324 1.017442 0.000000 
0.383540 0.992690 0.000000 
0.356179 0.963357 0.000000 
0.343879 0.924458 0.000000 
0.337476 0.878937 0.000000 
0.332404 0.833651 0.000000 
0.328512 0.793961 0.000000 
0.319594 0.757882 0.000000 
0.304149 0.724471 0.000000 
0.290502 0.684080 0.000000 
0.275896 0.636217 0.000000 
0.261905 0.594248 0.000000 
0.250150 0.560653 0.000000 
0.250896 0.522848 0.000000 
0.259587 0.480245 0.000000 
0.284617 0.437472 0.000000 
0.315237 0.407810 0.000000 
0.340022 0.388374 0.000000 
0.354380 0.362525 0.000000 
0.368685 0.335382 0.000000 
0.385568 0.308986 0.000000 
0.415372 0.284189 0.000000 
0.447119 0.252476 0.000000 
0.477633 0.224560 0.000000 
0.503078 0.196623 0.000000 
0.518876 0.158569 0.000000 
0.527127 0.122601 0.000000 
0.534187 0.078055 0.000000 
0.543185 0.017275 0.000000 
0.322519 1.954485 0.000000 
0.263849 1.941368 0.000000 
0.208223 1.935948 0.000000 
0.150441 1.932119 0.000000 
-0.687392 -0.547351 0.000000 
-3.327058 1.979722 0.000000 
-3.276080 1.933301 0.000000 
-3.224941 1.899714 0.000000 
-3.181728 1.870556 0.000000 
-3.135074 1.833626 0.000000 
-3.078123 1.809333 0.000000 
-1.944260 -0.310704 0.000000 
0.083204 1.937276 0.000000 
0.005786 1.931923 0.000000 
-0.071812 1.941161 0.000000 
-0.135705 1.970703 0.000000 
-0.182391 2.012308 0.000000 
-1.999041 -0.239735 0.000000 
-1.843230 -0.514244 0.000000 
-0.491126 -0.103446 0.000000 
-0.512312 -0.030203 0.000000 
-0.526535 0.032630 0.000000 
-0.527935 0.094752 0.000000 
-0.524207 0.161921 0.000000 
-0.505864 0.219053 0.000000 
-0.468875 0.268265 0.000000 
-0.410369 0.297510 0.000000 
-0.354013 0.318627 0.000000 
-0.301050 0.328573 0.000000 
-0.255730 0.329346 0.000000 
-0.695595 -0.469056 0.000000 
-0.726457 -0.392174 0.000000 
-0.747352 -0.322719 0.000000 
-3.396487 1.922587 0.000000 
-3.344056 1.843199 0.000000 
-3.294256 1.799798 0.000000 
-3.248246 1.761474 0.000000 
-3.196818 1.722120 0.000000 
-3.159669 1.670810 0.000000 
-3.113281 1.624105 0.000000 
-3.056061 1.604542 0.000000 
-2.996684 1.581917 0.000000 
-2.933161 1.552301 0.000000 
-2.879064 1.516158 0.000000 
-2.813006 1.491373 0.000000 
-2.751664 1.468323 0.000000 
-2.686782 1.439000 0.000000 
-1.922020 -0.511437 0.000000 
-1.999705 -0.512936 0.000000 
-2.060018 -0.491332 0.000000 
-2.032615 -0.156345 0.000000 
-2.048550 -0.070623 0.000000 
-2.029059 -0.004730 0.000000 
-2.105228 -0.434274 0.000000 
-2.154373 -0.366679 0.000000 
-2.203584 -0.312056 0.000000 
-2.237020 -0.250620 0.000000 
-2.250593 -0.185328 0.000000 
-2.270119 -0.113544 0.000000 
-2.297898 -0.043233 0.000000 
-2.327118 0.018347 0.000000 
-2.346747 0.072317 0.000000 
-2.362840 0.125426 0.000000 
-2.374561 0.176471 0.000000 
-2.373128 0.228446 0.000000 
-2.334174 0.295036 0.000000 
-2.331842 0.335655 0.000000 
-2.284565 0.344413 0.000000 
-0.236368 2.061844 0.000000 
-0.299146 2.105670 0.000000 
-0.346614 2.125596 0.000000 
-0.382877 2.089092 0.000000 
-0.412447 2.060043 0.000000 
-0.433989 2.019755 0.000000 
-0.446472 1.976789 0.000000 
-0.451628 1.937471 0.000000 
-0.451047 1.899008 0.000000 
-0.449242 1.863005 0.000000 
-0.453345 1.831115 0.000000 
-0.460251 1.803422 0.000000 
-0.470304 1.774637 0.000000 
-0.475290 1.745147 0.000000 
-0.478341 1.715361 0.000000 
-0.479442 1.678625 0.000000 
-2.609147 1.425210 0.000000 
-2.517189 1.419712 0.000000 
-2.434013 1.420049 0.000000 
-2.352624 1.410017 0.000000 
-2.274410 1.390646 0.000000 
-2.204499 1.355998 0.000000 
-2.180326 1.287115 0.000000 
-2.178559 1.198579 0.000000 
-2.168273 1.108550 0.000000 
-2.159086 1.010486 0.000000 
-2.144575 0.921327 0.000000 
-2.163040 0.846110 0.000000 
-2.183612 0.772018 0.000000 
-2.172907 0.707461 0.000000 
-2.161614 0.644706 0.000000 
-2.169833 0.584594 0.000000 
-2.188987 0.522840 0.000000 
-2.218663 0.471595 0.000000 
-2.229021 0.415721 0.000000 
-2.997130 1.792536 0.000000 
-3.021908 1.694398 0.000000 
-2.902046 1.761028 0.000000 
-0.770600 -0.240125 0.000000 
-0.790096 -0.148466 0.000000 
-0.811857 -0.067758 0.000000 
-0.835807 0.010806 0.000000 
-0.859157 0.080933 0.000000 
-0.881226 0.140985 0.000000 
-0.903169 0.200335 0.000000 
-0.928196 0.264380 0.000000 
-2.785442 1.728475 0.000000 
-2.944278 1.667733 0.000000 
-2.855014 1.630587 0.000000 
-2.796189 1.570507 0.000000 
-2.651235 1.713729 0.000000 
-2.517962 1.703382 0.000000 
-2.394240 1.694219 0.000000 
-2.275192 1.686223 0.000000 
-2.180847 1.661662 0.000000 
-2.099904 1.635182 0.000000 
-2.018420 1.603942 0.000000 
-1.945469 1.608240 0.000000 
-1.885190 1.641580 0.000000 
-1.829736 1.662148 0.000000 
-1.760875 1.687380 0.000000 
-1.680504 1.715804 0.000000 
-1.617798 1.734121 0.000000 
-1.570169 1.748645 0.000000 
-1.527149 1.762835 0.000000 
-1.482581 1.774964 0.000000 
-1.433927 1.781504 0.000000 
-1.386311 1.789419 0.000000 
-1.337319 1.798150 0.000000 
-1.286363 1.805229 0.000000 
-1.235962 1.805947 0.000000 
-1.188452 1.810760 0.000000 
-1.140860 1.820211 0.000000 
-1.091558 1.819520 0.000000 
-1.038962 1.808501 0.000000 
-0.982519 1.789503 0.000000 
-0.922315 1.772761 0.000000 
-0.869867 1.762437 0.000000 
-0.827747 1.755947 0.000000 
-0.785371 1.751035 0.000000 
-0.748025 1.741298 0.000000 
-0.712781 1.731031 0.000000 
-0.681690 1.717099 0.000000 
-0.657198 1.705965 0.000000 
-0.633895 1.699302 0.000000 
-0.612002 1.694846 0.000000 
-0.594184 1.687633 0.000000 
-0.577381 1.678183 0.000000 
-0.560109 1.662900 0.000000 
-0.540091 1.630446 0.000000 
-1.243914 -0.008400 0.000000 
-1.232782 0.005317 0.000000 
-1.257376 -0.022754 0.000000 
-1.224378 0.024016 0.000000 
-1.271472 -0.042099 0.000000 
-1.215702 0.046013 0.000000 
-1.204660 0.072070 0.000000 
-1.290143 -0.069841 0.000000 
-1.314447 -0.114881 0.000000 
-1.190204 0.102376 0.000000 
-1.318041 -0.168235 0.000000 
-1.171655 0.136532 0.000000 
-1.149359 0.172847 0.000000 
-1.123094 0.211095 0.000000 
-1.284246 -0.218215 0.000000 
-1.239750 -0.268941 0.000000 
-1.083297 0.255087 0.000000 
-1.028190 0.286758 0.000000 
-1.181630 -0.311298 0.000000 
-1.112789 -0.342725 0.000000 
-1.040643 -0.354895 0.000000 
-0.978118 -0.357982 0.000000 
-0.927392 -0.371008 0.000000 
-0.889718 -0.410142 0.000000 
-0.873564 -0.466692 0.000000 
-0.920771 -0.498886 0.000000 
-0.935346 -0.431618 0.000000 
-0.991249 -0.508462 0.000000 
-1.088918 -0.505734 0.000000 
-1.067426 -0.426082 0.000000 
-1.189474 -0.498171 0.000000 
-1.147229 -0.413415 0.000000 
-1.266509 -0.474881 0.000000 
-1.219913 -0.387238 0.000000 
-1.335307 -0.439054 0.000000 
-1.284456 -0.349238 0.000000 
-1.402357 -0.395150 0.000000 
-1.341444 -0.301438 0.000000 
-1.466758 -0.342475 0.000000 
-1.539152 -0.281676 0.000000 
-1.393011 -0.243507 0.000000 
-1.612839 -0.211404 0.000000 
-1.665320 -0.153826 0.000000 
-1.691220 -0.088999 0.000000 
-1.704696 -0.003506 0.000000 
-1.850073 0.163364 0.000000 
-1.911042 0.107539 0.000000 
-1.969645 0.050702 0.000000 
-1.726970 0.102905 0.000000 
-0.222881 0.310735 0.000000 
-0.195707 0.283152 0.000000 
-0.164205 0.246204 0.000000 
-0.127520 0.213507 0.000000 
-0.095686 0.184015 0.000000 
-0.059027 0.155537 0.000000 
-0.018954 0.125553 0.000000 
0.030296 0.094283 0.000000 
0.086536 0.073757 0.000000 
0.141893 0.055025 0.000000 
0.202102 0.025746 0.000000 
0.263408 -0.014171 0.000000 
0.311661 -0.064158 0.000000 
0.333954 -0.123781 0.000000 
0.338621 -0.184231 0.000000 
0.341530 -0.238169 0.000000 
0.353165 -0.288358 0.000000 
0.365710 -0.346781 0.000000 
0.363543 -0.416309 0.000000 
0.357353 -0.478424 0.000000 
0.351188 -0.529166 0.000000 
0.363842 -0.576195 0.000000 
-1.737069 -0.442846 0.000000 
-0.199590 0.363352 0.000000 
-0.156305 0.333436 0.000000 
-0.462327 1.599392 0.000000 
0.741313 2.121966 0.000000 
0.482415 -0.586965 0.000000 
0.446104 -0.594861 0.000000 
0.403556 -0.600516 0.000000 
-0.104001 0.305371 0.000000 
-0.514998 1.531446 0.000000 
-0.059937 0.270966 0.000000 
0.738519 2.096701 0.000000 
0.714572 2.109002 0.000000 
-0.249752 0.390176 0.000000 
-0.036232 0.227168 0.000000 
0.000772 0.199336 0.000000 
0.035161 0.173691 0.000000 
-1.776537 -0.442287 0.000000 
-1.836238 -0.438103 0.000000 
-0.309416 0.404276 0.000000 
-0.378944 0.402012 0.000000 
-2.292732 0.281600 0.000000 
-2.315166 0.231609 0.000000 
-2.314418 0.184052 0.000000 
-2.293418 0.137666 0.000000 
-2.279687 0.087787 0.000000 
-2.253462 0.040521 0.000000 
0.075120 0.145948 0.000000 
0.131113 0.133341 0.000000 
-0.977004 0.335324 0.000000 
-0.860050 0.325159 0.000000 
-1.912142 -0.430046 0.000000 
-1.989966 -0.438826 0.000000 
-2.023752 -0.371285 0.000000 
-2.082175 -0.300024 0.000000 
0.723889 2.065188 0.000000 
0.691466 2.084031 0.000000 
0.665980 2.051384 0.000000 
0.704783 2.024116 0.000000 
0.637970 2.013326 0.000000 
0.681732 1.976908 0.000000 
0.670916 1.930733 0.000000 
0.602858 1.981658 0.000000 
0.659584 1.890309 0.000000 
0.560783 1.955288 0.000000 
0.636111 1.854234 0.000000 
0.607495 1.804443 0.000000 
0.595324 1.740963 0.000000 
0.604052 1.676290 0.000000 
0.514160 1.925884 0.000000 
0.453857 1.898439 0.000000 
0.392525 1.896461 0.000000 
0.334098 1.894932 0.000000 
0.278675 1.876178 0.000000 
0.217273 1.858103 0.000000 
0.149449 1.840748 0.000000 
0.614128 1.624014 0.000000 
0.621313 1.576435 0.000000 
0.624262 1.531555 0.000000 
-2.197766 -0.012668 0.000000 
-2.158682 -0.087591 0.000000 
-2.124695 0.046663 0.000000 
-2.150589 -0.253718 0.000000 
-2.141926 -0.176172 0.000000 
-0.393439 -0.592732 0.000000 
-0.412631 -0.548689 0.000000 
-0.436983 -0.508085 0.000000 
-0.445953 -0.464666 0.000000 
-0.458251 -0.431840 0.000000 
-0.479726 -0.397073 0.000000 
-0.496934 -0.348343 0.000000 
-0.509002 -0.293259 0.000000 
-0.517157 -0.238928 0.000000 
-0.545309 -0.187653 0.000000 
-0.442273 -0.590126 0.000000 
-0.496002 -0.580609 0.000000 
-0.557668 -0.582716 0.000000 
-0.618975 -0.567236 0.000000 
-0.334659 2.063783 0.000000 
-0.367985 2.034065 0.000000 
-0.385153 1.997640 0.000000 
-0.396797 1.963772 0.000000 
-0.406285 1.928250 0.000000 
-0.402558 1.889117 0.000000 
-0.406645 1.850674 0.000000 
-0.418378 1.818259 0.000000 
-0.428059 1.789134 0.000000 
-0.435849 1.759586 0.000000 
-0.442335 1.729552 0.000000 
-0.445406 1.696487 0.000000 
-0.444483 1.650770 0.000000 
0.619822 1.485823 0.000000 
-1.077870 0.382388 0.000000 
-1.149036 0.340429 0.000000 
-1.174735 0.265587 0.000000 
-1.192231 0.213863 0.000000 
-1.210811 0.172087 0.000000 
-1.228352 0.132747 0.000000 
-1.238869 0.094767 0.000000 
-1.244643 0.063270 0.000000 
-1.248534 0.038369 0.000000 
-1.252336 0.019081 0.000000 
-1.262323 0.005829 0.000000 
-1.280319 -0.005087 0.000000 
-0.451814 0.379351 0.000000 
-0.526928 0.335830 0.000000 
0.194935 0.116348 0.000000 
0.069048 1.826648 0.000000 
-0.574175 0.265145 0.000000 
-0.593607 0.184042 0.000000 
-1.764101 0.223727 0.000000 
-2.210991 0.342584 0.000000 
-0.825996 0.239882 0.000000 
-0.799223 0.168801 0.000000 
-0.760911 0.102368 0.000000 
0.605964 1.434871 0.000000 
0.587834 1.377511 0.000000 
0.576354 1.317663 0.000000 
0.574971 1.262654 0.000000 
0.580375 1.219630 0.000000 
0.545179 1.197246 0.000000 
0.509957 1.164983 0.000000 
0.484198 1.128581 0.000000 
0.468721 1.097426 0.000000 
0.449386 1.078895 0.000000 
0.422962 1.066230 0.000000 
0.391379 1.047079 0.000000 
0.357154 1.023015 0.000000 
0.323730 0.994643 0.000000 
-0.582151 -0.126785 0.000000 
0.265957 0.089919 0.000000 
0.333763 0.043789 0.000000 
0.378371 -0.023227 0.000000 
0.400918 -0.097621 0.000000 
0.401084 -0.160610 0.000000 
0.404345 -0.214711 0.000000 
0.432648 -0.265793 0.000000 
0.450030 -0.330234 0.000000 
0.529803 -0.177081 0.000000 
0.491947 -0.225218 0.000000 
0.453243 -0.175335 0.000000 
0.449550 -0.404558 0.000000 
0.498420 -0.131208 0.000000 
0.474171 -0.071266 0.000000 
0.457863 0.003307 0.000000 
0.462195 -0.463213 0.000000 
0.478704 -0.509548 0.000000 
0.483460 -0.550514 0.000000 
0.412910 -0.488854 0.000000 
0.398390 -0.527567 0.000000 
0.404290 -0.561855 0.000000 
0.442452 -0.557297 0.000000 
0.436659 -0.522132 0.000000 
-0.727378 0.028235 0.000000 
-0.616071 0.110253 0.000000 
-0.623548 0.035972 0.000000 
-0.605779 -0.045035 0.000000 
-0.706340 -0.057483 0.000000 
-0.681483 -0.143745 0.000000 
-0.032304 1.821087 0.000000 
-0.128010 1.857237 0.000000 
-0.195732 1.924361 0.000000 
-0.243911 1.978275 0.000000 
-0.287859 2.025678 0.000000 
-0.335518 1.997982 0.000000 
-0.667608 -0.229126 0.000000 
-0.584906 -0.235894 0.000000 
-0.658169 -0.309135 0.000000 
-0.578442 -0.301264 0.000000 
-0.639050 -0.380577 0.000000 
-0.607982 -0.456094 0.000000 
-0.562541 -0.363964 0.000000 
-0.536184 -0.424987 0.000000 
-0.495978 -0.462949 0.000000 
-0.500680 -0.515343 0.000000 
-0.573051 -0.519796 0.000000 
-2.690892 1.594381 0.000000 
-2.684799 1.508369 0.000000 
-2.602920 1.507107 0.000000 
-2.574381 1.592100 0.000000 
-2.518122 1.526974 0.000000 
-2.424460 1.550872 0.000000 
-2.320006 1.541941 0.000000 
-2.229986 1.518323 0.000000 
-2.146342 1.477083 0.000000 
-1.455055 -0.184526 0.000000 
-1.387692 -0.104202 0.000000 
-1.339496 -0.050874 0.000000 
-1.304977 -0.022314 0.000000 
-1.531301 -0.119033 0.000000 
-1.604385 -0.074920 0.000000 
-1.592423 0.025760 0.000000 
-1.608296 0.149723 0.000000 
-1.827918 0.348169 0.000000 
0.477873 0.116972 0.000000 
0.477147 0.151871 0.000000 
0.465631 0.186111 0.000000 
-0.587742 1.630320 0.000000 
-0.593403 1.654424 0.000000 
-0.604579 1.667080 0.000000 
-0.619289 1.672766 0.000000 
-0.639577 1.670592 0.000000 
-0.665912 1.672209 0.000000 
-0.697937 1.679195 0.000000 
-0.595692 1.576832 0.000000 
-0.726123 1.694007 0.000000 
-0.757398 1.704577 0.000000 
-0.794522 1.702002 0.000000 
-0.841416 1.699424 0.000000 
-0.894922 1.700785 0.000000 
-0.956071 1.709201 0.000000 
-1.020951 1.728122 0.000000 
-1.077937 1.755757 0.000000 
-1.120258 1.784485 0.000000 
-1.171769 1.760225 0.000000 
0.332207 0.313616 0.000000 
0.333662 0.271880 0.000000 
0.321472 0.342232 0.000000 
0.302407 0.369045 0.000000 
0.214022 0.383707 0.000000 
0.194081 0.444732 0.000000 
0.186716 0.500244 0.000000 
0.189303 0.553017 0.000000 
0.360023 0.232199 0.000000 
0.405131 0.207066 0.000000 
0.201671 0.602262 0.000000 
0.218038 0.652523 0.000000 
0.236652 0.701457 0.000000 
0.256885 0.743391 0.000000 
0.278373 0.771885 0.000000 
0.284019 0.805283 0.000000 
0.276718 0.852030 0.000000 
0.278735 0.908843 0.000000 
0.296322 0.959111 0.000000 
-1.507867 1.711982 0.000000 
-1.548116 1.687340 0.000000 
-1.598023 1.659961 0.000000 
-1.467251 1.726756 0.000000 
-1.422160 1.734040 0.000000 
-1.373311 1.740756 0.000000 
-1.322903 1.748533 0.000000 
-1.275577 1.757778 0.000000 
-1.225048 1.756379 0.000000 
-1.662214 1.636291 0.000000 
-1.732600 1.616352 0.000000 
-1.794687 1.601976 0.000000 
-1.841773 1.572789 0.000000 
-2.078405 0.640062 0.000000 
-2.079214 0.718651 0.000000 
-2.097651 0.562462 0.000000 
-2.129318 0.490723 0.000000 
-2.096743 0.799213 0.000000 
-2.169699 0.435379 0.000000 
-1.991686 0.362379 0.000000 
-1.642187 0.287935 0.000000 
-1.989898 0.195154 0.000000 
-2.064526 0.123342 0.000000 
-1.914688 0.268689 0.000000 
-2.037969 1.051765 0.000000 
-2.021377 0.936081 0.000000 
-2.055796 1.180927 0.000000 
-2.102728 1.283580 0.000000 
-2.047875 1.425882 0.000000 
0.428030 0.172613 0.000000 
0.375625 0.151377 0.000000 
0.313454 0.164478 0.000000 
0.290352 0.310513 0.000000 
0.238487 1.021430 0.000000 
0.440631 0.134506 0.000000 
0.396678 0.094729 0.000000 
0.460488 0.068808 0.000000 
0.523747 1.244920 0.000000 
-2.262588 0.208175 0.000000 
-2.220468 0.264202 0.000000 
-2.218579 0.154664 0.000000 
-2.146376 0.206514 0.000000 
-2.206503 0.089594 0.000000 
0.473879 1.206308 0.000000 
0.446488 1.153977 0.000000 
0.440978 1.109958 0.000000 
0.409581 1.102103 0.000000 
0.629179 1.930998 0.000000 
0.593839 1.898525 0.000000 
0.550362 1.854321 0.000000 
0.483841 1.813898 0.000000 
0.202470 0.955066 0.000000 
0.241245 0.807290 0.000000 
0.205152 0.782490 0.000000 
0.175878 0.734349 0.000000 
0.153326 0.675843 0.000000 
0.132079 0.615393 0.000000 
0.113278 0.550937 0.000000 
0.106000 0.482614 0.000000 
0.109640 0.413418 0.000000 
0.121648 0.342740 0.000000 
0.032483 0.253125 0.000000 
0.246820 0.335804 0.000000 
0.099619 0.201491 0.000000 
0.373127 1.087221 0.000000 
-0.307911 1.950361 0.000000 
-0.360136 1.931891 0.000000 
-0.343252 1.877546 0.000000 
-0.270247 1.885690 0.000000 
0.168337 0.198009 0.000000 
0.242346 0.187672 0.000000 
0.270369 0.256708 0.000000 
0.505525 1.312682 0.000000 
-0.689828 0.139937 0.000000 
-0.729540 0.197341 0.000000 
-0.746154 0.271813 0.000000 
-0.657668 0.288377 0.000000 
-0.661195 0.204091 0.000000 
-0.924642 0.441053 0.000000 
-1.137284 1.704416 0.000000 
-1.072920 1.659822 0.000000 
-1.248127 1.716713 0.000000 
-1.304069 1.700391 0.000000 
-1.360197 1.692731 0.000000 
-1.411221 1.688591 0.000000 
-1.453165 1.685362 0.000000 
-1.486003 1.667900 0.000000 
-1.510814 1.624431 0.000000 
-1.558800 1.579762 0.000000 
-0.995058 1.633069 0.000000 
-0.919611 1.622593 0.000000 
-0.852227 1.629525 0.000000 
-0.796966 1.646044 0.000000 
-0.752732 1.665212 0.000000 
-1.635591 1.552429 0.000000 
-1.992480 0.827130 0.000000 
-1.965104 0.717351 0.000000 
-1.974377 0.614018 0.000000 
-2.014368 0.520396 0.000000 
-2.065453 0.437210 0.000000 
-2.071492 0.284143 0.000000 
-2.131272 0.367680 0.000000 
-1.712039 1.539106 0.000000 
-1.781280 1.539056 0.000000 
-1.884796 1.508999 0.000000 
0.516332 1.728662 0.000000 
0.538779 1.657534 0.000000 
0.517174 1.387067 0.000000 
0.552532 1.449003 0.000000 
0.576896 1.490930 0.000000 
0.583356 1.527956 0.000000 
0.576083 1.564961 0.000000 