# vtk DataFile Version 3.0 
vtk output 
ASCII 
DATASET UNSTRUCTURED_GRID 
POINTS 899 float 
-3.648847 2.235863 0.000000 
-3.619410 2.195311 0.000000 
-3.578536 2.159716 0.000000 
-3.540028 2.124066 0.000000 
-3.511690 2.091870 0.000000 
-3.481362 2.062012 0.000000 
-3.451569 2.021338 0.000000 
0.772356 2.138377 0.000000 
0.774615 2.112256 0.000000 
0.769962 2.083502 0.000000 
-3.399514 1.991062 0.000000 
0.413960 -0.653780 0.000000 
0.455573 -0.649477 0.000000 
-1.762619 -0.553675 0.000000 
-1.783389 -0.518279 0.000000 
-1.714437 -0.489490 0.000000 
0.732567 2.132702 0.000000 
0.698438 2.118865 0.000000 
0.491831 -0.635274 0.000000 
0.519501 -0.604869 0.000000 
0.530556 -0.564422 0.000000 
0.532354 -0.518618 0.000000 
0.531774 -0.468112 0.000000 
-3.460923 1.929330 0.000000 
0.663989 2.096919 0.000000 
0.631675 2.069525 0.000000 
0.601833 2.045469 0.000000 
0.569607 2.022211 0.000000 
0.534059 2.000134 0.000000 
0.492599 1.978994 0.000000 
0.444403 1.960329 0.000000 
0.762807 2.042527 0.000000 
-1.708694 -0.455107 0.000000 
-1.726386 -0.414844 0.000000 
-1.761257 -0.390823 0.000000 
-1.812853 -0.382974 0.000000 
-0.690422 -0.635310 0.000000 
-0.624256 -0.653238 0.000000 
-0.561079 -0.661419 0.000000 
-0.500739 -0.662875 0.000000 
-0.445387 -0.662937 0.000000 
0.532260 -0.409028 0.000000 
0.536647 -0.339695 0.000000 
-1.881389 -0.370474 0.000000 
-0.389303 -0.660663 0.000000 
-0.340338 -0.645377 0.000000 
-0.344339 -0.591242 0.000000 
-0.358558 -0.538703 0.000000 
-0.381750 -0.497791 0.000000 
-0.406193 -0.463616 0.000000 
-0.417316 -0.432119 0.000000 
-0.428320 -0.397862 0.000000 
-0.436973 -0.353597 0.000000 
-0.444212 -0.298054 0.000000 
-0.452662 -0.239196 0.000000 
-0.468602 -0.182297 0.000000 
0.553166 -0.274980 0.000000 
0.573193 -0.217309 0.000000 
0.574450 -0.165568 0.000000 
0.561087 -0.115248 0.000000 
0.550432 -0.059925 0.000000 
0.748903 1.989210 0.000000 
0.730940 1.932717 0.000000 
0.715868 1.886558 0.000000 
0.699446 1.850430 0.000000 
0.684888 1.809440 0.000000 
0.675900 1.763236 0.000000 
0.669871 1.713676 0.000000 
0.664455 1.665819 0.000000 
0.668163 1.619400 0.000000 
0.672091 1.569566 0.000000 
0.674558 1.521543 0.000000 
0.673045 1.471463 0.000000 
0.386491 1.950649 0.000000 
0.664855 1.412725 0.000000 
0.652298 1.354647 0.000000 
0.638456 1.300997 0.000000 
0.623121 1.251487 0.000000 
0.616008 1.208460 0.000000 
0.600787 1.173517 0.000000 
0.571289 1.144069 0.000000 
0.539016 1.112907 0.000000 
0.513857 1.084008 0.000000 
0.493343 1.057773 0.000000 
0.469109 1.039961 0.000000 
0.444920 1.023516 0.000000 
0.415324 1.002550 0.000000 
0.383540 0.977798 0.000000 
0.356179 0.948466 0.000000 
0.343879 0.909566 0.000000 
0.337476 0.864046 0.000000 
0.332404 0.818759 0.000000 
0.328512 0.779070 0.000000 
0.319594 0.742990 0.000000 
0.304149 0.709579 0.000000 
0.290502 0.669188 0.000000 
0.275896 0.621326 0.000000 
0.261905 0.579357 0.000000 
0.250150 0.545761 0.000000 
0.250896 0.507957 0.000000 
0.259587 0.465353 0.000000 
0.284617 0.422580 0.000000 
0.315237 0.392919 0.000000 
0.340022 0.373482 0.000000 
0.354380 0.347633 0.000000 
0.368685 0.320490 0.000000 
0.385568 0.294094 0.000000 
0.415372 0.269297 0.000000 
0.447119 0.237585 0.000000 
0.477633 0.209668 0.000000 
0.503078 0.181732 0.000000 
0.518876 0.143678 0.000000 
0.527127 0.107709 0.000000 
0.534187 0.063164 0.000000 
0.543185 0.002384 0.000000 
0.322519 1.939593 0.000000 
0.263849 1.926476 0.000000 
0.208223 1.921057 0.000000 
0.150441 1.917228 0.000000 
-0.687392 -0.562242 0.000000 
-3.327058 1.964831 0.000000 
-3.276080 1.918409 0.000000 
-3.224941 1.884822 0.000000 
-3.181728 1.855664 0.000000 
-3.135074 1.818734 0.000000 
-3.078123 1.794441 0.000000 
-1.944260 -0.325596 0.000000 
0.083204 1.922384 0.000000 
0.005786 1.917031 0.000000 
-0.071812 1.926269 0.000000 
-0.135705 1.955811 0.000000 
-0.182391 1.997417 0.000000 
-1.999041 -0.254627 0.000000 
-1.843230 -0.529136 0.000000 
-0.491126 -0.118337 0.000000 
-0.512312 -0.045094 0.000000 
-0.526535 0.017738 0.000000 
-0.527935 0.079860 0.000000 
-0.524207 0.147030 0.000000 
-0.505864 0.204162 0.000000 
-0.468875 0.253374 0.000000 
-0.410369 0.282619 0.000000 
-0.354013 0.303736 0.000000 
-0.301050 0.313681 0.000000 
-0.255730 0.314454 0.000000 
-0.695595 -0.483947 0.000000 
-0.726457 -0.407065 0.000000 
-0.747352 -0.337610 0.000000 
-3.396487 1.907695 0.000000 
-3.344056 1.828307 0.000000 
-3.294256 1.784907 0.000000 
-3.248246 1.746582 0.000000 
-3.196818 1.707229 0.000000 
-3.159669 1.655918 0.000000 
-3.113281 1.609214 0.000000 
-3.056061 1.589651 0.000000 
-2.996684 1.567026 0.000000 
-2.933161 1.537409 0.000000 
-2.879064 1.501267 0.000000 
-2.813006 1.476481 0.000000 
-2.751664 1.453431 0.000000 
-2.686782 1.424108 0.000000 
-1.922020 -0.526329 0.000000 
-1.999705 -0.527828 0.000000 
-2.060018 -0.506224 0.000000 
-2.032615 -0.171237 0.000000 
-2.048550 -0.085515 0.000000 
-2.029059 -0.019621 0.000000 
-2.105228 -0.449166 0.000000 
-2.154373 -0.381571 0.000000 
-2.203584 -0.326947 0.000000 
-2.237020 -0.265512 0.000000 
-2.250593 -0.200219 0.000000 
-2.270119 -0.128435 0.000000 
-2.297898 -0.058125 0.000000 
-2.327118 0.003455 0.000000 
-2.346747 0.057425 0.000000 
-2.362840 0.110534 0.000000 
-2.374561 0.161579 0.000000 
-2.373128 0.213554 0.000000 
-2.334174 0.280145 0.000000 
-2.331842 0.320763 0.000000 
-2.284565 0.329522 0.000000 
-0.236368 2.046952 0.000000 
-0.299146 2.090779 0.000000 
-0.346614 2.110704 0.000000 
-0.382877 2.074201 0.000000 
-0.412447 2.045151 0.000000 
-0.433989 2.004863 0.000000 
-0.446472 1.961897 0.000000 
-0.451628 1.922579 0.000000 
-0.451047 1.884117 0.000000 
-0.449242 1.848113 0.000000 
-0.453345 1.816224 0.000000 
-0.460251 1.788530 0.000000 
-0.470304 1.759745 0.000000 
-0.475290 1.730255 0.000000 
-0.478341 1.700470 0.000000 
-0.479442 1.663733 0.000000 
-2.609147 1.410319 0.000000 
-2.517189 1.404820 0.000000 
-2.434013 1.405157 0.000000 
-2.352624 1.395126 0.000000 
-2.274410 1.375754 0.000000 
-2.204499 1.341106 0.000000 
-2.180326 1.272223 0.000000 
-2.178559 1.183687 0.000000 
-2.168273 1.093658 0.000000 
-2.159086 0.995594 0.000000 
-2.144575 0.906435 0.000000 
-2.163040 0.831218 0.000000 
-2.183612 0.757127 0.000000 
-2.172907 0.692569 0.000000 
-2.161614 0.629814 0.000000 
-2.169833 0.569702 0.000000 
-2.188987 0.507949 0.000000 
-2.218663 0.456703 0.000000 
-2.229021 0.400830 0.000000 
-2.997130 1.777644 0.000000 
-3.021908 1.679506 0.000000 
-2.902046 1.746137 0.000000 
-0.770600 -0.255017 0.000000 
-0.790096 -0.163358 0.000000 
-0.811857 -0.082650 0.000000 
-0.835807 -0.004086 0.000000 
-0.859157 0.066042 0.000000 
-0.881226 0.126093 0.000000 
-0.903169 0.185444 0.000000 
-0.928196 0.249488 0.000000 
-2.785442 1.713584 0.000000 
-2.944278 1.652842 0.000000 
-2.855014 1.615696 0.000000 
-2.796189 1.555616 0.000000 
-2.651235 1.698838 0.000000 
-2.517962 1.688490 0.000000 
-2.394240 1.679328 0.000000 
-2.275192 1.671331 0.000000 
-2.180847 1.646770 0.000000 
-2.099904 1.620291 0.000000 
-2.018420 1.589051 0.000000 
-1.945469 1.593348 0.000000 
-1.885190 1.626688 0.000000 
-1.829736 1.647257 0.000000 
-1.760875 1.672488 0.000000 
-1.680504 1.700913 0.000000 
-1.617798 1.719230 0.000000 
-1.570169 1.733753 0.000000 
-1.527149 1.747943 0.000000 
-1.482581 1.760072 0.000000 
-1.433927 1.766613 0.000000 
-1.386311 1.774528 0.000000 
-1.337319 1.783258 0.000000 
-1.286363 1.790338 0.000000 
-1.235962 1.791055 0.000000 
-1.188452 1.795868 0.000000 
-1.140860 1.805319 0.000000 
-1.091558 1.804629 0.000000 
-1.038962 1.793610 0.000000 
-0.982519 1.774612 0.000000 
-0.922315 1.757870 0.000000 
-0.869867 1.747545 0.000000 
-0.827747 1.741055 0.000000 
-0.785371 1.736144 0.000000 
-0.748025 1.726406 0.000000 
-0.712781 1.716139 0.000000 
-0.681690 1.702208 0.000000 
-0.657198 1.691073 0.000000 
-0.633895 1.684410 0.000000 
-0.612002 1.679955 0.000000 
-0.594184 1.672742 0.000000 
-0.577381 1.663292 0.000000 
-0.560109 1.648008 0.000000 
-0.540091 1.615554 0.000000 
-1.243914 -0.023292 0.000000 
-1.232782 -0.009575 0.000000 
-1.257376 -0.037646 0.000000 
-1.224378 0.009125 0.000000 
-1.271472 -0.056991 0.000000 
-1.215702 0.031122 0.000000 
-1.204660 0.057178 0.000000 
-1.290143 -0.084733 0.000000 
-1.314447 -0.129773 0.000000 
-1.190204 0.087485 0.000000 
-1.318041 -0.183127 0.000000 
-1.171655 0.121641 0.000000 
-1.149359 0.157955 0.000000 
-1.123094 0.196204 0.000000 
-1.284246 -0.233107 0.000000 
-1.239750 -0.283833 0.000000 
-1.083297 0.240195 0.000000 
-1.028190 0.271866 0.000000 
-1.181630 -0.326189 0.000000 
-1.112789 -0.357617 0.000000 
-1.040643 -0.369787 0.000000 
-0.978118 -0.372874 0.000000 
-0.927392 -0.385899 0.000000 
-0.889718 -0.425034 0.000000 
-0.873564 -0.481584 0.000000 
-0.920771 -0.513778 0.000000 
-0.935346 -0.446509 0.000000 
-0.991249 -0.523354 0.000000 
-1.088918 -0.520626 0.000000 
-1.067426 -0.440974 0.000000 
-1.189474 -0.513062 0.000000 
-1.147229 -0.428307 0.000000 
-1.266509 -0.489772 0.000000 
-1.219913 -0.402129 0.000000 
-1.335307 -0.453946 0.000000 
-1.284456 -0.364130 0.000000 
-1.402357 -0.410042 0.000000 
-1.341444 -0.316330 0.000000 
-1.466758 -0.357366 0.000000 
-1.539152 -0.296567 0.000000 
-1.393011 -0.258399 0.000000 
-1.612839 -0.226296 0.000000 
-1.665320 -0.168718 0.000000 
-1.691220 -0.103891 0.000000 
-1.704696 -0.018397 0.000000 
-1.850073 0.148472 0.000000 
-1.911042 0.092647 0.000000 
-1.969645 0.035810 0.000000 
-1.726970 0.088014 0.000000 
-0.222881 0.295843 0.000000 
-0.195707 0.268260 0.000000 
-0.164205 0.231313 0.000000 
-0.127520 0.198615 0.000000 
-0.095686 0.169123 0.000000 
-0.059027 0.140645 0.000000 
-0.018954 0.110662 0.000000 
0.030296 0.079391 0.000000 
0.086536 0.058865 0.000000 
0.141893 0.040134 0.000000 
0.202102 0.010854 0.000000 
0.263408 -0.029063 0.000000 
0.311661 -0.079050 0.000000 
0.333954 -0.138672 0.000000 
0.338621 -0.199122 0.000000 
0.341530 -0.253061 0.000000 
0.353165 -0.303250 0.000000 
0.365710 -0.361672 0.000000 
0.363543 -0.431201 0.000000 
[...]
POINT_DATA 899 
VECTORS X_GC float 
-3.648847 2.235863 0.000000 
-3.619410 2.195311 0.000000 
-3.578536 2.159716 0.000000 
-3.540028 2.124066 0.000000 
-3.511690 2.091870 0.000000 
-3.481362 2.062012 0.000000 
-3.451569 2.021338 0.000000 
0.772356 2.138377 0.000000 
0.774615 2.112256 0.000000 
0.769962 2.083502 0.000000 
-3.399514 1.991062 0.000000 
0.413960 -0.653780 0.000000 
0.455573 -0.649477 0.000000 
-1.762619 -0.553675 0.000000 
-1.783389 -0.518279 0.000000 
-1.714437 -0.489490 0.000000 
0.732567 2.132702 0.000000 
0.698438 2.118865 0.000000 
0.491831 -0.635274 0.000000 
0.519501 -0.604869 0.000000 
0.530556 -0.564422 0.000000 
0.532354 -0.518618 0.000000 
0.531774 -0.468112 0.000000 
-3.460923 1.929330 0.000000 
0.663989 2.096919 0.000000 
0.631675 2.069525 0.000000 
0.601833 2.045469 0.000000 
0.569607 2.022211 0.000000 
0.534059 2.000134 0.000000 
0.492599 1.978994 0.000000 
0.444403 1.960329 0.000000 
0.762807 2.042527 0.000000 
-1.708694 -0.455107 0.000000 
-1.726386 -0.414844 0.000000 
-1.761257 -0.390823 0.000000 
-1.812853 -0.382974 0.000000 
-0.690422 -0.635310 0.000000 
-0.624256 -0.653238 0.000000 
-0.561079 -0.661419 0.000000 
-0.500739 -0.662875 0.000000 
-0.445387 -0.662937 0.000000 
0.532260 -0.409028 0.000000 
0.536647 -0.339695 0.000000 
-1.881389 -0.370474 0.000000 
-0.389303 -0.660663 0.000000 
-0.340338 -0.645377 0.000000 
-0.344339 -0.591242 0.000000 
-0.358558 -0.538703 0.000000 
-0.381750 -0.497791 0.000000 
-0.406193 -0.463616 0.000000 
-0.417316 -0.432119 0.000000 
-0.428320 -0.397862 0.000000 
-0.436973 -0.353597 0.000000 
-0.444212 -0.298054 0.000000 
-0.452662 -0.239196 0.000000 
-0.468602 -0.182297 0.000000 
0.553166 -0.274980 0.000000 
0.573193 -0.217309 0.000000 
0.574450 -0.165568 0.000000 
0.561087 -0.115248 0.000000 
0.550432 -0.059925 0.000000 
0.748903 1.989210 0.000000 
0.730940 1.932717 0.000000 
0.715868 1.886558 0.000000 
0.699446 1.850430 0.000000 
0.684888 1.809440 0.000000 
0.675900 1.763236 0.000000 
0.669871 1.713676 0.000000 
0.664455 1.665819 0.000000 
0.668163 1.619400 0.000000 
0.672091 1.569566 0.000000 
0.674558 1.521543 0.000000 
0.673045 1.471463 0.000000 
0.386491 1.950649 0.000000 
0.664855 1.412725 0.000000 
0.652298 1.354647 0.000000 
0.638456 1.300997 0.000000 
0.623121 1.251487 0.000000 
0.616008 1.208460 0.000000 
0.600787 1.173517 0.000000 
0.571289 1.144069 0.000000 
0.539016 1.112907 0.000000 
0.513857 1.084008 0.000000 
0.493343 1.057773 0.000000 
0.469109 1.039961 0.000000 
0.444920 1.023516 0.000000 
0.415324 1.002550 0.000000 
0.383540 0.977798 0.000000 
0.356179 0.948466 0.000000 
0.343879 0.909566 0.000000 
0.337476 0.864046 0.000000 
0.332404 0.818759 0.000000 
0.328512 0.779070 0.000000 
0.319594 0.742990 0.000000 
0.304149 0.709579 0.000000 
0.290502 0.669188 0.000000 
0.275896 0.621326 0.000000 
0.261905 0.579357 0.000000 
0.250150 0.545761 0.000000 
0.250896 0.507957 0.000000 
0.259587 0.465353 0.000000 
0.284617 0.422580 0.000000 
0.315237 0.392919 0.000000 
0.340022 0.373482 0.000000 
0.354380 0.347633 0.000000 
0.368685 0.320490 0.000000 
0.385568 0.294094 0.000000 
0.415372 0.269297 0.000000 
0.447119 0.237585 0.000000 
0.477633 0.209668 0.000000 
0.503078 0.181732 0.000000 
0.518876 0.143678 0.000000 
0.527127 0.107709 0.000000 
0.534187 0.063164 0.000000 
0.543185 0.002384 0.000000 
0.322519 1.939593 0.000000 
0.263849 1.926476 0.000000 
0.208223 1.921057 0.000000 
0.150441 1.917228 0.000000 
-0.687392 -0.562242 0.000000 
-3.327058 1.964831 0.000000 
-3.276080 1.918409 0.000000 
-3.224941 1.884822 0.000000 
-3.181728 1.855664 0.000000 
-3.135074 1.818734 0.000000 
-3.078123 1.794441 0.000000 
-1.944260 -0.325596 0.000000 
0.083204 1.922384 0.000000 
0.005786 1.917031 0.000000 
-0.071812 1.926269 0.000000 
-0.135705 1.955811 0.000000 
-0.182391 1.997417 0.000000 
-1.999041 -0.254627 0.000000 
-1.843230 -0.529136 0.000000 
-0.491126 -0.118337 0.000000 
-0.512312 -0.045094 0.000000 
-0.526535 0.017738 0.000000 
-0.527935 0.079860 0.000000 
-0.524207 0.147030 0.000000 
-0.505864 0.204162 0.000000 
-0.468875 0.253374 0.000000 
-0.410369 0.282619 0.000000 
-0.354013 0.303736 0.000000 
-0.301050 0.313681 0.000000 
-0.255730 0.314454 0.000000 
-0.695595 -0.483947 0.000000 
-0.726457 -0.407065 0.000000 
-0.747352 -0.337610 0.000000 
-3.396487 1.907695 0.000000 
-3.344056 1.828307 0.000000 
-3.294256 1.784907 0.000000 
-3.248246 1.746582 0.000000 
-3.196818 1.707229 0.000000 
-3.159669 1.655918 0.000000 
-3.113281 1.609214 0.000000 
-3.056061 1.589651 0.000000 
-2.996684 1.567026 0.000000 
-2.933161 1.537409 0.000000 
-2.879064 1.501267 0.000000 
-2.813006 1.476481 0.000000 
-2.751664 1.453431 0.000000 
-2.686782 1.424108 0.000000 
-1.922020 -0.526329 0.000000 
-1.999705 -0.527828 0.000000 
-2.060018 -0.506224 0.000000 
-2.032615 -0.171237 0.000000 
-2.048550 -0.085515 0.000000 
-2.029059 -0.019621 0.000000 
-2.105228 -0.449166 0.000000 
-2.154373 -0.381571 0.000000 
-2.203584 -0.326947 0.000000 
-2.237020 -0.265512 0.000000 
-2.250593 -0.200219 0.000000 
-2.270119 -0.128435 0.000000 
-2.297898 -0.058125 0.000000 
-2.327118 0.003455 0.000000 
-2.346747 0.057425 0.000000 
-2.362840 0.110534 0.000000 
-2.374561 0.161579 0.000000 
-2.373128 0.213554 0.000000 
-2.334174 0.280145 0.000000 
-2.331842 0.320763 0.000000 
-2.284565 0.329522 0.000000 
-0.236368 2.046952 0.000000 
-0.299146 2.090779 0.000000 
-0.346614 2.110704 0.000000 
-0.382877 2.074201 0.000000 
-0.412447 2.045151 0.000000 
-0.433989 2.004863 0.000000 
-0.446472 1.961897 0.000000 
-0.451628 1.922579 0.000000 
-0.451047 1.884117 0.000000 
-0.449242 1.848113 0.000000 
-0.453345 1.816224 0.000000 
-0.460251 1.788530 0.000000 
-0.470304 1.759745 0.000000 
-0.475290 1.730255 0.000000 
-0.478341 1.700470 0.000000 
-0.479442 1.663733 0.000000 
-2.609147 1.410319 0.000000 
-2.517189 1.404820 0.000000 
-2.434013 1.405157 0.000000 
-2.352624 1.395126 0.000000 
-2.274410 1.375754 0.000000 
-2.204499 1.341106 0.000000 
-2.180326 1.272223 0.000000 
-2.178559 1.183687 0.000000 
-2.168273 1.093658 0.000000 
-2.159086 0.995594 0.000000 
-2.144575 0.906435 0.000000 
-2.163040 0.831218 0.000000 
-2.183612 0.757127 0.000000 
-2.172907 0.692569 0.000000 
-2.161614 0.629814 0.000000 
-2.169833 0.569702 0.000000 
-2.188987 0.507949 0.000000 
-2.218663 0.456703 0.000000 
-2.229021 0.400830 0.000000 
-2.997130 1.777644 0.000000 
-3.021908 1.679506 0.000000 
-2.902046 1.746137 0.000000 
-0.770600 -0.255017 0.000000 
-0.790096 -0.163358 0.000000 
-0.811857 -0.082650 0.000000 
-0.835807 -0.004086 0.000000 
-0.859157 0.066042 0.000000 
-0.881226 0.126093 0.000000 
-0.903169 0.185444 0.000000 
-0.928196 0.249488 0.000000 
-2.785442 1.713584 0.000000 
-2.944278 1.652842 0.000000 
-2.855014 1.615696 0.000000 
-2.796189 1.555616 0.000000 
-2.651235 1.698838 0.000000 
-2.517962 1.688490 0.000000 
-2.394240 1.679328 0.000000 
-2.275192 1.671331 0.000000 
-2.180847 1.646770 0.000000 
-2.099904 1.620291 0.000000 
-2.018420 1.589051 0.000000 
-1.945469 1.593348 0.000000 
-1.885190 1.626688 0.000000 
-1.829736 1.647257 0.000000 
-1.760875 1.672488 0.000000 
-1.680504 1.700913 0.000000 
-1.617798 1.719230 0.000000 
-1.570169 1.733753 0.000000 
-1.527149 1.747943 0.000000 
-1.482581 1.760072 0.000000 
-1.433927 1.766613 0.000000 
-1.386311 1.774528 0.000000 
-1.337319 1.783258 0.000000 
-1.286363 1.790338 0.000000 
-1.235962 1.791055 0.000000 
-1.188452 1.795868 0.000000 
-1.140860 1.805319 0.000000 
-1.091558 1.804629 0.000000 
-1.038962 1.793610 0.000000 
-0.982519 1.774612 0.000000 
-0.922315 1.757870 0.000000 
-0.869867 1.747545 0.000000 
-0.827747 1.741055 0.000000 
-0.785371 1.736144 0.000000 
-0.748025 1.726406 0.000000 
-0.712781 1.716139 0.000000 
-0.681690 1.702208 0.000000 
-0.657198 1.691073 0.000000 
-0.633895 1.684410 0.000000 
-0.612002 1.679955 0.000000 
-0.594184 1.672742 0.000000 
-0.577381 1.663292 0.000000 
-0.560109 1.648008 0.000000 
-0.540091 1.615554 0.000000 
-1.243914 -0.023292 0.000000 
-1.232782 -0.009575 0.000000 
-1.257376 -0.037646 0.000000 
-1.224378 0.009125 0.000000 
-1.271472 -0.056991 0.000000 
-1.215702 0.031122 0.000000 
-1.204660 0.057178 0.000000 
-1.290143 -0.084733 0.000000 
-1.314447 -0.129773 0.000000 
-1.190204 0.087485 0.000000 
-1.318041 -0.183127 0.000000 
-1.171655 0.121641 0.000000 
-1.149359 0.157955 0.000000 
-1.123094 0.196204 0.000000 
-1.284246 -0.233107 0.000000 
-1.239750 -0.283833 0.000000 
-1.083297 0.240195 0.000000 
-1.028190 0.271866 0.000000 
-1.181630 -0.326189 0.000000 
-1.112789 -0.357617 0.000000 
-1.040643 -0.369787 0.000000 
-0.978118 -0.372874 0.000000 
-0.927392 -0.385899 0.000000 
-0.889718 -0.425034 0.000000 
-0.873564 -0.481584 0.000000 
-0.920771 -0.513778 0.000000 
-0.935346 -0.446509 0.000000 
-0.991249 -0.523354 0.000000 
-1.088918 -0.520626 0.000000 
-1.067426 -0.440974 0.000000 
-1.189474 -0.513062 0.000000 
-1.147229 -0.428307 0.000000 
-1.266509 -0.489772 0.000000 
-1.219913 -0.402129 0.000000 
-1.335307 -0.453946 0.000000 
-1.284456 -0.364130 0.000000 
-1.402357 -0.410042 0.000000 
-1.341444 -0.316330 0.000000 
-1.466758 -0.357366 0.000000 
-1.539152 -0.296567 0.000000 
-1.393011 -0.258399 0.000000 
-1.612839 -0.226296 0.000000 
-1.665320 -0.168718 0.000000 
-1.691220 -0.103891 0.000000 
-1.704696 -0.018397 0.000000 
-1.850073 0.148472 0.000000 
-1.911042 0.092647 0.000000 
-1.969645 0.035810 0.000000 
-1.726970 0.088014 0.000000 
-0.222881 0.295843 0.000000 
-0.195707 0.268260 0.000000 
-0.164205 0.231313 0.000000 
-0.127520 0.198615 0.000000 
-0.095686 0.169123 0.000000 
-0.059027 0.140645 0.000000 
-0.018954 0.110662 0.000000 
0.030296 0.079391 0.000000 
0.086536 0.058865 0.000000 
0.141893 0.040134 0.000000 
0.202102 0.010854 0.000000 
0.263408 -0.029063 0.000000 
0.311661 -0.079050 0.000000 
0.333954 -0.138672 0.000000 
0.338621 -0.199122 0.000000 
0.341530 -0.253061 0.000000 
0.353165 -0.303250 0.000000 
0.365710 -0.361672 0.000000 
0.363543 -0.431201 0.000000 
0.357353 -0.493316 0.000000 
0.351188 -0.544058 0.000000 
0.363842 -0.591086 0.000000 
-1.737069 -0.457737 0.000000 
-0.199590 0.348461 0.000000 
-0.156305 0.318545 0.000000 
-0.462327 1.584500 0.000000 
0.741313 2.107075 0.000000 
0.482415 -0.601857 0.000000 
0.446104 -0.609753 0.000000 
0.403556 -0.615407 0.000000 
-0.104001 0.290480 0.000000 
-0.514998 1.516555 0.000000 
-0.059937 0.256075 0.000000 
0.738519 2.081810 0.000000 
0.714572 2.094110 0.000000 
-0.249752 0.375284 0.000000 
-0.036232 0.212276 0.000000 
0.000772 0.184444 0.000000 
0.035161 0.158800 0.000000 
-1.776537 -0.457179 0.000000 
-1.836238 -0.452994 0.000000 
-0.309416 0.389384 0.000000 
-0.378944 0.387120 0.000000 
-2.292732 0.266708 0.000000 
-2.315166 0.216717 0.000000 
-2.314418 0.169160 0.000000 
-2.293418 0.122774 0.000000 
-2.279687 0.072895 0.000000 
-2.253462 0.025629 0.000000 
0.075120 0.131057 0.000000 
0.131113 0.118449 0.000000 
-0.977004 0.320432 0.000000 
-0.860050 0.310267 0.000000 
-1.912142 -0.444938 0.000000 
-1.989966 -0.453718 0.000000 
-2.023752 -0.386176 0.000000 
-2.082175 -0.314915 0.000000 
0.723889 2.050297 0.000000 
0.691466 2.069140 0.000000 
0.665980 2.036493 0.000000 
0.704783 2.009225 0.000000 
0.637970 1.998435 0.000000 
0.681732 1.962016 0.000000 
0.670916 1.915841 0.000000 
0.602858 1.966767 0.000000 
0.659584 1.875417 0.000000 
0.560783 1.940396 0.000000 
0.636111 1.839343 0.000000 
0.607495 1.789552 0.000000 
0.595324 1.726071 0.000000 
0.604052 1.661398 0.000000 
0.514160 1.910993 0.000000 
0.453857 1.883547 0.000000 
0.392525 1.881569 0.000000 
0.334098 1.880041 0.000000 
0.278675 1.861287 0.000000 
0.217273 1.843212 0.000000 
0.149449 1.825856 0.000000 
0.614128 1.609122 0.000000 
0.621313 1.561543 0.000000 
0.624262 1.516663 0.000000 
-2.197766 -0.027559 0.000000 
-2.158682 -0.102483 0.000000 
-2.124695 0.031771 0.000000 
-2.150589 -0.268609 0.000000 
-2.141926 -0.191064 0.000000 
-0.393439 -0.607624 0.000000 
-0.412631 -0.563580 0.000000 
-0.436983 -0.522977 0.000000 
-0.445953 -0.479557 0.000000 
-0.458251 -0.446731 0.000000 
-0.479726 -0.411965 0.000000 
-0.496934 -0.363234 0.000000 
-0.509002 -0.308150 0.000000 
-0.517157 -0.253820 0.000000 
-0.545309 -0.202545 0.000000 
-0.442273 -0.605018 0.000000 
-0.496002 -0.595501 0.000000 
-0.557668 -0.597607 0.000000 
-0.618975 -0.582127 0.000000 
-0.334659 2.048891 0.000000 
-0.367985 2.019174 0.000000 
-0.385153 1.982748 0.000000 
-0.396797 1.948881 0.000000 
-0.406285 1.913359 0.000000 
-0.402558 1.874225 0.000000 
-0.406645 1.835782 0.000000 
-0.418378 1.803368 0.000000 
-0.428059 1.774242 0.000000 
-0.435849 1.744695 0.000000 
-0.442335 1.714660 0.000000 
-0.445406 1.681595 0.000000 
-0.444483 1.635879 0.000000 
0.619822 1.470931 0.000000 
-1.077870 0.367496 0.000000 
-1.149036 0.325538 0.000000 
-1.174735 0.250695 0.000000 
-1.192231 0.198972 0.000000 
-1.210811 0.157195 0.000000 
-1.228352 0.117855 0.000000 
-1.238869 0.079875 0.000000 
-1.244643 0.048378 0.000000 
-1.248534 0.023477 0.000000 
-1.252336 0.004189 0.000000 
-1.262323 -0.009062 0.000000 
-1.280319 -0.019978 0.000000 
-0.451814 0.364460 0.000000 
-0.526928 0.320938 0.000000 
0.194935 0.101457 0.000000 
0.069048 1.811756 0.000000 
-0.574175 0.250254 0.000000 
-0.593607 0.169151 0.000000 
-1.764101 0.208836 0.000000 
-2.210991 0.327692 0.000000 
-0.825996 0.224990 0.000000 
-0.799223 0.153909 0.000000 
-0.760911 0.087476 0.000000 
0.605964 1.419980 0.000000 
0.587834 1.362619 0.000000 
0.576354 1.302771 0.000000 
0.574971 1.247763 0.000000 
0.580375 1.204738 0.000000 
0.545179 1.182354 0.000000 
0.509957 1.150092 0.000000 
0.484198 1.113689 0.000000 
0.468721 1.082535 0.000000 
0.449386 1.064004 0.000000 
0.422962 1.051338 0.000000 
0.391379 1.032187 0.000000 
0.357154 1.008124 0.000000 
0.323730 0.979751 0.000000 
-0.582151 -0.141677 0.000000 
0.265957 0.075027 0.000000 
0.333763 0.028898 0.000000 
0.378371 -0.038118 0.000000 
0.400918 -0.112513 0.000000 
0.401084 -0.175502 0.000000 
0.404345 -0.229603 0.000000 
0.432648 -0.280685 0.000000 
0.450030 -0.345126 0.000000 
0.529803 -0.191973 0.000000 
0.491947 -0.240110 0.000000 
0.453243 -0.190226 0.000000 
0.449550 -0.419450 0.000000 
0.498420 -0.146099 0.000000 
0.474171 -0.086158 0.000000 
0.457863 -0.011585 0.000000 
0.462195 -0.478104 0.000000 
0.478704 -0.524440 0.000000 
0.483460 -0.565406 0.000000 
0.412910 -0.503746 0.000000 
0.398390 -0.542459 0.000000 
0.404290 -0.576746 0.000000 
0.442452 -0.572188 0.000000 
0.436659 -0.537024 0.000000 
-0.727378 0.013343 0.000000 
-0.616071 0.095361 0.000000 
-0.623548 0.021081 0.000000 
-0.605779 -0.059927 0.000000 
-0.706340 -0.072375 0.000000 
-0.681483 -0.158637 0.000000 
-0.032304 1.806196 0.000000 
-0.128010 1.842345 0.000000 
-0.195732 1.909469 0.000000 
-0.243911 1.963383 0.000000 
-0.287859 2.010786 0.000000 
-0.335518 1.983091 0.000000 
-0.667608 -0.244018 0.000000 
-0.584906 -0.250786 0.000000 
-0.658169 -0.324026 0.000000 
-0.578442 -0.316156 0.000000 
-0.639050 -0.395469 0.000000 
-0.607982 -0.470986 0.000000 
-0.562541 -0.378855 0.000000 
-0.536184 -0.439879 0.000000 
-0.495978 -0.477840 0.000000 
-0.500680 -0.530235 0.000000 
-0.573051 -0.534688 0.000000 
-2.690892 1.579490 0.000000 
-2.684799 1.493477 0.000000 
-2.602920 1.492215 0.000000 
-2.574381 1.577208 0.000000 
-2.518122 1.512082 0.000000 
-2.424460 1.535980 0.000000 
-2.320006 1.527049 0.000000 
-2.229986 1.503431 0.000000 
-2.146342 1.462191 0.000000 
-1.455055 -0.199417 0.000000 
-1.387692 -0.119094 0.000000 
-1.339496 -0.065765 0.000000 
-1.304977 -0.037205 0.000000 
-1.531301 -0.133924 0.000000 
-1.604385 -0.089812 0.000000 
-1.592423 0.010869 0.000000 
-1.608296 0.134832 0.000000 
-1.827918 0.333277 0.000000 
0.477873 0.102081 0.000000 
0.477147 0.136979 0.000000 
0.465631 0.171219 0.000000 
-0.587742 1.615428 0.000000 
-0.593403 1.639532 0.000000 
-0.604579 1.652188 0.000000 
-0.619289 1.657874 0.000000 
-0.639577 1.655701 0.000000 
-0.665912 1.657317 0.000000 
-0.697937 1.664304 0.000000 
-0.595692 1.561940 0.000000 
-0.726123 1.679115 0.000000 
-0.757398 1.689686 0.000000 
-0.794522 1.687110 0.000000 
-0.841416 1.684533 0.000000 
-0.894922 1.685893 0.000000 
-0.956071 1.694309 0.000000 
-1.020951 1.713230 0.000000 
-1.077937 1.740865 0.000000 
-1.120258 1.769593 0.000000 
-1.171769 1.745333 0.000000 
0.332207 0.298724 0.000000 
0.333662 0.256989 0.000000 
0.321472 0.327341 0.000000 
0.302407 0.354153 0.000000 
0.214022 0.368815 0.000000 
0.194081 0.429840 0.000000 
0.186716 0.485353 0.000000 
0.189303 0.538125 0.000000 
0.360023 0.217307 0.000000 
0.405131 0.192174 0.000000 
0.201671 0.587371 0.000000 
0.218038 0.637632 0.000000 
0.236652 0.686566 0.000000 
0.256885 0.728499 0.000000 
0.278373 0.756993 0.000000 
0.284019 0.790391 0.000000 
0.276718 0.837139 0.000000 
0.278735 0.893952 0.000000 
0.296322 0.944219 0.000000 
-1.507867 1.697091 0.000000 
-1.548116 1.672448 0.000000 
-1.598023 1.645069 0.000000 
-1.467251 1.711865 0.000000 
-1.422160 1.719148 0.000000 
-1.373311 1.725864 0.000000 
-1.322903 1.733641 0.000000 
-1.275577 1.742887 0.000000 
-1.225048 1.741487 0.000000 
-1.662214 1.621400 0.000000 
-1.732600 1.601460 0.000000 
-1.794687 1.587085 0.000000 
-1.841773 1.557897 0.000000 
-2.078405 0.625170 0.000000 
-2.079214 0.703759 0.000000 
-2.097651 0.547570 0.000000 
-2.129318 0.475831 0.000000 
-2.096743 0.784321 0.000000 
-2.169699 0.420488 0.000000 
-1.991686 0.347487 0.000000 
-1.642187 0.273043 0.000000 
-1.989898 0.180263 0.000000 
-2.064526 0.108450 0.000000 
-1.914688 0.253797 0.000000 
-2.037969 1.036874 0.000000 
-2.021377 0.921189 0.000000 
-2.055796 1.166035 0.000000 
-2.102728 1.268688 0.000000 
-2.047875 1.410991 0.000000 
0.428030 0.157722 0.000000 
0.375625 0.136486 0.000000 
0.313454 0.149587 0.000000 
0.290352 0.295621 0.000000 
0.238487 1.006539 0.000000 
0.440631 0.119614 0.000000 
0.396678 0.079837 0.000000 
0.460488 0.053917 0.000000 
0.523747 1.230029 0.000000 
-2.262588 0.193283 0.000000 
-2.220468 0.249311 0.000000 
-2.218579 0.139772 0.000000 
-2.146376 0.191622 0.000000 
-2.206503 0.074702 0.000000 
0.473879 1.191417 0.000000 
0.446488 1.139085 0.000000 
0.440978 1.095067 0.000000 
0.409581 1.087211 0.000000 
0.629179 1.916107 0.000000 
0.593839 1.883633 0.000000 
0.550362 1.839429 0.000000 
0.483841 1.799007 0.000000 
0.202470 0.940175 0.000000 
0.241245 0.792399 0.000000 
0.205152 0.767598 0.000000 
0.175878 0.719458 0.000000 
0.153326 0.660951 0.000000 
0.132079 0.600502 0.000000 
0.113278 0.536046 0.000000 
0.106000 0.467722 0.000000 
0.109640 0.398526 0.000000 
0.121648 0.327848 0.000000 
0.032483 0.238234 0.000000 
0.246820 0.320912 0.000000 
0.099619 0.186599 0.000000 
0.373127 1.072329 0.000000 
-0.307911 1.935469 0.000000 
-0.360136 1.917000 0.000000 
-0.343252 1.862654 0.000000 
-0.270247 1.870798 0.000000 
0.168337 0.183117 0.000000 
0.242346 0.172780 0.000000 
0.270369 0.241817 0.000000 
0.505525 1.297790 0.000000 
-0.689828 0.125045 0.000000 
-0.729540 0.182449 0.000000 
-0.746154 0.256922 0.000000 
-0.657668 0.273486 0.000000 
-0.661195 0.189199 0.000000 
-0.924642 0.426162 0.000000 
-1.137284 1.689525 0.000000 
-1.072920 1.644931 0.000000 
-1.248127 1.701822 0.000000 
-1.304069 1.685500 0.000000 
-1.360197 1.677839 0.000000 
-1.411221 1.673700 0.000000 
-1.453165 1.670470 0.000000 
-1.486003 1.653008 0.000000 
-1.510814 1.609539 0.000000 
-1.558800 1.564870 0.000000 
-0.995058 1.618178 0.000000 
-0.919611 1.607702 0.000000 
-0.852227 1.614634 0.000000 
-0.796966 1.631152 0.000000 
-0.752732 1.650321 0.000000 
-1.635591 1.537537 0.000000 
-1.992480 0.812239 0.000000 
-1.965104 0.702459 0.000000 
-1.974377 0.599126 0.000000 
-2.014368 0.505505 0.000000 
-2.065453 0.422319 0.000000 
-2.071492 0.269252 0.000000 
-2.131272 0.352788 0.000000 
-1.712039 1.524214 0.000000 
-1.781280 1.524164 0.000000 
-1.884796 1.494108 0.000000 
0.516332 1.713770 0.000000 
0.538779 1.642642 0.000000 
0.517174 1.372176 0.000000 
0.552532 1.434112 0.000000 
0.576896 1.476038 0.000000 
0.583356 1.513065 0.000000 
0.576083 1.550069 0.000000 