# vtk DataFile Version 3.0 
vtk output 
ASCII 
DATASET UNSTRUCTURED_GRID 
POINTS 899 float 
-3.648847 2.325330 0.000000 
-3.619410 2.284778 0.000000 
-3.578536 2.249184 0.000000 
-3.540028 2.213533 0.000000 
-3.511690 2.181337 0.000000 
-3.481362 2.151479 0.000000 
-3.451569 2.110806 0.000000 
0.772356 2.227844 0.000000 
0.774615 2.201723 0.000000 
0.769962 2.172969 0.000000 
-3.399514 2.080530 0.000000 
0.413960 -0.564312 0.000000 
0.455573 -0.560010 0.000000 
-1.762619 -0.464208 0.000000 
-1.783389 -0.428812 0.000000 
-1.714437 -0.400022 0.000000 
0.732567 2.222169 0.000000 
0.698438 2.208333 0.000000 
0.491831 -0.545807 0.000000 
0.519501 -0.515402 0.000000 
0.530556 -0.474955 0.000000 
0.532354 -0.429151 0.000000 
0.531774 -0.378644 0.000000 
-3.460923 2.018797 0.000000 
0.663989 2.186386 0.000000 
0.631675 2.158992 0.000000 
0.601833 2.134936 0.000000 
0.569607 2.111679 0.000000 
0.534059 2.089601 0.000000 
0.492599 2.068461 0.000000 
0.444403 2.049796 0.000000 
0.762807 2.131995 0.000000 
-1.708694 -0.365640 0.000000 
-1.726386 -0.325376 0.000000 
-1.761257 -0.301356 0.000000 
-1.812853 -0.293507 0.000000 
-0.690422 -0.545843 0.000000 
-0.624256 -0.563770 0.000000 
-0.561079 -0.571952 0.000000 
-0.500739 -0.573408 0.000000 
-0.445387 -0.573470 0.000000 
0.532260 -0.319561 0.000000 
0.536647 -0.250227 0.000000 
-1.881389 -0.281007 0.000000 
-0.389303 -0.571195 0.000000 
-0.340338 -0.555910 0.000000 
-0.344339 -0.501775 0.000000 
-0.358558 -0.449235 0.000000 
-0.381750 -0.408324 0.000000 
-0.406193 -0.374149 0.000000 
-0.417316 -0.342651 0.000000 
-0.428320 -0.308394 0.000000 
-0.436973 -0.264130 0.000000 
-0.444212 -0.208587 0.000000 
-0.452662 -0.149729 0.000000 
-0.468602 -0.092830 0.000000 
0.553166 -0.185512 0.000000 
0.573193 -0.127841 0.000000 
0.574450 -0.076101 0.000000 
0.561087 -0.025781 0.000000 
0.550432 0.029542 0.000000 
0.748903 2.078677 0.000000 
0.730940 2.022184 0.000000 
0.715868 1.976025 0.000000 
0.699446 1.939897 0.000000 
0.684888 1.898908 0.000000 
0.675900 1.852703 0.000000 
0.669871 1.803143 0.000000 
0.664455 1.755286 0.000000 
0.668163 1.708867 0.000000 
0.672091 1.659033 0.000000 
0.674558 1.611010 0.000000 
0.673045 1.560931 0.000000 
0.386491 2.040116 0.000000 
0.664855 1.502192 0.000000 
0.652298 1.444114 0.000000 
0.638456 1.390464 0.000000 
0.623121 1.340954 0.000000 
0.616008 1.297927 0.000000 
0.600787 1.262985 0.000000 
0.571289 1.233536 0.000000 
0.539016 1.202375 0.000000 
0.513857 1.173476 0.000000 
0.493343 1.147240 0.000000 
0.469109 1.129428 0.000000 
0.444920 1.112983 0.000000 
0.415324 1.092018 0.000000 
0.383540 1.067265 0.000000 
0.356179 1.037933 0.000000 
0.343879 0.999033 0.000000 
0.337476 0.953513 0.000000 
0.332404 0.908227 0.000000 
0.328512 0.868537 0.000000 
0.319594 0.832457 0.000000 
0.304149 0.799046 0.000000 
0.290502 0.758655 0.000000 
0.275896 0.710793 0.000000 
0.261905 0.668824 0.000000 
0.250150 0.635229 0.000000 
0.250896 0.597424 0.000000 
0.259587 0.554820 0.000000 
0.284617 0.512047 0.000000 
0.315237 0.482386 0.000000 
0.340022 0.462949 0.000000 
0.354380 0.437100 0.000000 
0.368685 0.409958 0.000000 
0.385568 0.383561 0.000000 
0.415372 0.358765 0.000000 
0.447119 0.327052 0.000000 
0.477633 0.299136 0.000000 
0.503078 0.271199 0.000000 
0.518876 0.233145 0.000000 
0.527127 0.197176 0.000000 
0.534187 0.152631 0.000000 
0.543185 0.091851 0.000000 
0.322519 2.029060 0.000000 
0.263849 2.015943 0.000000 
0.208223 2.010524 0.000000 
0.150441 2.006695 0.000000 
-0.687392 -0.472775 0.000000 
-3.327058 2.054298 0.000000 
-3.276080 2.007876 0.000000 
-3.224941 1.974290 0.000000 
-3.181728 1.945131 0.000000 
-3.135074 1.908201 0.000000 
-3.078123 1.883908 0.000000 
-1.944260 -0.236128 0.000000 
0.083204 2.011851 0.000000 
0.005786 2.006498 0.000000 
-0.071812 2.015737 0.000000 
-0.135705 2.045278 0.000000 
-0.182391 2.086884 0.000000 
-1.999041 -0.165160 0.000000 
-1.843230 -0.439668 0.000000 
-0.491126 -0.028870 0.000000 
-0.512312 0.044373 0.000000 
-0.526535 0.107205 0.000000 
-0.527935 0.169327 0.000000 
-0.524207 0.236497 0.000000 
-0.505864 0.293629 0.000000 
-0.468875 0.342841 0.000000 
-0.410369 0.372086 0.000000 
-0.354013 0.393203 0.000000 
-0.301050 0.403149 0.000000 
-0.255730 0.403921 0.000000 
-0.695595 -0.394480 0.000000 
-0.726457 -0.317598 0.000000 
-0.747352 -0.248143 0.000000 
-3.396487 1.997162 0.000000 
-3.344056 1.917775 0.000000 
-3.294256 1.874374 0.000000 
-3.248246 1.836049 0.000000 
-3.196818 1.796696 0.000000 
-3.159669 1.745386 0.000000 
-3.113281 1.698681 0.000000 
-3.056061 1.679118 0.000000 
-2.996684 1.656493 0.000000 
-2.933161 1.626877 0.000000 
-2.879064 1.590734 0.000000 
-2.813006 1.565948 0.000000 
-2.751664 1.542898 0.000000 
-2.686782 1.513575 0.000000 
-1.922020 -0.436862 0.000000 
-1.999705 -0.438361 0.000000 
-2.060018 -0.416757 0.000000 
-2.032615 -0.081769 0.000000 
-2.048550 0.003953 0.000000 
-2.029059 0.069846 0.000000 
-2.105228 -0.359698 0.000000 
-2.154373 -0.292104 0.000000 
-2.203584 -0.237480 0.000000 
-2.237020 -0.176045 0.000000 
-2.250593 -0.110752 0.000000 
-2.270119 -0.038968 0.000000 
-2.297898 0.031342 0.000000 
-2.327118 0.092922 0.000000 
-2.346747 0.146892 0.000000 
-2.362840 0.200002 0.000000 
-2.374561 0.251046 0.000000 
-2.373128 0.303022 0.000000 
-2.334174 0.369612 0.000000 
-2.331842 0.410230 0.000000 
-2.284565 0.418989 0.000000 
-0.236368 2.136419 0.000000 
-0.299146 2.180246 0.000000 
-0.346614 2.200171 0.000000 
-0.382877 2.163668 0.000000 
-0.412447 2.134618 0.000000 
-0.433989 2.094331 0.000000 
-0.446472 2.051364 0.000000 
-0.451628 2.012046 0.000000 
-0.451047 1.973584 0.000000 
-0.449242 1.937580 0.000000 
-0.453345 1.905691 0.000000 
-0.460251 1.877997 0.000000 
-0.470304 1.849212 0.000000 
-0.475290 1.819722 0.000000 
-0.478341 1.789937 0.000000 
-0.479442 1.753201 0.000000 
-2.609147 1.499786 0.000000 
-2.517189 1.494288 0.000000 
-2.434013 1.494624 0.000000 
-2.352624 1.484593 0.000000 
-2.274410 1.465222 0.000000 
-2.204499 1.430573 0.000000 
-2.180326 1.361690 0.000000 
-2.178559 1.273154 0.000000 
-2.168273 1.183125 0.000000 
-2.159086 1.085061 0.000000 
-2.144575 0.995903 0.000000 
-2.163040 0.920685 0.000000 
-2.183612 0.846594 0.000000 
-2.172907 0.782036 0.000000 
-2.161614 0.719281 0.000000 
-2.169833 0.659169 0.000000 
-2.188987 0.597416 0.000000 
-2.218663 0.546170 0.000000 
-2.229021 0.490297 0.000000 
-2.997130 1.867111 0.000000 
-3.021908 1.768973 0.000000 
-2.902046 1.835604 0.000000 
-0.770600 -0.165549 0.000000 
-0.790096 -0.073891 0.000000 
-0.811857 0.006817 0.000000 
-0.835807 0.085381 0.000000 
-0.859157 0.155509 0.000000 
-0.881226 0.215560 0.000000 
-0.903169 0.274911 0.000000 
-0.928196 0.338955 0.000000 
-2.785442 1.803051 0.000000 
-2.944278 1.742309 0.000000 
-2.855014 1.705163 0.000000 
-2.796189 1.645083 0.000000 
-2.651235 1.788305 0.000000 
-2.517962 1.777958 0.000000 
-2.394240 1.768795 0.000000 
-2.275192 1.760798 0.000000 
-2.180847 1.736237 0.000000 
-2.099904 1.709758 0.000000 
-2.018420 1.678518 0.000000 
-1.945469 1.682816 0.000000 
-1.885190 1.716155 0.000000 
-1.829736 1.736724 0.000000 
-1.760875 1.761956 0.000000 
-1.680504 1.790380 0.000000 
-1.617798 1.808697 0.000000 
-1.570169 1.823221 0.000000 
-1.527149 1.837411 0.000000 
-1.482581 1.849540 0.000000 
-1.433927 1.856080 0.000000 
-1.386311 1.863995 0.000000 
-1.337319 1.872725 0.000000 
-1.286363 1.879805 0.000000 
-1.235962 1.880523 0.000000 
-1.188452 1.885336 0.000000 
-1.140860 1.894787 0.000000 
-1.091558 1.894096 0.000000 
-1.038962 1.883077 0.000000 
-0.982519 1.864079 0.000000 
-0.922315 1.847337 0.000000 
-0.869867 1.837012 0.000000 
-0.827747 1.830523 0.000000 
-0.785371 1.825611 0.000000 
-0.748025 1.815874 0.000000 
-0.712781 1.805607 0.000000 
-0.681690 1.791675 0.000000 
-0.657198 1.780541 0.000000 
-0.633895 1.773877 0.000000 
-0.612002 1.769422 0.000000 
-0.594184 1.762209 0.000000 
-0.577381 1.752759 0.000000 
-0.560109 1.737476 0.000000 
-0.540091 1.705021 0.000000 
-1.243914 0.066176 0.000000 
-1.232782 0.079892 0.000000 
-1.257376 0.051822 0.000000 
-1.224378 0.098592 0.000000 
-1.271472 0.032476 0.000000 
-1.215702 0.120589 0.000000 
-1.204660 0.146645 0.000000 
-1.290143 0.004734 0.000000 
-1.314447 -0.040305 0.000000 
-1.190204 0.176952 0.000000 
-1.318041 -0.093660 0.000000 
-1.171655 0.211108 0.000000 
-1.149359 0.247422 0.000000 
-1.123094 0.285671 0.000000 
-1.284246 -0.143639 0.000000 
-1.239750 -0.194366 0.000000 
-1.083297 0.329662 0.000000 
-1.028190 0.361334 0.000000 
-1.181630 -0.236722 0.000000 
-1.112789 -0.268149 0.000000 
-1.040643 -0.280320 0.000000 
-0.978118 -0.283406 0.000000 
-0.927392 -0.296432 0.000000 
-0.889718 -0.335566 0.000000 
-0.873564 -0.392117 0.000000 
-0.920771 -0.424311 0.000000 
-0.935346 -0.357042 0.000000 
-0.991249 -0.433887 0.000000 
-1.088918 -0.431158 0.000000 
-1.067426 -0.351506 0.000000 
-1.189474 -0.423595 0.000000 
-1.147229 -0.338839 0.000000 
-1.266509 -0.400305 0.000000 
-1.219913 -0.312662 0.000000 
-1.335307 -0.364478 0.000000 
-1.284456 -0.274663 0.000000 
-1.402357 -0.320575 0.000000 
-1.341444 -0.226862 0.000000 
-1.466758 -0.267899 0.000000 
-1.539152 -0.207100 0.000000 
-1.393011 -0.168931 0.000000 
-1.612839 -0.136829 0.000000 
-1.665320 -0.079250 0.000000 
-1.691220 -0.014424 0.000000 
-1.704696 0.071070 0.000000 
-1.850073 0.237939 0.000000 
-1.911042 0.182114 0.000000 
-1.969645 0.125278 0.000000 
-1.726970 0.177481 0.000000 
-0.222881 0.385311 0.000000 
-0.195707 0.357727 0.000000 
-0.164205 0.320780 0.000000 
-0.127520 0.288082 0.000000 
-0.095686 0.258591 0.000000 
-0.059027 0.230113 0.000000 
-0.018954 0.200129 0.000000 
0.030296 0.168858 0.000000 
0.086536 0.148332 0.000000 
0.141893 0.129601 0.000000 
0.202102 0.100321 0.000000 
0.263408 0.060404 0.000000 
0.311661 0.010418 0.000000 
0.333954 -0.049205 0.000000 
0.338621 -0.109655 0.000000 
0.341530 -0.163594 0.000000 
0.353165 -0.213782 0.000000 
0.365710 -0.272205 0.000000 
0.363543 -0.341734 0.000000 
[...]
POINT_DATA 899 
VECTORS X_GC float 
-3.648847 2.325330 0.000000 
-3.619410 2.284778 0.000000 
-3.578536 2.249184 0.000000 
-3.540028 2.213533 0.000000 
-3.511690 2.181337 0.000000 
-3.481362 2.151479 0.000000 
-3.451569 2.110806 0.000000 
0.772356 2.227844 0.000000 
0.774615 2.201723 0.000000 
0.769962 2.172969 0.000000 
-3.399514 2.080530 0.000000 
0.413960 -0.564312 0.000000 
0.455573 -0.560010 0.000000 
-1.762619 -0.464208 0.000000 
-1.783389 -0.428812 0.000000 
-1.714437 -0.400022 0.000000 
0.732567 2.222169 0.000000 
0.698438 2.208333 0.000000 
0.491831 -0.545807 0.000000 
0.519501 -0.515402 0.000000 
0.530556 -0.474955 0.000000 
0.532354 -0.429151 0.000000 
0.531774 -0.378644 0.000000 
-3.460923 2.018797 0.000000 
0.663989 2.186386 0.000000 
0.631675 2.158992 0.000000 
0.601833 2.134936 0.000000 
0.569607 2.111679 0.000000 
0.534059 2.089601 0.000000 
0.492599 2.068461 0.000000 
0.444403 2.049796 0.000000 
0.762807 2.131995 0.000000 
-1.708694 -0.365640 0.000000 
-1.726386 -0.325376 0.000000 
-1.761257 -0.301356 0.000000 
-1.812853 -0.293507 0.000000 
-0.690422 -0.545843 0.000000 
-0.624256 -0.563770 0.000000 
-0.561079 -0.571952 0.000000 
-0.500739 -0.573408 0.000000 
-0.445387 -0.573470 0.000000 
0.532260 -0.319561 0.000000 
0.536647 -0.250227 0.000000 
-1.881389 -0.281007 0.000000 
-0.389303 -0.571195 0.000000 
-0.340338 -0.555910 0.000000 
-0.344339 -0.501775 0.000000 
-0.358558 -0.449235 0.000000 
-0.381750 -0.408324 0.000000 
-0.406193 -0.374149 0.000000 
-0.417316 -0.342651 0.000000 
-0.428320 -0.308394 0.000000 
-0.436973 -0.264130 0.000000 
-0.444212 -0.208587 0.000000 
-0.452662 -0.149729 0.000000 
-0.468602 -0.092830 0.000000 
0.553166 -0.185512 0.000000 
0.573193 -0.127841 0.000000 
0.574450 -0.076101 0.000000 
0.561087 -0.025781 0.000000 
0.550432 0.029542 0.000000 
0.748903 2.078677 0.000000 
0.730940 2.022184 0.000000 
0.715868 1.976025 0.000000 
0.699446 1.939897 0.000000 
0.684888 1.898908 0.000000 
0.675900 1.852703 0.000000 
0.669871 1.803143 0.000000 
0.664455 1.755286 0.000000 
0.668163 1.708867 0.000000 
0.672091 1.659033 0.000000 
0.674558 1.611010 0.000000 
0.673045 1.560931 0.000000 
0.386491 2.040116 0.000000 
0.664855 1.502192 0.000000 
0.652298 1.444114 0.000000 
0.638456 1.390464 0.000000 
0.623121 1.340954 0.000000 
0.616008 1.297927 0.000000 
0.600787 1.262985 0.000000 
0.571289 1.233536 0.000000 
0.539016 1.202375 0.000000 
0.513857 1.173476 0.000000 
0.493343 1.147240 0.000000 
0.469109 1.129428 0.000000 
0.444920 1.112983 0.000000 
0.415324 1.092018 0.000000 
0.383540 1.067265 0.000000 
0.356179 1.037933 0.000000 
0.343879 0.999033 0.000000 
0.337476 0.953513 0.000000 
0.332404 0.908227 0.000000 
0.328512 0.868537 0.000000 
0.319594 0.832457 0.000000 
0.304149 0.799046 0.000000 
0.290502 0.758655 0.000000 
0.275896 0.710793 0.000000 
0.261905 0.668824 0.000000 
0.250150 0.635229 0.000000 
0.250896 0.597424 0.000000 
0.259587 0.554820 0.000000 
0.284617 0.512047 0.000000 
0.315237 0.482386 0.000000 
0.340022 0.462949 0.000000 
0.354380 0.437100 0.000000 
0.368685 0.409958 0.000000 
0.385568 0.383561 0.000000 
0.415372 0.358765 0.000000 
0.447119 0.327052 0.000000 
0.477633 0.299136 0.000000 
0.503078 0.271199 0.000000 
0.518876 0.233145 0.000000 
0.527127 0.197176 0.000000 
0.534187 0.152631 0.000000 
0.543185 0.091851 0.000000 
0.322519 2.029060 0.000000 
0.263849 2.015943 0.000000 
0.208223 2.010524 0.000000 
0.150441 2.006695 0.000000 
-0.687392 -0.472775 0.000000 
-3.327058 2.054298 0.000000 
-3.276080 2.007876 0.000000 
-3.224941 1.974290 0.000000 
-3.181728 1.945131 0.000000 
-3.135074 1.908201 0.000000 
-3.078123 1.883908 0.000000 
-1.944260 -0.236128 0.000000 
0.083204 2.011851 0.000000 
0.005786 2.006498 0.000000 
-0.071812 2.015737 0.000000 
-0.135705 2.045278 0.000000 
-0.182391 2.086884 0.000000 
-1.999041 -0.165160 0.000000 
-1.843230 -0.439668 0.000000 
-0.491126 -0.028870 0.000000 
-0.512312 0.044373 0.000000 
-0.526535 0.107205 0.000000 
-0.527935 0.169327 0.000000 
-0.524207 0.236497 0.000000 
-0.505864 0.293629 0.000000 
-0.468875 0.342841 0.000000 
-0.410369 0.372086 0.000000 
-0.354013 0.393203 0.000000 
-0.301050 0.403149 0.000000 
-0.255730 0.403921 0.000000 
-0.695595 -0.394480 0.000000 
-0.726457 -0.317598 0.000000 
-0.747352 -0.248143 0.000000 
-3.396487 1.997162 0.000000 
-3.344056 1.917775 0.000000 
-3.294256 1.874374 0.000000 
-3.248246 1.836049 0.000000 
-3.196818 1.796696 0.000000 
-3.159669 1.745386 0.000000 
-3.113281 1.698681 0.000000 
-3.056061 1.679118 0.000000 
-2.996684 1.656493 0.000000 
-2.933161 1.626877 0.000000 
-2.879064 1.590734 0.000000 
-2.813006 1.565948 0.000000 
-2.751664 1.542898 0.000000 
-2.686782 1.513575 0.000000 
-1.922020 -0.436862 0.000000 
-1.999705 -0.438361 0.000000 
-2.060018 -0.416757 0.000000 
-2.032615 -0.081769 0.000000 
-2.048550 0.003953 0.000000 
-2.029059 0.069846 0.000000 
-2.105228 -0.359698 0.000000 
-2.154373 -0.292104 0.000000 
-2.203584 -0.237480 0.000000 
-2.237020 -0.176045 0.000000 
-2.250593 -0.110752 0.000000 
-2.270119 -0.038968 0.000000 
-2.297898 0.031342 0.000000 
-2.327118 0.092922 0.000000 
-2.346747 0.146892 0.000000 
-2.362840 0.200002 0.000000 
-2.374561 0.251046 0.000000 
-2.373128 0.303022 0.000000 
-2.334174 0.369612 0.000000 
-2.331842 0.410230 0.000000 
-2.284565 0.418989 0.000000 
-0.236368 2.136419 0.000000 
-0.299146 2.180246 0.000000 
-0.346614 2.200171 0.000000 
-0.382877 2.163668 0.000000 
-0.412447 2.134618 0.000000 
-0.433989 2.094331 0.000000 
-0.446472 2.051364 0.000000 
-0.451628 2.012046 0.000000 
-0.451047 1.973584 0.000000 
-0.449242 1.937580 0.000000 
-0.453345 1.905691 0.000000 
-0.460251 1.877997 0.000000 
-0.470304 1.849212 0.000000 
-0.475290 1.819722 0.000000 
-0.478341 1.789937 0.000000 
-0.479442 1.753201 0.000000 
-2.609147 1.499786 0.000000 
-2.517189 1.494288 0.000000 
-2.434013 1.494624 0.000000 
-2.352624 1.484593 0.000000 
-2.274410 1.465222 0.000000 
-2.204499 1.430573 0.000000 
-2.180326 1.361690 0.000000 
-2.178559 1.273154 0.000000 
-2.168273 1.183125 0.000000 
-2.159086 1.085061 0.000000 
-2.144575 0.995903 0.000000 
-2.163040 0.920685 0.000000 
-2.183612 0.846594 0.000000 
-2.172907 0.782036 0.000000 
-2.161614 0.719281 0.000000 
-2.169833 0.659169 0.000000 
-2.188987 0.597416 0.000000 
-2.218663 0.546170 0.000000 
-2.229021 0.490297 0.000000 
-2.997130 1.867111 0.000000 
-3.021908 1.768973 0.000000 
-2.902046 1.835604 0.000000 
-0.770600 -0.165549 0.000000 
-0.790096 -0.073891 0.000000 
-0.811857 0.006817 0.000000 
-0.835807 0.085381 0.000000 
-0.859157 0.155509 0.000000 
-0.881226 0.215560 0.000000 
-0.903169 0.274911 0.000000 
-0.928196 0.338955 0.000000 
-2.785442 1.803051 0.000000 
-2.944278 1.742309 0.000000 
-2.855014 1.705163 0.000000 
-2.796189 1.645083 0.000000 
-2.651235 1.788305 0.000000 
-2.517962 1.777958 0.000000 
-2.394240 1.768795 0.000000 
-2.275192 1.760798 0.000000 
-2.180847 1.736237 0.000000 
-2.099904 1.709758 0.000000 
-2.018420 1.678518 0.000000 
-1.945469 1.682816 0.000000 
-1.885190 1.716155 0.000000 
-1.829736 1.736724 0.000000 
-1.760875 1.761956 0.000000 
-1.680504 1.790380 0.000000 
-1.617798 1.808697 0.000000 
-1.570169 1.823221 0.000000 
-1.527149 1.837411 0.000000 
-1.482581 1.849540 0.000000 
-1.433927 1.856080 0.000000 
-1.386311 1.863995 0.000000 
-1.337319 1.872725 0.000000 
-1.286363 1.879805 0.000000 
-1.235962 1.880523 0.000000 
-1.188452 1.885336 0.000000 
-1.140860 1.894787 0.000000 
-1.091558 1.894096 0.000000 
-1.038962 1.883077 0.000000 
-0.982519 1.864079 0.000000 
-0.922315 1.847337 0.000000 
-0.869867 1.837012 0.000000 
-0.827747 1.830523 0.000000 
-0.785371 1.825611 0.000000 
-0.748025 1.815874 0.000000 
-0.712781 1.805607 0.000000 
-0.681690 1.791675 0.000000 
-0.657198 1.780541 0.000000 
-0.633895 1.773877 0.000000 
-0.612002 1.769422 0.000000 
-0.594184 1.762209 0.000000 
-0.577381 1.752759 0.000000 
-0.560109 1.737476 0.000000 
-0.540091 1.705021 0.000000 
-1.243914 0.066176 0.000000 
-1.232782 0.079892 0.000000 
-1.257376 0.051822 0.000000 
-1.224378 0.098592 0.000000 
-1.271472 0.032476 0.000000 
-1.215702 0.120589 0.000000 
-1.204660 0.146645 0.000000 
-1.290143 0.004734 0.000000 
-1.314447 -0.040305 0.000000 
-1.190204 0.176952 0.000000 
-1.318041 -0.093660 0.000000 
-1.171655 0.211108 0.000000 
-1.149359 0.247422 0.000000 
-1.123094 0.285671 0.000000 
-1.284246 -0.143639 0.000000 
-1.239750 -0.194366 0.000000 
-1.083297 0.329662 0.000000 
-1.028190 0.361334 0.000000 
-1.181630 -0.236722 0.000000 
-1.112789 -0.268149 0.000000 
-1.040643 -0.280320 0.000000 
-0.978118 -0.283406 0.000000 
-0.927392 -0.296432 0.000000 
-0.889718 -0.335566 0.000000 
-0.873564 -0.392117 0.000000 
-0.920771 -0.424311 0.000000 
-0.935346 -0.357042 0.000000 
-0.991249 -0.433887 0.000000 
-1.088918 -0.431158 0.000000 
-1.067426 -0.351506 0.000000 
-1.189474 -0.423595 0.000000 
-1.147229 -0.338839 0.000000 
-1.266509 -0.400305 0.000000 
-1.219913 -0.312662 0.000000 
-1.335307 -0.364478 0.000000 
-1.284456 -0.274663 0.000000 
-1.402357 -0.320575 0.000000 
-1.341444 -0.226862 0.000000 
-1.466758 -0.267899 0.000000 
-1.539152 -0.207100 0.000000 
-1.393011 -0.168931 0.000000 
-1.612839 -0.136829 0.000000 
-1.665320 -0.079250 0.000000 
-1.691220 -0.014424 0.000000 
-1.704696 0.071070 0.000000 
-1.850073 0.237939 0.000000 
-1.911042 0.182114 0.000000 
-1.969645 0.125278 0.000000 
-1.726970 0.177481 0.000000 
-0.222881 0.385311 0.000000 
-0.195707 0.357727 0.000000 
-0.164205 0.320780 0.000000 
-0.127520 0.288082 0.000000 
-0.095686 0.258591 0.000000 
-0.059027 0.230113 0.000000 
-0.018954 0.200129 0.000000 
0.030296 0.168858 0.000000 
0.086536 0.148332 0.000000 
0.141893 0.129601 0.000000 
0.202102 0.100321 0.000000 
0.263408 0.060404 0.000000 
0.311661 0.010418 0.000000 
0.333954 -0.049205 0.000000 
0.338621 -0.109655 0.000000 
0.341530 -0.163594 0.000000 
0.353165 -0.213782 0.000000 
0.365710 -0.272205 0.000000 
0.363543 -0.341734 0.000000 
0.357353 -0.403848 0.000000 
0.351188 -0.454591 0.000000 
0.363842 -0.501619 0.000000 
-1.737069 -0.368270 0.000000 
-0.199590 0.437928 0.000000 
-0.156305 0.408012 0.000000 
-0.462327 1.673968 0.000000 
0.741313 2.196542 0.000000 
0.482415 -0.512390 0.000000 
0.446104 -0.520286 0.000000 
0.403556 -0.525940 0.000000 
-0.104001 0.379947 0.000000 
-0.514998 1.606022 0.000000 
-0.059937 0.345542 0.000000 
0.738519 2.171277 0.000000 
0.714572 2.183577 0.000000 
-0.249752 0.464751 0.000000 
-0.036232 0.301744 0.000000 
0.000772 0.273911 0.000000 
0.035161 0.248267 0.000000 
-1.776537 -0.367712 0.000000 
-1.836238 -0.363527 0.000000 
-0.309416 0.478851 0.000000 
-0.378944 0.476587 0.000000 
-2.292732 0.356175 0.000000 
-2.315166 0.306184 0.000000 
-2.314418 0.258627 0.000000 
-2.293418 0.212241 0.000000 
-2.279687 0.162362 0.000000 
-2.253462 0.115097 0.000000 
0.075120 0.220524 0.000000 
0.131113 0.207916 0.000000 
-0.977004 0.409900 0.000000 
-0.860050 0.399734 0.000000 
-1.912142 -0.355470 0.000000 
-1.989966 -0.364251 0.000000 
-2.023752 -0.296709 0.000000 
-2.082175 -0.225448 0.000000 
0.723889 2.139764 0.000000 
0.691466 2.158607 0.000000 
0.665980 2.125960 0.000000 
0.704783 2.098692 0.000000 
0.637970 2.087902 0.000000 
0.681732 2.051483 0.000000 
0.670916 2.005308 0.000000 
0.602858 2.056234 0.000000 
0.659584 1.964884 0.000000 
0.560783 2.029863 0.000000 
0.636111 1.928810 0.000000 
0.607495 1.879019 0.000000 
0.595324 1.815538 0.000000 
0.604052 1.750865 0.000000 
0.514160 2.000460 0.000000 
0.453857 1.973015 0.000000 
0.392525 1.971036 0.000000 
0.334098 1.969508 0.000000 
0.278675 1.950754 0.000000 
0.217273 1.932679 0.000000 
0.149449 1.915323 0.000000 
0.614128 1.698590 0.000000 
0.621313 1.651010 0.000000 
0.624262 1.606130 0.000000 
-2.197766 0.061908 0.000000 
-2.158682 -0.013016 0.000000 
-2.124695 0.121238 0.000000 
-2.150589 -0.179142 0.000000 
-2.141926 -0.101596 0.000000 
-0.393439 -0.518156 0.000000 
-0.412631 -0.474113 0.000000 
-0.436983 -0.433510 0.000000 
-0.445953 -0.390090 0.000000 
-0.458251 -0.357264 0.000000 
-0.479726 -0.322498 0.000000 
-0.496934 -0.273767 0.000000 
-0.509002 -0.218683 0.000000 
-0.517157 -0.164353 0.000000 
-0.545309 -0.113077 0.000000 
-0.442273 -0.515551 0.000000 
-0.496002 -0.506033 0.000000 
-0.557668 -0.508140 0.000000 
-0.618975 -0.492660 0.000000 
-0.334659 2.138358 0.000000 
-0.367985 2.108641 0.000000 
-0.385153 2.072215 0.000000 
-0.396797 2.038348 0.000000 
-0.406285 2.002826 0.000000 
-0.402558 1.963693 0.000000 
-0.406645 1.925249 0.000000 
-0.418378 1.892835 0.000000 
-0.428059 1.863710 0.000000 
-0.435849 1.834162 0.000000 
-0.442335 1.804127 0.000000 
-0.445406 1.771062 0.000000 
-0.444483 1.725346 0.000000 
0.619822 1.560398 0.000000 
-1.077870 0.456963 0.000000 
-1.149036 0.415005 0.000000 
-1.174735 0.340162 0.000000 
-1.192231 0.288439 0.000000 
-1.210811 0.246662 0.000000 
-1.228352 0.207323 0.000000 
-1.238869 0.169343 0.000000 
-1.244643 0.137845 0.000000 
-1.248534 0.112944 0.000000 
-1.252336 0.093657 0.000000 
-1.262323 0.080405 0.000000 
-1.280319 0.069489 0.000000 
-0.451814 0.453927 0.000000 
-0.526928 0.410405 0.000000 
0.194935 0.190924 0.000000 
0.069048 1.901224 0.000000 
-0.574175 0.339721 0.000000 
-0.593607 0.258618 0.000000 
-1.764101 0.298303 0.000000 
-2.210991 0.417159 0.000000 
-0.825996 0.314457 0.000000 
-0.799223 0.243377 0.000000 
-0.760911 0.176943 0.000000 
0.605964 1.509447 0.000000 
0.587834 1.452087 0.000000 
0.576354 1.392238 0.000000 
0.574971 1.337230 0.000000 
0.580375 1.294205 0.000000 
0.545179 1.271821 0.000000 
0.509957 1.239559 0.000000 
0.484198 1.203156 0.000000 
0.468721 1.172002 0.000000 
0.449386 1.153471 0.000000 
0.422962 1.140806 0.000000 
0.391379 1.121655 0.000000 
0.357154 1.097591 0.000000 
0.323730 1.069219 0.000000 
-0.582151 -0.052210 0.000000 
0.265957 0.164494 0.000000 
0.333763 0.118365 0.000000 
0.378371 0.051349 0.000000 
0.400918 -0.023046 0.000000 
0.401084 -0.086035 0.000000 
0.404345 -0.140136 0.000000 
0.432648 -0.191218 0.000000 
0.450030 -0.255659 0.000000 
0.529803 -0.102505 0.000000 
0.491947 -0.150643 0.000000 
0.453243 -0.100759 0.000000 
0.449550 -0.329983 0.000000 
0.498420 -0.056632 0.000000 
0.474171 0.003309 0.000000 
0.457863 0.077883 0.000000 
0.462195 -0.388637 0.000000 
0.478704 -0.434973 0.000000 
0.483460 -0.475939 0.000000 
0.412910 -0.414278 0.000000 
0.398390 -0.452992 0.000000 
0.404290 -0.487279 0.000000 
0.442452 -0.482721 0.000000 
0.436659 -0.447557 0.000000 
-0.727378 0.102810 0.000000 
-0.616071 0.184829 0.000000 
-0.623548 0.110548 0.000000 
-0.605779 0.029540 0.000000 
-0.706340 0.017092 0.000000 
-0.681483 -0.069170 0.000000 
-0.032304 1.895663 0.000000 
-0.128010 1.931812 0.000000 
-0.195732 1.998936 0.000000 
-0.243911 2.052850 0.000000 
-0.287859 2.100254 0.000000 
-0.335518 2.072558 0.000000 
-0.667608 -0.154551 0.000000 
-0.584906 -0.161318 0.000000 
-0.658169 -0.234559 0.000000 
-0.578442 -0.226689 0.000000 
-0.639050 -0.306002 0.000000 
-0.607982 -0.381519 0.000000 
-0.562541 -0.289388 0.000000 
-0.536184 -0.350412 0.000000 
-0.495978 -0.388373 0.000000 
-0.500680 -0.440768 0.000000 
-0.573051 -0.445221 0.000000 
-2.690892 1.668957 0.000000 
-2.684799 1.582944 0.000000 
-2.602920 1.581682 0.000000 
-2.574381 1.666675 0.000000 
-2.518122 1.601550 0.000000 
-2.424460 1.625448 0.000000 
-2.320006 1.616516 0.000000 
-2.229986 1.592899 0.000000 
-2.146342 1.551659 0.000000 
-1.455055 -0.109950 0.000000 
-1.387692 -0.029626 0.000000 
-1.339496 0.023702 0.000000 
-1.304977 0.052262 0.000000 
-1.531301 -0.044457 0.000000 
-1.604385 -0.000345 0.000000 
-1.592423 0.100336 0.000000 
-1.608296 0.224299 0.000000 
-1.827918 0.422745 0.000000 
0.477873 0.191548 0.000000 
0.477147 0.226446 0.000000 
0.465631 0.260686 0.000000 
-0.587742 1.704896 0.000000 
-0.593403 1.728999 0.000000 
-0.604579 1.741655 0.000000 
-0.619289 1.747341 0.000000 
-0.639577 1.745168 0.000000 
-0.665912 1.746784 0.000000 
-0.697937 1.753771 0.000000 
-0.595692 1.651407 0.000000 
-0.726123 1.768582 0.000000 
-0.757398 1.779153 0.000000 
-0.794522 1.776578 0.000000 
-0.841416 1.774000 0.000000 
-0.894922 1.775360 0.000000 
-0.956071 1.783776 0.000000 
-1.020951 1.802698 0.000000 
-1.077937 1.830332 0.000000 
-1.120258 1.859061 0.000000 
-1.171769 1.834800 0.000000 
0.332207 0.388191 0.000000 
0.333662 0.346456 0.000000 
0.321472 0.416808 0.000000 
0.302407 0.443621 0.000000 
0.214022 0.458283 0.000000 
0.194081 0.519307 0.000000 
0.186716 0.574820 0.000000 
0.189303 0.627592 0.000000 
0.360023 0.306774 0.000000 
0.405131 0.281641 0.000000 
0.201671 0.676838 0.000000 
0.218038 0.727099 0.000000 
0.236652 0.776033 0.000000 
0.256885 0.817967 0.000000 
0.278373 0.846461 0.000000 
0.284019 0.879859 0.000000 
0.276718 0.926606 0.000000 
0.278735 0.983419 0.000000 
0.296322 1.033686 0.000000 
-1.507867 1.786558 0.000000 
-1.548116 1.761916 0.000000 
-1.598023 1.734536 0.000000 
-1.467251 1.801332 0.000000 
-1.422160 1.808615 0.000000 
-1.373311 1.815332 0.000000 
-1.322903 1.823108 0.000000 
-1.275577 1.832354 0.000000 
-1.225048 1.830955 0.000000 
-1.662214 1.710867 0.000000 
-1.732600 1.690927 0.000000 
-1.794687 1.676552 0.000000 
-1.841773 1.647365 0.000000 
-2.078405 0.714637 0.000000 
-2.079214 0.793227 0.000000 
-2.097651 0.637037 0.000000 
-2.129318 0.565298 0.000000 
-2.096743 0.873789 0.000000 
-2.169699 0.509955 0.000000 
-1.991686 0.436955 0.000000 
-1.642187 0.362511 0.000000 
-1.989898 0.269730 0.000000 
-2.064526 0.197917 0.000000 
-1.914688 0.343264 0.000000 
-2.037969 1.126341 0.000000 
-2.021377 1.010656 0.000000 
-2.055796 1.255503 0.000000 
-2.102728 1.358156 0.000000 
-2.047875 1.500458 0.000000 
0.428030 0.247189 0.000000 
0.375625 0.225953 0.000000 
0.313454 0.239054 0.000000 
0.290352 0.385089 0.000000 
0.238487 1.096006 0.000000 
0.440631 0.209081 0.000000 
0.396678 0.169304 0.000000 
0.460488 0.143384 0.000000 
0.523747 1.319496 0.000000 
-2.262588 0.282751 0.000000 
-2.220468 0.338778 0.000000 
-2.218579 0.229240 0.000000 
-2.146376 0.281090 0.000000 
-2.206503 0.164169 0.000000 
0.473879 1.280884 0.000000 
0.446488 1.228553 0.000000 
0.440978 1.184534 0.000000 
0.409581 1.176679 0.000000 
0.629179 2.005574 0.000000 
0.593839 1.973101 0.000000 
0.550362 1.928897 0.000000 
0.483841 1.888474 0.000000 
0.202470 1.029642 0.000000 
0.241245 0.881866 0.000000 
0.205152 0.857066 0.000000 
0.175878 0.808925 0.000000 
0.153326 0.750419 0.000000 
0.132079 0.689969 0.000000 
0.113278 0.625513 0.000000 
0.106000 0.557190 0.000000 
0.109640 0.487993 0.000000 
0.121648 0.417315 0.000000 
0.032483 0.327701 0.000000 
0.246820 0.410379 0.000000 
0.099619 0.276066 0.000000 
0.373127 1.161796 0.000000 
-0.307911 2.024936 0.000000 
-0.360136 2.006467 0.000000 
-0.343252 1.952121 0.000000 
-0.270247 1.960265 0.000000 
0.168337 0.272585 0.000000 
0.242346 0.262247 0.000000 
0.270369 0.331284 0.000000 
0.505525 1.387257 0.000000 
-0.689828 0.214512 0.000000 
-0.729540 0.271916 0.000000 
-0.746154 0.346389 0.000000 
-0.657668 0.362953 0.000000 
-0.661195 0.278666 0.000000 
-0.924642 0.515629 0.000000 
-1.137284 1.778992 0.000000 
-1.072920 1.734398 0.000000 
-1.248127 1.791289 0.000000 
-1.304069 1.774967 0.000000 
-1.360197 1.767307 0.000000 
-1.411221 1.763167 0.000000 
-1.453165 1.759937 0.000000 
-1.486003 1.742475 0.000000 
-1.510814 1.699006 0.000000 
-1.558800 1.654337 0.000000 
-0.995058 1.707645 0.000000 
-0.919611 1.697169 0.000000 
-0.852227 1.704101 0.000000 
-0.796966 1.720619 0.000000 
-0.752732 1.739788 0.000000 
-1.635591 1.627004 0.000000 
-1.992480 0.901706 0.000000 
-1.965104 0.791926 0.000000 
-1.974377 0.688594 0.000000 
-2.014368 0.594972 0.000000 
-2.065453 0.511786 0.000000 
-2.071492 0.358719 0.000000 
-2.131272 0.442255 0.000000 
-1.712039 1.613681 0.000000 
-1.781280 1.613632 0.000000 
-1.884796 1.583575 0.000000 
0.516332 1.803238 0.000000 
0.538779 1.732109 0.000000 
0.517174 1.461643 0.000000 
0.552532 1.523579 0.000000 
0.576896 1.565506 0.000000 
0.583356 1.602532 0.000000 
0.576083 1.639536 0.000000 
0.562288 1.681896 0.000000 