# vtk DataFile Version 3.0 
vtk output 
ASCII 
DATASET UNSTRUCTURED_GRID 
POINTS 899 float 
-3.648847 2.143600 0.000000 
-3.619410 2.103048 0.000000 
-3.578536 2.067453 0.000000 
-3.540028 2.031803 0.000000 
-3.511690 1.999607 0.000000 
-3.481362 1.969749 0.000000 
-3.451569 1.929075 0.000000 
0.772356 2.046114 0.000000 
0.774615 2.019993 0.000000 
0.769962 1.991239 0.000000 
-3.399514 1.898799 0.000000 
0.413960 -0.746043 0.000000 
0.455573 -0.741740 0.000000 
-1.762619 -0.645938 0.000000 
-1.783389 -0.610542 0.000000 
-1.714437 -0.581753 0.000000 
0.732567 2.040439 0.000000 
0.698438 2.026602 0.000000 
0.491831 -0.727537 0.000000 
0.519501 -0.697132 0.000000 
0.530556 -0.656686 0.000000 
0.532354 -0.610881 0.000000 
0.531774 -0.560375 0.000000 
-3.460923 1.837067 0.000000 
0.663989 2.004656 0.000000 
0.631675 1.977261 0.000000 
0.601833 1.953206 0.000000 
0.569607 1.929948 0.000000 
0.534059 1.907871 0.000000 
0.492599 1.886731 0.000000 
0.444403 1.868066 0.000000 
0.762807 1.950264 0.000000 
-1.708694 -0.547370 0.000000 
-1.726386 -0.507107 0.000000 
-1.761257 -0.483086 0.000000 
-1.812853 -0.475238 0.000000 
-0.690785 -0.727438 0.000000 
-0.624488 -0.745326 0.000000 
-0.561189 -0.754154 0.000000 
-0.500670 -0.756086 0.000000 
-0.445139 -0.756217 0.000000 
0.532260 -0.501291 0.000000 
0.536647 -0.431958 0.000000 
-1.881389 -0.462737 0.000000 
-0.388888 -0.753195 0.000000 
-0.339816 -0.737391 0.000000 
-0.343940 -0.683307 0.000000 
-0.358290 -0.630818 0.000000 
-0.381586 -0.589947 0.000000 
-0.406103 -0.555805 0.000000 
-0.417272 -0.524337 0.000000 
-0.428310 -0.490105 0.000000 
-0.436965 -0.445845 0.000000 
-0.444206 -0.390307 0.000000 
-0.452657 -0.331453 0.000000 
-0.468600 -0.274558 0.000000 
0.553166 -0.367243 0.000000 
0.573193 -0.309572 0.000000 
0.574450 -0.257831 0.000000 
0.561087 -0.207511 0.000000 
0.550432 -0.152188 0.000000 
0.748903 1.896947 0.000000 
0.730940 1.840454 0.000000 
0.715868 1.794295 0.000000 
0.699446 1.758167 0.000000 
0.684888 1.717177 0.000000 
0.675900 1.670973 0.000000 
0.669871 1.621413 0.000000 
0.664455 1.573556 0.000000 
0.668163 1.527137 0.000000 
0.672091 1.477303 0.000000 
0.674558 1.429280 0.000000 
0.673045 1.379200 0.000000 
0.386491 1.858386 0.000000 
0.664855 1.320462 0.000000 
0.652298 1.262384 0.000000 
0.638456 1.208734 0.000000 
0.623121 1.159224 0.000000 
0.616008 1.116197 0.000000 
0.600787 1.081254 0.000000 
0.571289 1.051806 0.000000 
0.539016 1.020644 0.000000 
0.513857 0.991745 0.000000 
0.493343 0.965510 0.000000 
0.469109 0.947698 0.000000 
0.444920 0.931253 0.000000 
0.415324 0.910287 0.000000 
0.383540 0.885535 0.000000 
0.356179 0.856203 0.000000 
0.343879 0.817303 0.000000 
0.337476 0.771783 0.000000 
0.332404 0.726496 0.000000 
0.328512 0.686806 0.000000 
0.319594 0.650727 0.000000 
0.304149 0.617316 0.000000 
0.290502 0.576925 0.000000 
0.275896 0.529063 0.000000 
0.261905 0.487094 0.000000 
0.250150 0.453498 0.000000 
0.250896 0.415693 0.000000 
0.259587 0.373090 0.000000 
0.284617 0.330317 0.000000 
0.315237 0.300656 0.000000 
0.340022 0.281219 0.000000 
0.354380 0.255370 0.000000 
0.368685 0.228227 0.000000 
0.385568 0.201831 0.000000 
0.415372 0.177034 0.000000 
0.447119 0.145322 0.000000 
0.477633 0.117405 0.000000 
0.503078 0.089469 0.000000 
0.518876 0.051415 0.000000 
0.527127 0.015446 0.000000 
0.534187 -0.029099 0.000000 
0.543185 -0.089879 0.000000 
0.322519 1.847330 0.000000 
0.263849 1.834213 0.000000 
0.208223 1.828794 0.000000 
0.150441 1.824965 0.000000 
-0.687638 -0.654410 0.000000 
-3.327058 1.872568 0.000000 
-3.276080 1.826146 0.000000 
-3.224941 1.792559 0.000000 
-3.181728 1.763401 0.000000 
-3.135074 1.726471 0.000000 
-3.078123 1.702178 0.000000 
-1.944260 -0.417859 0.000000 
0.083204 1.830121 0.000000 
0.005786 1.824768 0.000000 
-0.071812 1.834006 0.000000 
-0.135705 1.863548 0.000000 
-0.182391 1.905154 0.000000 
-1.999041 -0.346890 0.000000 
-1.843230 -0.621399 0.000000 
-0.491126 -0.210600 0.000000 
-0.512311 -0.137357 0.000000 
-0.526535 -0.074525 0.000000 
-0.527935 -0.012403 0.000000 
-0.524207 0.054767 0.000000 
-0.505864 0.111899 0.000000 
-0.468875 0.161111 0.000000 
-0.410369 0.190356 0.000000 
-0.354013 0.211473 0.000000 
-0.301050 0.221418 0.000000 
-0.255730 0.222191 0.000000 
-0.695730 -0.576160 0.000000 
-0.726473 -0.499322 0.000000 
-0.747361 -0.429870 0.000000 
-3.396487 1.815432 0.000000 
-3.344056 1.736044 0.000000 
-3.294256 1.692644 0.000000 
-3.248246 1.654319 0.000000 
-3.196818 1.614966 0.000000 
-3.159669 1.563655 0.000000 
-3.113281 1.516951 0.000000 
-3.056061 1.497388 0.000000 
-2.996684 1.474763 0.000000 
-2.933161 1.445146 0.000000 
-2.879064 1.409004 0.000000 
-2.813006 1.384218 0.000000 
-2.751664 1.361168 0.000000 
-2.686782 1.331845 0.000000 
-1.922020 -0.618592 0.000000 
-1.999705 -0.620091 0.000000 
-2.060018 -0.598487 0.000000 
-2.032615 -0.263500 0.000000 
-2.048550 -0.177778 0.000000 
-2.029059 -0.111885 0.000000 
-2.105228 -0.541429 0.000000 
-2.154373 -0.473834 0.000000 
-2.203584 -0.419210 0.000000 
-2.237020 -0.357775 0.000000 
-2.250593 -0.292482 0.000000 
-2.270119 -0.220698 0.000000 
-2.297898 -0.150388 0.000000 
-2.327118 -0.088808 0.000000 
-2.346747 -0.034838 0.000000 
-2.362840 0.018271 0.000000 
-2.374561 0.069316 0.000000 
-2.373128 0.121291 0.000000 
-2.334174 0.187882 0.000000 
-2.331842 0.228500 0.000000 
-2.284565 0.237259 0.000000 
-0.236368 1.954689 0.000000 
-0.299146 1.998516 0.000000 
-0.346614 2.018441 0.000000 
-0.382877 1.981938 0.000000 
-0.412447 1.952888 0.000000 
-0.433989 1.912600 0.000000 
-0.446472 1.869634 0.000000 
-0.451628 1.830316 0.000000 
-0.451047 1.791853 0.000000 
-0.449242 1.755850 0.000000 
-0.453345 1.723960 0.000000 
-0.460251 1.696267 0.000000 
-0.470304 1.667482 0.000000 
-0.475290 1.637992 0.000000 
-0.478341 1.608206 0.000000 
-0.479442 1.571470 0.000000 
-2.609147 1.318056 0.000000 
-2.517189 1.312557 0.000000 
-2.434013 1.312894 0.000000 
-2.352624 1.302862 0.000000 
-2.274410 1.283491 0.000000 
-2.204499 1.248843 0.000000 
-2.180326 1.179960 0.000000 
-2.178559 1.091424 0.000000 
-2.168273 1.001395 0.000000 
-2.159086 0.903331 0.000000 
-2.144575 0.814172 0.000000 
-2.163040 0.738955 0.000000 
-2.183612 0.664863 0.000000 
-2.172907 0.600306 0.000000 
-2.161614 0.537551 0.000000 
-2.169833 0.477439 0.000000 
-2.188987 0.415686 0.000000 
-2.218663 0.364440 0.000000 
-2.229021 0.308567 0.000000 
-2.997130 1.685381 0.000000 
-3.021908 1.587243 0.000000 
-2.902046 1.653874 0.000000 
-0.770606 -0.347278 0.000000 
-0.790098 -0.255620 0.000000 
-0.811858 -0.174912 0.000000 
-0.835807 -0.096348 0.000000 
-0.859158 -0.026221 0.000000 
-0.881226 0.033830 0.000000 
-0.903169 0.093181 0.000000 
-0.928196 0.157225 0.000000 
-2.785442 1.621321 0.000000 
-2.944278 1.560579 0.000000 
-2.855014 1.523433 0.000000 
-2.796189 1.463353 0.000000 
-2.651235 1.606574 0.000000 
-2.517962 1.596227 0.000000 
-2.394240 1.587065 0.000000 
-2.275192 1.579068 0.000000 
-2.180847 1.554507 0.000000 
-2.099904 1.528028 0.000000 
-2.018420 1.496788 0.000000 
-1.945469 1.501085 0.000000 
-1.885190 1.534425 0.000000 
-1.829736 1.554994 0.000000 
-1.760875 1.580225 0.000000 
-1.680504 1.608650 0.000000 
-1.617798 1.626967 0.000000 
-1.570169 1.641490 0.000000 
-1.527149 1.655680 0.000000 
-1.482581 1.667809 0.000000 
-1.433927 1.674350 0.000000 
-1.386311 1.682265 0.000000 
-1.337319 1.690995 0.000000 
-1.286363 1.698075 0.000000 
-1.235962 1.698792 0.000000 
-1.188452 1.703605 0.000000 
-1.140860 1.713056 0.000000 
-1.091558 1.712365 0.000000 
-1.038962 1.701347 0.000000 
-0.982519 1.682349 0.000000 
-0.922315 1.665607 0.000000 
-0.869867 1.655282 0.000000 
-0.827747 1.648792 0.000000 
-0.785371 1.643880 0.000000 
-0.748025 1.634143 0.000000 
-0.712781 1.623876 0.000000 
-0.681690 1.609945 0.000000 
-0.657198 1.598810 0.000000 
-0.633895 1.592147 0.000000 
-0.612002 1.587692 0.000000 
-0.594184 1.580479 0.000000 
-0.577381 1.571029 0.000000 
-0.560109 1.555745 0.000000 
-0.540091 1.523291 0.000000 
-1.243914 -0.115555 0.000000 
-1.232782 -0.101838 0.000000 
-1.257376 -0.129908 0.000000 
-1.224378 -0.083138 0.000000 
-1.271473 -0.149254 0.000000 
-1.215702 -0.061141 0.000000 
-1.204660 -0.035085 0.000000 
-1.290143 -0.176996 0.000000 
-1.314447 -0.222035 0.000000 
-1.190204 -0.004778 0.000000 
-1.318041 -0.275390 0.000000 
-1.171655 0.029378 0.000000 
-1.149359 0.065692 0.000000 
-1.123094 0.103941 0.000000 
-1.284246 -0.325369 0.000000 
-1.239751 -0.376095 0.000000 
-1.083297 0.147932 0.000000 
-1.028190 0.179603 0.000000 
-1.181632 -0.418451 0.000000 
-1.112794 -0.449878 0.000000 
-1.040651 -0.462047 0.000000 
-0.978127 -0.465133 0.000000 
-0.927401 -0.478159 0.000000 
-0.889748 -0.517289 0.000000 
-0.873658 -0.573827 0.000000 
-0.920857 -0.606026 0.000000 
-0.935380 -0.538766 0.000000 
-0.991271 -0.615618 0.000000 
-1.088927 -0.612891 0.000000 
-1.067434 -0.533236 0.000000 
-1.189477 -0.605327 0.000000 
-1.147234 -0.520569 0.000000 
-1.266510 -0.582036 0.000000 
-1.219915 -0.494392 0.000000 
-1.335308 -0.546209 0.000000 
-1.284456 -0.456393 0.000000 
-1.402358 -0.502305 0.000000 
-1.341444 -0.408593 0.000000 
-1.466758 -0.449629 0.000000 
-1.539152 -0.388830 0.000000 
-1.393011 -0.350662 0.000000 
-1.612839 -0.318559 0.000000 
-1.665320 -0.260981 0.000000 
-1.691220 -0.196154 0.000000 
-1.704696 -0.110660 0.000000 
-1.850073 0.056209 0.000000 
-1.911042 0.000384 0.000000 
-1.969645 -0.056453 0.000000 
-1.726970 -0.004249 0.000000 
-0.222881 0.203580 0.000000 
-0.195707 0.175997 0.000000 
-0.164205 0.139050 0.000000 
-0.127520 0.106352 0.000000 
-0.095686 0.076860 0.000000 
-0.059027 0.048382 0.000000 
-0.018954 0.018399 0.000000 
0.030296 -0.012872 0.000000 
0.086536 -0.033398 0.000000 
0.141893 -0.052129 0.000000 
0.202102 -0.081409 0.000000 
0.263408 -0.121326 0.000000 
0.311661 -0.171313 0.000000 
0.333954 -0.230935 0.000000 
0.338621 -0.291386 0.000000 
0.341530 -0.345324 0.000000 
0.353165 -0.395513 0.000000 
0.365710 -0.453935 0.000000 
[...]
POINT_DATA 899 
VECTORS X_GC float 
-3.648847 2.143600 0.000000 
-3.619410 2.103048 0.000000 
-3.578536 2.067453 0.000000 
-3.540028 2.031803 0.000000 
-3.511690 1.999607 0.000000 
-3.481362 1.969749 0.000000 
-3.451569 1.929075 0.000000 
0.772356 2.046114 0.000000 
0.774615 2.019993 0.000000 
0.769962 1.991239 0.000000 
-3.399514 1.898799 0.000000 
0.413960 -0.746043 0.000000 
0.455573 -0.741740 0.000000 
-1.762619 -0.645938 0.000000 
-1.783389 -0.610542 0.000000 
-1.714437 -0.581753 0.000000 
0.732567 2.040439 0.000000 
0.698438 2.026602 0.000000 
0.491831 -0.727537 0.000000 
0.519501 -0.697132 0.000000 
0.530556 -0.656686 0.000000 
0.532354 -0.610881 0.000000 
0.531774 -0.560375 0.000000 
-3.460923 1.837067 0.000000 
0.663989 2.004656 0.000000 
0.631675 1.977261 0.000000 
0.601833 1.953206 0.000000 
0.569607 1.929948 0.000000 
0.534059 1.907871 0.000000 
0.492599 1.886731 0.000000 
0.444403 1.868066 0.000000 
0.762807 1.950264 0.000000 
-1.708694 -0.547370 0.000000 
-1.726386 -0.507107 0.000000 
-1.761257 -0.483086 0.000000 
-1.812853 -0.475238 0.000000 
-0.690785 -0.727438 0.000000 
-0.624488 -0.745326 0.000000 
-0.561189 -0.754154 0.000000 
-0.500670 -0.756086 0.000000 
-0.445139 -0.756217 0.000000 
0.532260 -0.501291 0.000000 
0.536647 -0.431958 0.000000 
-1.881389 -0.462737 0.000000 
-0.388888 -0.753195 0.000000 
-0.339816 -0.737391 0.000000 
-0.343940 -0.683307 0.000000 
-0.358290 -0.630818 0.000000 
-0.381586 -0.589947 0.000000 
-0.406103 -0.555805 0.000000 
-0.417272 -0.524337 0.000000 
-0.428310 -0.490105 0.000000 
-0.436965 -0.445845 0.000000 
-0.444206 -0.390307 0.000000 
-0.452657 -0.331453 0.000000 
-0.468600 -0.274558 0.000000 
0.553166 -0.367243 0.000000 
0.573193 -0.309572 0.000000 
0.574450 -0.257831 0.000000 
0.561087 -0.207511 0.000000 
0.550432 -0.152188 0.000000 
0.748903 1.896947 0.000000 
0.730940 1.840454 0.000000 
0.715868 1.794295 0.000000 
0.699446 1.758167 0.000000 
0.684888 1.717177 0.000000 
0.675900 1.670973 0.000000 
0.669871 1.621413 0.000000 
0.664455 1.573556 0.000000 
0.668163 1.527137 0.000000 
0.672091 1.477303 0.000000 
0.674558 1.429280 0.000000 
0.673045 1.379200 0.000000 
0.386491 1.858386 0.000000 
0.664855 1.320462 0.000000 
0.652298 1.262384 0.000000 
0.638456 1.208734 0.000000 
0.623121 1.159224 0.000000 
0.616008 1.116197 0.000000 
0.600787 1.081254 0.000000 
0.571289 1.051806 0.000000 
0.539016 1.020644 0.000000 
0.513857 0.991745 0.000000 
0.493343 0.965510 0.000000 
0.469109 0.947698 0.000000 
0.444920 0.931253 0.000000 
0.415324 0.910287 0.000000 
0.383540 0.885535 0.000000 
0.356179 0.856203 0.000000 
0.343879 0.817303 0.000000 
0.337476 0.771783 0.000000 
0.332404 0.726496 0.000000 
0.328512 0.686806 0.000000 
0.319594 0.650727 0.000000 
0.304149 0.617316 0.000000 
0.290502 0.576925 0.000000 
0.275896 0.529063 0.000000 
0.261905 0.487094 0.000000 
0.250150 0.453498 0.000000 
0.250896 0.415693 0.000000 
0.259587 0.373090 0.000000 
0.284617 0.330317 0.000000 
0.315237 0.300656 0.000000 
0.340022 0.281219 0.000000 
0.354380 0.255370 0.000000 
0.368685 0.228227 0.000000 
0.385568 0.201831 0.000000 
0.415372 0.177034 0.000000 
0.447119 0.145322 0.000000 
0.477633 0.117405 0.000000 
0.503078 0.089469 0.000000 
0.518876 0.051415 0.000000 
0.527127 0.015446 0.000000 
0.534187 -0.029099 0.000000 
0.543185 -0.089879 0.000000 
0.322519 1.847330 0.000000 
0.263849 1.834213 0.000000 
0.208223 1.828794 0.000000 
0.150441 1.824965 0.000000 
-0.687638 -0.654410 0.000000 
-3.327058 1.872568 0.000000 
-3.276080 1.826146 0.000000 
-3.224941 1.792559 0.000000 
-3.181728 1.763401 0.000000 
-3.135074 1.726471 0.000000 
-3.078123 1.702178 0.000000 
-1.944260 -0.417859 0.000000 
0.083204 1.830121 0.000000 
0.005786 1.824768 0.000000 
-0.071812 1.834006 0.000000 
-0.135705 1.863548 0.000000 
-0.182391 1.905154 0.000000 
-1.999041 -0.346890 0.000000 
-1.843230 -0.621399 0.000000 
-0.491126 -0.210600 0.000000 
-0.512311 -0.137357 0.000000 
-0.526535 -0.074525 0.000000 
-0.527935 -0.012403 0.000000 
-0.524207 0.054767 0.000000 
-0.505864 0.111899 0.000000 
-0.468875 0.161111 0.000000 
-0.410369 0.190356 0.000000 
-0.354013 0.211473 0.000000 
-0.301050 0.221418 0.000000 
-0.255730 0.222191 0.000000 
-0.695730 -0.576160 0.000000 
-0.726473 -0.499322 0.000000 
-0.747361 -0.429870 0.000000 
-3.396487 1.815432 0.000000 
-3.344056 1.736044 0.000000 
-3.294256 1.692644 0.000000 
-3.248246 1.654319 0.000000 
-3.196818 1.614966 0.000000 
-3.159669 1.563655 0.000000 
-3.113281 1.516951 0.000000 
-3.056061 1.497388 0.000000 
-2.996684 1.474763 0.000000 
-2.933161 1.445146 0.000000 
-2.879064 1.409004 0.000000 
-2.813006 1.384218 0.000000 
-2.751664 1.361168 0.000000 
-2.686782 1.331845 0.000000 
-1.922020 -0.618592 0.000000 
-1.999705 -0.620091 0.000000 
-2.060018 -0.598487 0.000000 
-2.032615 -0.263500 0.000000 
-2.048550 -0.177778 0.000000 
-2.029059 -0.111885 0.000000 
-2.105228 -0.541429 0.000000 
-2.154373 -0.473834 0.000000 
-2.203584 -0.419210 0.000000 
-2.237020 -0.357775 0.000000 
-2.250593 -0.292482 0.000000 
-2.270119 -0.220698 0.000000 
-2.297898 -0.150388 0.000000 
-2.327118 -0.088808 0.000000 
-2.346747 -0.034838 0.000000 
-2.362840 0.018271 0.000000 
-2.374561 0.069316 0.000000 
-2.373128 0.121291 0.000000 
-2.334174 0.187882 0.000000 
-2.331842 0.228500 0.000000 
-2.284565 0.237259 0.000000 
-0.236368 1.954689 0.000000 
-0.299146 1.998516 0.000000 
-0.346614 2.018441 0.000000 
-0.382877 1.981938 0.000000 
-0.412447 1.952888 0.000000 
-0.433989 1.912600 0.000000 
-0.446472 1.869634 0.000000 
-0.451628 1.830316 0.000000 
-0.451047 1.791853 0.000000 
-0.449242 1.755850 0.000000 
-0.453345 1.723960 0.000000 
-0.460251 1.696267 0.000000 
-0.470304 1.667482 0.000000 
-0.475290 1.637992 0.000000 
-0.478341 1.608206 0.000000 
-0.479442 1.571470 0.000000 
-2.609147 1.318056 0.000000 
-2.517189 1.312557 0.000000 
-2.434013 1.312894 0.000000 
-2.352624 1.302862 0.000000 
-2.274410 1.283491 0.000000 
-2.204499 1.248843 0.000000 
-2.180326 1.179960 0.000000 
-2.178559 1.091424 0.000000 
-2.168273 1.001395 0.000000 
-2.159086 0.903331 0.000000 
-2.144575 0.814172 0.000000 
-2.163040 0.738955 0.000000 
-2.183612 0.664863 0.000000 
-2.172907 0.600306 0.000000 
-2.161614 0.537551 0.000000 
-2.169833 0.477439 0.000000 
-2.188987 0.415686 0.000000 
-2.218663 0.364440 0.000000 
-2.229021 0.308567 0.000000 
-2.997130 1.685381 0.000000 
-3.021908 1.587243 0.000000 
-2.902046 1.653874 0.000000 
-0.770606 -0.347278 0.000000 
-0.790098 -0.255620 0.000000 
-0.811858 -0.174912 0.000000 
-0.835807 -0.096348 0.000000 
-0.859158 -0.026221 0.000000 
-0.881226 0.033830 0.000000 
-0.903169 0.093181 0.000000 
-0.928196 0.157225 0.000000 
-2.785442 1.621321 0.000000 
-2.944278 1.560579 0.000000 
-2.855014 1.523433 0.000000 
-2.796189 1.463353 0.000000 
-2.651235 1.606574 0.000000 
-2.517962 1.596227 0.000000 
-2.394240 1.587065 0.000000 
-2.275192 1.579068 0.000000 
-2.180847 1.554507 0.000000 
-2.099904 1.528028 0.000000 
-2.018420 1.496788 0.000000 
-1.945469 1.501085 0.000000 
-1.885190 1.534425 0.000000 
-1.829736 1.554994 0.000000 
-1.760875 1.580225 0.000000 
-1.680504 1.608650 0.000000 
-1.617798 1.626967 0.000000 
-1.570169 1.641490 0.000000 
-1.527149 1.655680 0.000000 
-1.482581 1.667809 0.000000 
-1.433927 1.674350 0.000000 
-1.386311 1.682265 0.000000 
-1.337319 1.690995 0.000000 
-1.286363 1.698075 0.000000 
-1.235962 1.698792 0.000000 
-1.188452 1.703605 0.000000 
-1.140860 1.713056 0.000000 
-1.091558 1.712365 0.000000 
-1.038962 1.701347 0.000000 
-0.982519 1.682349 0.000000 
-0.922315 1.665607 0.000000 
-0.869867 1.655282 0.000000 
-0.827747 1.648792 0.000000 
-0.785371 1.643880 0.000000 
-0.748025 1.634143 0.000000 
-0.712781 1.623876 0.000000 
-0.681690 1.609945 0.000000 
-0.657198 1.598810 0.000000 
-0.633895 1.592147 0.000000 
-0.612002 1.587692 0.000000 
-0.594184 1.580479 0.000000 
-0.577381 1.571029 0.000000 
-0.560109 1.555745 0.000000 
-0.540091 1.523291 0.000000 
-1.243914 -0.115555 0.000000 
-1.232782 -0.101838 0.000000 
-1.257376 -0.129908 0.000000 
-1.224378 -0.083138 0.000000 
-1.271473 -0.149254 0.000000 
-1.215702 -0.061141 0.000000 
-1.204660 -0.035085 0.000000 
-1.290143 -0.176996 0.000000 
-1.314447 -0.222035 0.000000 
-1.190204 -0.004778 0.000000 
-1.318041 -0.275390 0.000000 
-1.171655 0.029378 0.000000 
-1.149359 0.065692 0.000000 
-1.123094 0.103941 0.000000 
-1.284246 -0.325369 0.000000 
-1.239751 -0.376095 0.000000 
-1.083297 0.147932 0.000000 
-1.028190 0.179603 0.000000 
-1.181632 -0.418451 0.000000 
-1.112794 -0.449878 0.000000 
-1.040651 -0.462047 0.000000 
-0.978127 -0.465133 0.000000 
-0.927401 -0.478159 0.000000 
-0.889748 -0.517289 0.000000 
-0.873658 -0.573827 0.000000 
-0.920857 -0.606026 0.000000 
-0.935380 -0.538766 0.000000 
-0.991271 -0.615618 0.000000 
-1.088927 -0.612891 0.000000 
-1.067434 -0.533236 0.000000 
-1.189477 -0.605327 0.000000 
-1.147234 -0.520569 0.000000 
-1.266510 -0.582036 0.000000 
-1.219915 -0.494392 0.000000 
-1.335308 -0.546209 0.000000 
-1.284456 -0.456393 0.000000 
-1.402358 -0.502305 0.000000 
-1.341444 -0.408593 0.000000 
-1.466758 -0.449629 0.000000 
-1.539152 -0.388830 0.000000 
-1.393011 -0.350662 0.000000 
-1.612839 -0.318559 0.000000 
-1.665320 -0.260981 0.000000 
-1.691220 -0.196154 0.000000 
-1.704696 -0.110660 0.000000 
-1.850073 0.056209 0.000000 
-1.911042 0.000384 0.000000 
-1.969645 -0.056453 0.000000 
-1.726970 -0.004249 0.000000 
-0.222881 0.203580 0.000000 
-0.195707 0.175997 0.000000 
-0.164205 0.139050 0.000000 
-0.127520 0.106352 0.000000 
-0.095686 0.076860 0.000000 
-0.059027 0.048382 0.000000 
-0.018954 0.018399 0.000000 
0.030296 -0.012872 0.000000 
0.086536 -0.033398 0.000000 
0.141893 -0.052129 0.000000 
0.202102 -0.081409 0.000000 
0.263408 -0.121326 0.000000 
0.311661 -0.171313 0.000000 
0.333954 -0.230935 0.000000 
0.338621 -0.291386 0.000000 
0.341530 -0.345324 0.000000 
0.353165 -0.395513 0.000000 
0.365710 -0.453935 0.000000 
0.363543 -0.523464 0.000000 
0.357353 -0.585579 0.000000 
0.351188 -0.636321 0.000000 
0.363842 -0.683349 0.000000 
-1.737069 -0.550000 0.000000 
-0.199590 0.256198 0.000000 
-0.156305 0.226281 0.000000 
-0.462327 1.492237 0.000000 
0.741313 2.014812 0.000000 
0.482415 -0.694120 0.000000 
0.446104 -0.702016 0.000000 
0.403556 -0.707670 0.000000 
-0.104001 0.198217 0.000000 
-0.514998 1.424292 0.000000 
-0.059937 0.163812 0.000000 
0.738519 1.989547 0.000000 
0.714572 2.001847 0.000000 
-0.249752 0.283021 0.000000 
-0.036232 0.120013 0.000000 
0.000772 0.092181 0.000000 
0.035161 0.066537 0.000000 
-1.776537 -0.549442 0.000000 
-1.836238 -0.545257 0.000000 
-0.309416 0.297121 0.000000 
-0.378944 0.294857 0.000000 
-2.292732 0.174445 0.000000 
-2.315166 0.124454 0.000000 
-2.314418 0.076897 0.000000 
-2.293418 0.030511 0.000000 
-2.279687 -0.019368 0.000000 
-2.253462 -0.066634 0.000000 
0.075120 0.038794 0.000000 
0.131113 0.026186 0.000000 
-0.977004 0.228169 0.000000 
-0.860050 0.218004 0.000000 
-1.912142 -0.537201 0.000000 
-1.989966 -0.545981 0.000000 
-2.023752 -0.478439 0.000000 
-2.082175 -0.407178 0.000000 
0.723889 1.958034 0.000000 
0.691466 1.976877 0.000000 
0.665980 1.944230 0.000000 
0.704783 1.916962 0.000000 
0.637970 1.906172 0.000000 
0.681732 1.869753 0.000000 
0.670916 1.823578 0.000000 
0.602858 1.874504 0.000000 
0.659584 1.783154 0.000000 
0.560783 1.848133 0.000000 
0.636111 1.747079 0.000000 
0.607495 1.697289 0.000000 
0.595324 1.633808 0.000000 
0.604052 1.569135 0.000000 
0.514160 1.818730 0.000000 
0.453857 1.791284 0.000000 
0.392525 1.789306 0.000000 
0.334098 1.787778 0.000000 
0.278675 1.769024 0.000000 
0.217273 1.750949 0.000000 
0.149449 1.733593 0.000000 
0.614128 1.516859 0.000000 
0.621313 1.469280 0.000000 
0.624262 1.424400 0.000000 
-2.197766 -0.119822 0.000000 
-2.158682 -0.194746 0.000000 
-2.124695 -0.060492 0.000000 
-2.150589 -0.360872 0.000000 
-2.141926 -0.283327 0.000000 
-0.393125 -0.699681 0.000000 
-0.412419 -0.655680 0.000000 
-0.436857 -0.615116 0.000000 
-0.445878 -0.571736 0.000000 
-0.458212 -0.538940 0.000000 
-0.479715 -0.504205 0.000000 
-0.496929 -0.455484 0.000000 
-0.508998 -0.400404 0.000000 
-0.517154 -0.346077 0.000000 
-0.545308 -0.294805 0.000000 
-0.442079 -0.697085 0.000000 
-0.495939 -0.687584 0.000000 
-0.557723 -0.689710 0.000000 
-0.619132 -0.674261 0.000000 
-0.334659 1.956628 0.000000 
-0.367985 1.926911 0.000000 
-0.385153 1.890485 0.000000 
-0.396797 1.856618 0.000000 
-0.406285 1.821096 0.000000 
-0.402558 1.781962 0.000000 
-0.406645 1.743519 0.000000 
-0.418378 1.711105 0.000000 
-0.428059 1.681979 0.000000 
-0.435849 1.652432 0.000000 
-0.442335 1.622397 0.000000 
-0.445406 1.589332 0.000000 
-0.444483 1.543616 0.000000 
0.619822 1.378668 0.000000 
-1.077870 0.275233 0.000000 
-1.149036 0.233275 0.000000 
-1.174735 0.158432 0.000000 
-1.192231 0.106709 0.000000 
-1.210811 0.064932 0.000000 
-1.228352 0.025592 0.000000 
-1.238869 -0.012388 0.000000 
-1.244643 -0.043885 0.000000 
-1.248534 -0.068786 0.000000 
-1.252336 -0.088074 0.000000 
-1.262323 -0.101325 0.000000 
-1.280319 -0.112241 0.000000 
-0.451814 0.272197 0.000000 
-0.526928 0.228675 0.000000 
0.194935 0.009194 0.000000 
0.069048 1.719493 0.000000 
-0.574175 0.157991 0.000000 
-0.593607 0.076888 0.000000 
-1.764101 0.116573 0.000000 
-2.210991 0.235429 0.000000 
-0.825996 0.132727 0.000000 
-0.799223 0.061646 0.000000 
-0.760911 -0.004787 0.000000 
0.605964 1.327717 0.000000 
0.587834 1.270356 0.000000 
0.576354 1.210508 0.000000 
0.574971 1.155500 0.000000 
0.580375 1.112475 0.000000 
0.545179 1.090091 0.000000 
0.509957 1.057828 0.000000 
0.484198 1.021426 0.000000 
0.468721 0.990272 0.000000 
0.449386 0.971741 0.000000 
0.422962 0.959075 0.000000 
0.391379 0.939924 0.000000 
0.357154 0.915861 0.000000 
0.323730 0.887488 0.000000 
-0.582151 -0.233940 0.000000 
0.265957 -0.017236 0.000000 
0.333763 -0.063365 0.000000 
0.378371 -0.130381 0.000000 
0.400918 -0.204776 0.000000 
0.401084 -0.267765 0.000000 
0.404345 -0.321866 0.000000 
0.432648 -0.372948 0.000000 
0.450030 -0.437389 0.000000 
0.529803 -0.284236 0.000000 
0.491947 -0.332373 0.000000 
0.453243 -0.282489 0.000000 
0.449550 -0.511713 0.000000 
0.498420 -0.238362 0.000000 
0.474171 -0.178421 0.000000 
0.457863 -0.103848 0.000000 
0.462195 -0.570367 0.000000 
0.478704 -0.616703 0.000000 
0.483460 -0.657669 0.000000 
0.412910 -0.596009 0.000000 
0.398390 -0.634722 0.000000 
0.404290 -0.669010 0.000000 
0.442452 -0.664451 0.000000 
0.436659 -0.629287 0.000000 
-0.727378 -0.078920 0.000000 
-0.616071 0.003098 0.000000 
-0.623548 -0.071182 0.000000 
-0.605778 -0.152190 0.000000 
-0.706340 -0.164638 0.000000 
-0.681483 -0.250899 0.000000 
-0.032304 1.713933 0.000000 
-0.128010 1.750082 0.000000 
-0.195732 1.817206 0.000000 
-0.243911 1.871120 0.000000 
-0.287859 1.918523 0.000000 
-0.335518 1.890828 0.000000 
-0.667611 -0.336278 0.000000 
-0.584906 -0.343044 0.000000 
-0.658173 -0.416284 0.000000 
-0.578441 -0.408411 0.000000 
-0.639055 -0.487723 0.000000 
-0.608035 -0.563193 0.000000 
-0.562540 -0.471107 0.000000 
-0.536184 -0.532100 0.000000 
-0.495949 -0.570025 0.000000 
-0.500643 -0.622375 0.000000 
-0.573107 -0.626842 0.000000 
-2.690892 1.487227 0.000000 
-2.684799 1.401214 0.000000 
-2.602920 1.399952 0.000000 
-2.574381 1.484945 0.000000 
-2.518122 1.419819 0.000000 
-2.424460 1.443717 0.000000 
-2.320006 1.434786 0.000000 
-2.229986 1.411168 0.000000 
-2.146342 1.369928 0.000000 
-1.455055 -0.291680 0.000000 
-1.387693 -0.211356 0.000000 
-1.339496 -0.158028 0.000000 
-1.304978 -0.129468 0.000000 
-1.531301 -0.226187 0.000000 
-1.604385 -0.182075 0.000000 
-1.592423 -0.081394 0.000000 
-1.608296 0.042569 0.000000 
-1.827918 0.241014 0.000000 
0.477873 0.009817 0.000000 
0.477147 0.044716 0.000000 
0.465631 0.078956 0.000000 
-0.587742 1.523165 0.000000 
-0.593403 1.547269 0.000000 
-0.604579 1.559925 0.000000 
-0.619289 1.565611 0.000000 
-0.639577 1.563438 0.000000 
-0.665912 1.565054 0.000000 
-0.697937 1.572041 0.000000 
-0.595692 1.469677 0.000000 
-0.726123 1.586852 0.000000 
-0.757398 1.597423 0.000000 
-0.794522 1.594847 0.000000 
-0.841416 1.592270 0.000000 
-0.894922 1.593630 0.000000 
-0.956071 1.602046 0.000000 
-1.020951 1.620967 0.000000 
-1.077937 1.648602 0.000000 
-1.120258 1.677330 0.000000 
-1.171769 1.653070 0.000000 
0.332207 0.206461 0.000000 
0.333662 0.164726 0.000000 
0.321472 0.235078 0.000000 
0.302407 0.261890 0.000000 
0.214022 0.276552 0.000000 
0.194081 0.337577 0.000000 
0.186716 0.393090 0.000000 
0.189303 0.445862 0.000000 
0.360023 0.125044 0.000000 
0.405131 0.099911 0.000000 
0.201671 0.495108 0.000000 
0.218038 0.545369 0.000000 
0.236652 0.594302 0.000000 
0.256885 0.636236 0.000000 
0.278373 0.664730 0.000000 
0.284019 0.698128 0.000000 
0.276718 0.744876 0.000000 
0.278735 0.801689 0.000000 
0.296322 0.851956 0.000000 
-1.507867 1.604828 0.000000 
-1.548116 1.580185 0.000000 
-1.598023 1.552806 0.000000 
-1.467251 1.619602 0.000000 
-1.422160 1.626885 0.000000 
-1.373311 1.633601 0.000000 
-1.322903 1.641378 0.000000 
-1.275577 1.650624 0.000000 
-1.225048 1.649224 0.000000 
-1.662214 1.529137 0.000000 
-1.732600 1.509197 0.000000 
-1.794687 1.494822 0.000000 
-1.841773 1.465634 0.000000 
-2.078405 0.532907 0.000000 
-2.079214 0.611496 0.000000 
-2.097651 0.455307 0.000000 
-2.129318 0.383568 0.000000 
-2.096743 0.692058 0.000000 
-2.169699 0.328224 0.000000 
-1.991686 0.255224 0.000000 
-1.642187 0.180780 0.000000 
-1.989898 0.088000 0.000000 
-2.064526 0.016187 0.000000 
-1.914688 0.161534 0.000000 
-2.037969 0.944611 0.000000 
-2.021377 0.828926 0.000000 
-2.055796 1.073772 0.000000 
-2.102728 1.176425 0.000000 
-2.047875 1.318728 0.000000 
0.428030 0.065459 0.000000 
0.375625 0.044223 0.000000 
0.313454 0.057324 0.000000 
0.290352 0.203358 0.000000 
0.238487 0.914276 0.000000 
0.440631 0.027351 0.000000 
0.396678 -0.012426 0.000000 
0.460488 -0.038346 0.000000 
0.523747 1.137766 0.000000 
-2.262588 0.101020 0.000000 
-2.220468 0.157048 0.000000 
-2.218579 0.047509 0.000000 
-2.146376 0.099359 0.000000 
-2.206503 -0.017561 0.000000 
0.473879 1.099154 0.000000 
0.446488 1.046822 0.000000 
0.440978 1.002803 0.000000 
0.409581 0.994948 0.000000 
0.629179 1.823844 0.000000 
0.593839 1.791370 0.000000 
0.550362 1.747166 0.000000 
0.483841 1.706744 0.000000 
0.202470 0.847912 0.000000 
0.241245 0.700136 0.000000 
0.205152 0.675335 0.000000 
0.175878 0.627195 0.000000 
0.153326 0.568688 0.000000 
0.132079 0.508238 0.000000 
0.113278 0.443783 0.000000 
0.106000 0.375459 0.000000 
0.109640 0.306263 0.000000 
0.121648 0.235585 0.000000 
0.032483 0.145971 0.000000 
0.246820 0.228649 0.000000 
0.099619 0.094336 0.000000 
0.373127 0.980066 0.000000 
-0.307911 1.843206 0.000000 
-0.360136 1.824737 0.000000 
-0.343252 1.770391 0.000000 
-0.270247 1.778535 0.000000 
0.168337 0.090854 0.000000 
0.242346 0.080517 0.000000 
0.270369 0.149554 0.000000 
0.505525 1.205527 0.000000 
-0.689828 0.032782 0.000000 
-0.729540 0.090186 0.000000 
-0.746154 0.164659 0.000000 
-0.657668 0.181223 0.000000 
-0.661195 0.096936 0.000000 
-0.924642 0.333898 0.000000 
-1.137284 1.597262 0.000000 
-1.072920 1.552668 0.000000 
-1.248127 1.609559 0.000000 
-1.304069 1.593236 0.000000 
-1.360197 1.585576 0.000000 
-1.411221 1.581437 0.000000 
-1.453165 1.578207 0.000000 
-1.486003 1.560745 0.000000 
-1.510814 1.517276 0.000000 
-1.558800 1.472607 0.000000 
-0.995058 1.525915 0.000000 
-0.919611 1.515439 0.000000 
-0.852227 1.522371 0.000000 
-0.796966 1.538889 0.000000 
-0.752732 1.558058 0.000000 
-1.635591 1.445274 0.000000 
-1.992480 0.719976 0.000000 
-1.965104 0.610196 0.000000 
-1.974377 0.506863 0.000000 
-2.014368 0.413242 0.000000 
-2.065453 0.330055 0.000000 
-2.071492 0.176988 0.000000 
-2.131272 0.260525 0.000000 
-1.712039 1.431951 0.000000 
-1.781280 1.431901 0.000000 
-1.884796 1.401845 0.000000 
0.516332 1.621507 0.000000 
0.538779 1.550379 0.000000 
0.517174 1.279912 0.000000 
0.552532 1.341849 0.000000 
0.576896 1.383775 0.000000 
0.583356 1.420801 0.000000 