# vtk DataFile Version 3.0 
vtk output 
ASCII 
DATASET UNSTRUCTURED_GRID 
POINTS 899 float 
-3.648847 2.329970 0.000000 
-3.619410 2.289418 0.000000 
-3.578536 2.253824 0.000000 
-3.540028 2.218173 0.000000 
-3.511690 2.185977 0.000000 
-3.481362 2.156119 0.000000 
-3.451569 2.115446 0.000000 
0.772356 2.232484 0.000000 
0.774615 2.206363 0.000000 
0.769962 2.177609 0.000000 
-3.399514 2.085170 0.000000 
0.413960 -0.559672 0.000000 
0.455573 -0.555370 0.000000 
-1.762619 -0.459568 0.000000 
-1.783389 -0.424172 0.000000 
-1.714437 -0.395382 0.000000 
0.732567 2.226809 0.000000 
0.698438 2.212973 0.000000 
0.491831 -0.541167 0.000000 
0.519501 -0.510762 0.000000 
0.530556 -0.470315 0.000000 
0.532354 -0.424511 0.000000 
0.531774 -0.374004 0.000000 
-3.460923 2.023437 0.000000 
0.663989 2.191027 0.000000 
0.631675 2.163632 0.000000 
0.601833 2.139576 0.000000 
0.569607 2.116319 0.000000 
0.534059 2.094241 0.000000 
0.492599 2.073101 0.000000 
0.444403 2.054436 0.000000 
0.762807 2.136635 0.000000 
-1.708694 -0.361000 0.000000 
-1.726386 -0.320736 0.000000 
-1.761257 -0.296716 0.000000 
-1.812853 -0.288867 0.000000 
-0.690422 -0.541202 0.000000 
-0.624256 -0.559130 0.000000 
-0.561079 -0.567312 0.000000 
-0.500739 -0.568767 0.000000 
-0.445387 -0.568830 0.000000 
0.532260 -0.314920 0.000000 
0.536647 -0.245587 0.000000 
-1.881389 -0.276366 0.000000 
-0.389303 -0.566555 0.000000 
-0.340338 -0.551270 0.000000 
-0.344339 -0.497135 0.000000 
-0.358558 -0.444595 0.000000 
-0.381750 -0.403684 0.000000 
-0.406193 -0.369509 0.000000 
-0.417316 -0.338011 0.000000 
-0.428320 -0.303754 0.000000 
-0.436973 -0.259490 0.000000 
-0.444212 -0.203947 0.000000 
-0.452662 -0.145089 0.000000 
-0.468602 -0.088190 0.000000 
0.553166 -0.180872 0.000000 
0.573193 -0.123201 0.000000 
0.574450 -0.071461 0.000000 
0.561087 -0.021141 0.000000 
0.550432 0.034182 0.000000 
0.748903 2.083317 0.000000 
0.730940 2.026824 0.000000 
0.715868 1.980665 0.000000 
0.699446 1.944537 0.000000 
0.684888 1.903548 0.000000 
0.675900 1.857343 0.000000 
0.669871 1.807784 0.000000 
0.664455 1.759927 0.000000 
0.668163 1.713507 0.000000 
0.672091 1.663674 0.000000 
0.674558 1.615650 0.000000 
0.673045 1.565571 0.000000 
0.386491 2.044756 0.000000 
0.664855 1.506832 0.000000 
0.652298 1.448754 0.000000 
0.638456 1.395104 0.000000 
0.623121 1.345594 0.000000 
0.616008 1.302567 0.000000 
0.600787 1.267625 0.000000 
0.571289 1.238176 0.000000 
0.539016 1.207015 0.000000 
0.513857 1.178116 0.000000 
0.493343 1.151880 0.000000 
0.469109 1.134068 0.000000 
0.444920 1.117624 0.000000 
0.415324 1.096658 0.000000 
0.383540 1.071905 0.000000 
0.356179 1.042573 0.000000 
0.343879 1.003674 0.000000 
0.337476 0.958153 0.000000 
0.332404 0.912867 0.000000 
0.328512 0.873177 0.000000 
0.319594 0.837097 0.000000 
0.304149 0.803686 0.000000 
0.290502 0.763295 0.000000 
0.275896 0.715433 0.000000 
0.261905 0.673464 0.000000 
0.250150 0.639869 0.000000 
0.250896 0.602064 0.000000 
0.259587 0.559460 0.000000 
0.284617 0.516687 0.000000 
0.315237 0.487026 0.000000 
0.340022 0.467590 0.000000 
0.354380 0.441741 0.000000 
0.368685 0.414598 0.000000 
0.385568 0.388202 0.000000 
0.415372 0.363405 0.000000 
0.447119 0.331692 0.000000 
0.477633 0.303776 0.000000 
0.503078 0.275839 0.000000 
0.518876 0.237785 0.000000 
0.527127 0.201816 0.000000 
0.534187 0.157271 0.000000 
0.543185 0.096491 0.000000 
0.322519 2.033700 0.000000 
0.263849 2.020584 0.000000 
0.208223 2.015164 0.000000 
0.150441 2.011335 0.000000 
-0.687392 -0.468135 0.000000 
-3.327058 2.058938 0.000000 
-3.276080 2.012516 0.000000 
-3.224941 1.978930 0.000000 
-3.181728 1.949771 0.000000 
-3.135074 1.912841 0.000000 
-3.078123 1.888548 0.000000 
-1.944260 -0.231488 0.000000 
0.083204 2.016491 0.000000 
0.005786 2.011138 0.000000 
-0.071812 2.020377 0.000000 
-0.135705 2.049918 0.000000 
-0.182391 2.091524 0.000000 
-1.999041 -0.160520 0.000000 
-1.843230 -0.435028 0.000000 
-0.491126 -0.024230 0.000000 
-0.512312 0.049013 0.000000 
-0.526535 0.111846 0.000000 
-0.527935 0.173967 0.000000 
-0.524207 0.241137 0.000000 
-0.505864 0.298269 0.000000 
-0.468875 0.347481 0.000000 
-0.410369 0.376726 0.000000 
-0.354013 0.397843 0.000000 
-0.301050 0.407789 0.000000 
-0.255730 0.408561 0.000000 
-0.695595 -0.389840 0.000000 
-0.726457 -0.312958 0.000000 
-0.747352 -0.243503 0.000000 
-3.396487 2.001803 0.000000 
-3.344056 1.922415 0.000000 
-3.294256 1.879014 0.000000 
-3.248246 1.840690 0.000000 
-3.196818 1.801336 0.000000 
-3.159669 1.750026 0.000000 
-3.113281 1.703321 0.000000 
-3.056061 1.683758 0.000000 
-2.996684 1.661133 0.000000 
-2.933161 1.631517 0.000000 
-2.879064 1.595374 0.000000 
-2.813006 1.570589 0.000000 
-2.751664 1.547538 0.000000 
-2.686782 1.518215 0.000000 
-1.922020 -0.432222 0.000000 
-1.999705 -0.433720 0.000000 
-2.060018 -0.412117 0.000000 
-2.032615 -0.077129 0.000000 
-2.048550 0.008593 0.000000 
-2.029059 0.074486 0.000000 
-2.105228 -0.355058 0.000000 
-2.154373 -0.287464 0.000000 
-2.203584 -0.232840 0.000000 
-2.237020 -0.171405 0.000000 
-2.250593 -0.106112 0.000000 
-2.270119 -0.034328 0.000000 
-2.297898 0.035983 0.000000 
-2.327118 0.097562 0.000000 
-2.346747 0.151532 0.000000 
-2.362840 0.204642 0.000000 
-2.374561 0.255686 0.000000 
-2.373128 0.307662 0.000000 
-2.334174 0.374252 0.000000 
-2.331842 0.414870 0.000000 
-2.284565 0.423629 0.000000 
-0.236368 2.141059 0.000000 
-0.299146 2.184886 0.000000 
-0.346614 2.204811 0.000000 
-0.382877 2.168308 0.000000 
-0.412447 2.139259 0.000000 
-0.433989 2.098971 0.000000 
-0.446472 2.056005 0.000000 
-0.451628 2.016686 0.000000 
-0.451047 1.978224 0.000000 
-0.449242 1.942220 0.000000 
-0.453345 1.910331 0.000000 
-0.460251 1.882638 0.000000 
-0.470304 1.853852 0.000000 
-0.475290 1.824362 0.000000 
-0.478341 1.794577 0.000000 
-0.479442 1.757841 0.000000 
-2.609147 1.504426 0.000000 
-2.517189 1.498928 0.000000 
-2.434013 1.499264 0.000000 
-2.352624 1.489233 0.000000 
-2.274410 1.469862 0.000000 
-2.204499 1.435213 0.000000 
-2.180326 1.366331 0.000000 
-2.178559 1.277794 0.000000 
-2.168273 1.187765 0.000000 
-2.159086 1.089701 0.000000 
-2.144575 1.000543 0.000000 
-2.163040 0.925326 0.000000 
-2.183612 0.851234 0.000000 
-2.172907 0.786676 0.000000 
-2.161614 0.723921 0.000000 
-2.169833 0.663809 0.000000 
-2.188987 0.602056 0.000000 
-2.218663 0.550810 0.000000 
-2.229021 0.494937 0.000000 
-2.997130 1.871751 0.000000 
-3.021908 1.773614 0.000000 
-2.902046 1.840244 0.000000 
-0.770600 -0.160909 0.000000 
-0.790096 -0.069250 0.000000 
-0.811857 0.011457 0.000000 
-0.835807 0.090021 0.000000 
-0.859157 0.160149 0.000000 
-0.881226 0.220201 0.000000 
-0.903169 0.279551 0.000000 
-0.928196 0.343595 0.000000 
-2.785442 1.807691 0.000000 
-2.944278 1.746949 0.000000 
-2.855014 1.709803 0.000000 
-2.796189 1.649723 0.000000 
-2.651235 1.792945 0.000000 
-2.517962 1.782598 0.000000 
-2.394240 1.773435 0.000000 
-2.275192 1.765438 0.000000 
-2.180847 1.740877 0.000000 
-2.099904 1.714398 0.000000 
-2.018420 1.683158 0.000000 
-1.945469 1.687456 0.000000 
-1.885190 1.720796 0.000000 
-1.829736 1.741364 0.000000 
-1.760875 1.766596 0.000000 
-1.680504 1.795020 0.000000 
-1.617798 1.813337 0.000000 
-1.570169 1.827861 0.000000 
-1.527149 1.842051 0.000000 
-1.482581 1.854180 0.000000 
-1.433927 1.860720 0.000000 
-1.386311 1.868635 0.000000 
-1.337319 1.877365 0.000000 
-1.286363 1.884445 0.000000 
-1.235962 1.885163 0.000000 
-1.188452 1.889976 0.000000 
-1.140860 1.899427 0.000000 
-1.091558 1.898736 0.000000 
-1.038962 1.887717 0.000000 
-0.982519 1.868719 0.000000 
-0.922315 1.851977 0.000000 
-0.869867 1.841652 0.000000 
-0.827747 1.835163 0.000000 
-0.785371 1.830251 0.000000 
-0.748025 1.820514 0.000000 
-0.712781 1.810247 0.000000 
-0.681690 1.796315 0.000000 
-0.657198 1.785181 0.000000 
-0.633895 1.778517 0.000000 
-0.612002 1.774062 0.000000 
-0.594184 1.766849 0.000000 
-0.577381 1.757399 0.000000 
-0.560109 1.742116 0.000000 
-0.540091 1.709661 0.000000 
-1.243914 0.070816 0.000000 
-1.232782 0.084533 0.000000 
-1.257376 0.056462 0.000000 
-1.224378 0.103232 0.000000 
-1.271472 0.037116 0.000000 
-1.215702 0.125229 0.000000 
-1.204660 0.151286 0.000000 
-1.290143 0.009375 0.000000 
-1.314447 -0.035665 0.000000 
-1.190204 0.181592 0.000000 
-1.318041 -0.089020 0.000000 
-1.171655 0.215748 0.000000 
-1.149359 0.252063 0.000000 
-1.123094 0.290311 0.000000 
-1.284246 -0.138999 0.000000 
-1.239750 -0.189725 0.000000 
-1.083297 0.334302 0.000000 
-1.028190 0.365974 0.000000 
-1.181630 -0.232082 0.000000 
-1.112789 -0.263509 0.000000 
-1.040643 -0.275679 0.000000 
-0.978118 -0.278766 0.000000 
-0.927392 -0.291792 0.000000 
-0.889718 -0.330926 0.000000 
-0.873564 -0.387477 0.000000 
-0.920771 -0.419671 0.000000 
-0.935346 -0.352402 0.000000 
-0.991249 -0.429246 0.000000 
-1.088918 -0.426518 0.000000 
-1.067426 -0.346866 0.000000 
-1.189474 -0.418955 0.000000 
-1.147229 -0.334199 0.000000 
-1.266509 -0.395665 0.000000 
-1.219913 -0.308022 0.000000 
-1.335307 -0.359838 0.000000 
-1.284456 -0.270023 0.000000 
-1.402357 -0.315934 0.000000 
-1.341444 -0.222222 0.000000 
-1.466758 -0.263259 0.000000 
-1.539152 -0.202460 0.000000 
-1.393011 -0.164291 0.000000 
-1.612839 -0.132188 0.000000 
-1.665320 -0.074610 0.000000 
-1.691220 -0.009784 0.000000 
-1.704696 0.075710 0.000000 
-1.850073 0.242579 0.000000 
-1.911042 0.186755 0.000000 
-1.969645 0.129918 0.000000 
-1.726970 0.182121 0.000000 
-0.222881 0.389951 0.000000 
-0.195707 0.362367 0.000000 
-0.164205 0.325420 0.000000 
-0.127520 0.292722 0.000000 
-0.095686 0.263231 0.000000 
-0.059027 0.234753 0.000000 
-0.018954 0.204769 0.000000 
0.030296 0.173498 0.000000 
0.086536 0.152973 0.000000 
0.141893 0.134241 0.000000 
0.202102 0.104961 0.000000 
0.263408 0.065045 0.000000 
0.311661 0.015058 0.000000 
0.333954 -0.044565 0.000000 
0.338621 -0.105015 0.000000 
0.341530 -0.158954 0.000000 
0.353165 -0.209142 0.000000 
0.365710 -0.267565 0.000000 
0.363543 -0.337094 0.000000 
[...]
POINT_DATA 899 
VECTORS X_GC float 
-3.648847 2.329970 0.000000 
-3.619410 2.289418 0.000000 
-3.578536 2.253824 0.000000 
-3.540028 2.218173 0.000000 
-3.511690 2.185977 0.000000 
-3.481362 2.156119 0.000000 
-3.451569 2.115446 0.000000 
0.772356 2.232484 0.000000 
0.774615 2.206363 0.000000 
0.769962 2.177609 0.000000 
-3.399514 2.085170 0.000000 
0.413960 -0.559672 0.000000 
0.455573 -0.555370 0.000000 
-1.762619 -0.459568 0.000000 
-1.783389 -0.424172 0.000000 
-1.714437 -0.395382 0.000000 
0.732567 2.226809 0.000000 
0.698438 2.212973 0.000000 
0.491831 -0.541167 0.000000 
0.519501 -0.510762 0.000000 
0.530556 -0.470315 0.000000 
0.532354 -0.424511 0.000000 
0.531774 -0.374004 0.000000 
-3.460923 2.023437 0.000000 
0.663989 2.191027 0.000000 
0.631675 2.163632 0.000000 
0.601833 2.139576 0.000000 
0.569607 2.116319 0.000000 
0.534059 2.094241 0.000000 
0.492599 2.073101 0.000000 
0.444403 2.054436 0.000000 
0.762807 2.136635 0.000000 
-1.708694 -0.361000 0.000000 
-1.726386 -0.320736 0.000000 
-1.761257 -0.296716 0.000000 
-1.812853 -0.288867 0.000000 
-0.690422 -0.541202 0.000000 
-0.624256 -0.559130 0.000000 
-0.561079 -0.567312 0.000000 
-0.500739 -0.568767 0.000000 
-0.445387 -0.568830 0.000000 
0.532260 -0.314920 0.000000 
0.536647 -0.245587 0.000000 
-1.881389 -0.276366 0.000000 
-0.389303 -0.566555 0.000000 
-0.340338 -0.551270 0.000000 
-0.344339 -0.497135 0.000000 
-0.358558 -0.444595 0.000000 
-0.381750 -0.403684 0.000000 
-0.406193 -0.369509 0.000000 
-0.417316 -0.338011 0.000000 
-0.428320 -0.303754 0.000000 
-0.436973 -0.259490 0.000000 
-0.444212 -0.203947 0.000000 
-0.452662 -0.145089 0.000000 
-0.468602 -0.088190 0.000000 
0.553166 -0.180872 0.000000 
0.573193 -0.123201 0.000000 
0.574450 -0.071461 0.000000 
0.561087 -0.021141 0.000000 
0.550432 0.034182 0.000000 
0.748903 2.083317 0.000000 
0.730940 2.026824 0.000000 
0.715868 1.980665 0.000000 
0.699446 1.944537 0.000000 
0.684888 1.903548 0.000000 
0.675900 1.857343 0.000000 
0.669871 1.807784 0.000000 
0.664455 1.759927 0.000000 
0.668163 1.713507 0.000000 
0.672091 1.663674 0.000000 
0.674558 1.615650 0.000000 
0.673045 1.565571 0.000000 
0.386491 2.044756 0.000000 
0.664855 1.506832 0.000000 
0.652298 1.448754 0.000000 
0.638456 1.395104 0.000000 
0.623121 1.345594 0.000000 
0.616008 1.302567 0.000000 
0.600787 1.267625 0.000000 
0.571289 1.238176 0.000000 
0.539016 1.207015 0.000000 
0.513857 1.178116 0.000000 
0.493343 1.151880 0.000000 
0.469109 1.134068 0.000000 
0.444920 1.117624 0.000000 
0.415324 1.096658 0.000000 
0.383540 1.071905 0.000000 
0.356179 1.042573 0.000000 
0.343879 1.003674 0.000000 
0.337476 0.958153 0.000000 
0.332404 0.912867 0.000000 
0.328512 0.873177 0.000000 
0.319594 0.837097 0.000000 
0.304149 0.803686 0.000000 
0.290502 0.763295 0.000000 
0.275896 0.715433 0.000000 
0.261905 0.673464 0.000000 
0.250150 0.639869 0.000000 
0.250896 0.602064 0.000000 
0.259587 0.559460 0.000000 
0.284617 0.516687 0.000000 
0.315237 0.487026 0.000000 
0.340022 0.467590 0.000000 
0.354380 0.441741 0.000000 
0.368685 0.414598 0.000000 
0.385568 0.388202 0.000000 
0.415372 0.363405 0.000000 
0.447119 0.331692 0.000000 
0.477633 0.303776 0.000000 
0.503078 0.275839 0.000000 
0.518876 0.237785 0.000000 
0.527127 0.201816 0.000000 
0.534187 0.157271 0.000000 
0.543185 0.096491 0.000000 
0.322519 2.033700 0.000000 
0.263849 2.020584 0.000000 
0.208223 2.015164 0.000000 
0.150441 2.011335 0.000000 
-0.687392 -0.468135 0.000000 
-3.327058 2.058938 0.000000 
-3.276080 2.012516 0.000000 
-3.224941 1.978930 0.000000 
-3.181728 1.949771 0.000000 
-3.135074 1.912841 0.000000 
-3.078123 1.888548 0.000000 
-1.944260 -0.231488 0.000000 
0.083204 2.016491 0.000000 
0.005786 2.011138 0.000000 
-0.071812 2.020377 0.000000 
-0.135705 2.049918 0.000000 
-0.182391 2.091524 0.000000 
-1.999041 -0.160520 0.000000 
-1.843230 -0.435028 0.000000 
-0.491126 -0.024230 0.000000 
-0.512312 0.049013 0.000000 
-0.526535 0.111846 0.000000 
-0.527935 0.173967 0.000000 
-0.524207 0.241137 0.000000 
-0.505864 0.298269 0.000000 
-0.468875 0.347481 0.000000 
-0.410369 0.376726 0.000000 
-0.354013 0.397843 0.000000 
-0.301050 0.407789 0.000000 
-0.255730 0.408561 0.000000 
-0.695595 -0.389840 0.000000 
-0.726457 -0.312958 0.000000 
-0.747352 -0.243503 0.000000 
-3.396487 2.001803 0.000000 
-3.344056 1.922415 0.000000 
-3.294256 1.879014 0.000000 
-3.248246 1.840690 0.000000 
-3.196818 1.801336 0.000000 
-3.159669 1.750026 0.000000 
-3.113281 1.703321 0.000000 
-3.056061 1.683758 0.000000 
-2.996684 1.661133 0.000000 
-2.933161 1.631517 0.000000 
-2.879064 1.595374 0.000000 
-2.813006 1.570589 0.000000 
-2.751664 1.547538 0.000000 
-2.686782 1.518215 0.000000 
-1.922020 -0.432222 0.000000 
-1.999705 -0.433720 0.000000 
-2.060018 -0.412117 0.000000 
-2.032615 -0.077129 0.000000 
-2.048550 0.008593 0.000000 
-2.029059 0.074486 0.000000 
-2.105228 -0.355058 0.000000 
-2.154373 -0.287464 0.000000 
-2.203584 -0.232840 0.000000 
-2.237020 -0.171405 0.000000 
-2.250593 -0.106112 0.000000 
-2.270119 -0.034328 0.000000 
-2.297898 0.035983 0.000000 
-2.327118 0.097562 0.000000 
-2.346747 0.151532 0.000000 
-2.362840 0.204642 0.000000 
-2.374561 0.255686 0.000000 
-2.373128 0.307662 0.000000 
-2.334174 0.374252 0.000000 
-2.331842 0.414870 0.000000 
-2.284565 0.423629 0.000000 
-0.236368 2.141059 0.000000 
-0.299146 2.184886 0.000000 
-0.346614 2.204811 0.000000 
-0.382877 2.168308 0.000000 
-0.412447 2.139259 0.000000 
-0.433989 2.098971 0.000000 
-0.446472 2.056005 0.000000 
-0.451628 2.016686 0.000000 
-0.451047 1.978224 0.000000 
-0.449242 1.942220 0.000000 
-0.453345 1.910331 0.000000 
-0.460251 1.882638 0.000000 
-0.470304 1.853852 0.000000 
-0.475290 1.824362 0.000000 
-0.478341 1.794577 0.000000 
-0.479442 1.757841 0.000000 
-2.609147 1.504426 0.000000 
-2.517189 1.498928 0.000000 
-2.434013 1.499264 0.000000 
-2.352624 1.489233 0.000000 
-2.274410 1.469862 0.000000 
-2.204499 1.435213 0.000000 
-2.180326 1.366331 0.000000 
-2.178559 1.277794 0.000000 
-2.168273 1.187765 0.000000 
-2.159086 1.089701 0.000000 
-2.144575 1.000543 0.000000 
-2.163040 0.925326 0.000000 
-2.183612 0.851234 0.000000 
-2.172907 0.786676 0.000000 
-2.161614 0.723921 0.000000 
-2.169833 0.663809 0.000000 
-2.188987 0.602056 0.000000 
-2.218663 0.550810 0.000000 
-2.229021 0.494937 0.000000 
-2.997130 1.871751 0.000000 
-3.021908 1.773614 0.000000 
-2.902046 1.840244 0.000000 
-0.770600 -0.160909 0.000000 
-0.790096 -0.069250 0.000000 
-0.811857 0.011457 0.000000 
-0.835807 0.090021 0.000000 
-0.859157 0.160149 0.000000 
-0.881226 0.220201 0.000000 
-0.903169 0.279551 0.000000 
-0.928196 0.343595 0.000000 
-2.785442 1.807691 0.000000 
-2.944278 1.746949 0.000000 
-2.855014 1.709803 0.000000 
-2.796189 1.649723 0.000000 
-2.651235 1.792945 0.000000 
-2.517962 1.782598 0.000000 
-2.394240 1.773435 0.000000 
-2.275192 1.765438 0.000000 
-2.180847 1.740877 0.000000 
-2.099904 1.714398 0.000000 
-2.018420 1.683158 0.000000 
-1.945469 1.687456 0.000000 
-1.885190 1.720796 0.000000 
-1.829736 1.741364 0.000000 
-1.760875 1.766596 0.000000 
-1.680504 1.795020 0.000000 
-1.617798 1.813337 0.000000 
-1.570169 1.827861 0.000000 
-1.527149 1.842051 0.000000 
-1.482581 1.854180 0.000000 
-1.433927 1.860720 0.000000 
-1.386311 1.868635 0.000000 
-1.337319 1.877365 0.000000 
-1.286363 1.884445 0.000000 
-1.235962 1.885163 0.000000 
-1.188452 1.889976 0.000000 
-1.140860 1.899427 0.000000 
-1.091558 1.898736 0.000000 
-1.038962 1.887717 0.000000 
-0.982519 1.868719 0.000000 
-0.922315 1.851977 0.000000 
-0.869867 1.841652 0.000000 
-0.827747 1.835163 0.000000 
-0.785371 1.830251 0.000000 
-0.748025 1.820514 0.000000 
-0.712781 1.810247 0.000000 
-0.681690 1.796315 0.000000 
-0.657198 1.785181 0.000000 
-0.633895 1.778517 0.000000 
-0.612002 1.774062 0.000000 
-0.594184 1.766849 0.000000 
-0.577381 1.757399 0.000000 
-0.560109 1.742116 0.000000 
-0.540091 1.709661 0.000000 
-1.243914 0.070816 0.000000 
-1.232782 0.084533 0.000000 
-1.257376 0.056462 0.000000 
-1.224378 0.103232 0.000000 
-1.271472 0.037116 0.000000 
-1.215702 0.125229 0.000000 
-1.204660 0.151286 0.000000 
-1.290143 0.009375 0.000000 
-1.314447 -0.035665 0.000000 
-1.190204 0.181592 0.000000 
-1.318041 -0.089020 0.000000 
-1.171655 0.215748 0.000000 
-1.149359 0.252063 0.000000 
-1.123094 0.290311 0.000000 
-1.284246 -0.138999 0.000000 
-1.239750 -0.189725 0.000000 
-1.083297 0.334302 0.000000 
-1.028190 0.365974 0.000000 
-1.181630 -0.232082 0.000000 
-1.112789 -0.263509 0.000000 
-1.040643 -0.275679 0.000000 
-0.978118 -0.278766 0.000000 
-0.927392 -0.291792 0.000000 
-0.889718 -0.330926 0.000000 
-0.873564 -0.387477 0.000000 
-0.920771 -0.419671 0.000000 
-0.935346 -0.352402 0.000000 
-0.991249 -0.429246 0.000000 
-1.088918 -0.426518 0.000000 
-1.067426 -0.346866 0.000000 
-1.189474 -0.418955 0.000000 
-1.147229 -0.334199 0.000000 
-1.266509 -0.395665 0.000000 
-1.219913 -0.308022 0.000000 
-1.335307 -0.359838 0.000000 
-1.284456 -0.270023 0.000000 
-1.402357 -0.315934 0.000000 
-1.341444 -0.222222 0.000000 
-1.466758 -0.263259 0.000000 
-1.539152 -0.202460 0.000000 
-1.393011 -0.164291 0.000000 
-1.612839 -0.132188 0.000000 
-1.665320 -0.074610 0.000000 
-1.691220 -0.009784 0.000000 
-1.704696 0.075710 0.000000 
-1.850073 0.242579 0.000000 
-1.911042 0.186755 0.000000 
-1.969645 0.129918 0.000000 
-1.726970 0.182121 0.000000 
-0.222881 0.389951 0.000000 
-0.195707 0.362367 0.000000 
-0.164205 0.325420 0.000000 
-0.127520 0.292722 0.000000 
-0.095686 0.263231 0.000000 
-0.059027 0.234753 0.000000 
-0.018954 0.204769 0.000000 
0.030296 0.173498 0.000000 
0.086536 0.152973 0.000000 
0.141893 0.134241 0.000000 
0.202102 0.104961 0.000000 
0.263408 0.065045 0.000000 
0.311661 0.015058 0.000000 
0.333954 -0.044565 0.000000 
0.338621 -0.105015 0.000000 
0.341530 -0.158954 0.000000 
0.353165 -0.209142 0.000000 
0.365710 -0.267565 0.000000 
0.363543 -0.337094 0.000000 
0.357353 -0.399208 0.000000 
0.351188 -0.449951 0.000000 
0.363842 -0.496979 0.000000 
-1.737069 -0.363630 0.000000 
-0.199590 0.442568 0.000000 
-0.156305 0.412652 0.000000 
-0.462327 1.678608 0.000000 
0.741313 2.201182 0.000000 
0.482415 -0.507750 0.000000 
0.446104 -0.515646 0.000000 
0.403556 -0.521300 0.000000 
-0.104001 0.384587 0.000000 
-0.514998 1.610662 0.000000 
-0.059937 0.350182 0.000000 
0.738519 2.175917 0.000000 
0.714572 2.188217 0.000000 
-0.249752 0.469391 0.000000 
-0.036232 0.306384 0.000000 
0.000772 0.278552 0.000000 
0.035161 0.252907 0.000000 
-1.776537 -0.363071 0.000000 
-1.836238 -0.358887 0.000000 
-0.309416 0.483491 0.000000 
-0.378944 0.481227 0.000000 
-2.292732 0.360816 0.000000 
-2.315166 0.310824 0.000000 
-2.314418 0.263268 0.000000 
-2.293418 0.216881 0.000000 
-2.279687 0.167002 0.000000 
-2.253462 0.119737 0.000000 
0.075120 0.225164 0.000000 
0.131113 0.212556 0.000000 
-0.977004 0.414540 0.000000 
-0.860050 0.404374 0.000000 
-1.912142 -0.350830 0.000000 
-1.989966 -0.359611 0.000000 
-2.023752 -0.292069 0.000000 
-2.082175 -0.220808 0.000000 
0.723889 2.144404 0.000000 
0.691466 2.163247 0.000000 
0.665980 2.130600 0.000000 
0.704783 2.103332 0.000000 
0.637970 2.092542 0.000000 
0.681732 2.056124 0.000000 
0.670916 2.009948 0.000000 
0.602858 2.060874 0.000000 
0.659584 1.969524 0.000000 
0.560783 2.034503 0.000000 
0.636111 1.933450 0.000000 
0.607495 1.883659 0.000000 
0.595324 1.820179 0.000000 
0.604052 1.755505 0.000000 
0.514160 2.005100 0.000000 
0.453857 1.977655 0.000000 
0.392525 1.975676 0.000000 
0.334098 1.974148 0.000000 
0.278675 1.955394 0.000000 
0.217273 1.937319 0.000000 
0.149449 1.919963 0.000000 
0.614128 1.703230 0.000000 
0.621313 1.655650 0.000000 
0.624262 1.610771 0.000000 
-2.197766 0.066548 0.000000 
-2.158682 -0.008376 0.000000 
-2.124695 0.125878 0.000000 
-2.150589 -0.174502 0.000000 
-2.141926 -0.096956 0.000000 
-0.393439 -0.513516 0.000000 
-0.412631 -0.469473 0.000000 
-0.436983 -0.428869 0.000000 
-0.445953 -0.385450 0.000000 
-0.458251 -0.352624 0.000000 
-0.479726 -0.317858 0.000000 
-0.496934 -0.269127 0.000000 
-0.509002 -0.214043 0.000000 
-0.517157 -0.159713 0.000000 
-0.545309 -0.108437 0.000000 
-0.442273 -0.510911 0.000000 
-0.496002 -0.501393 0.000000 
-0.557668 -0.503500 0.000000 
-0.618975 -0.488020 0.000000 
-0.334659 2.142999 0.000000 
-0.367985 2.113281 0.000000 
-0.385153 2.076855 0.000000 
-0.396797 2.042988 0.000000 
-0.406285 2.007466 0.000000 
-0.402558 1.968333 0.000000 
-0.406645 1.929889 0.000000 
-0.418378 1.897475 0.000000 
-0.428059 1.868350 0.000000 
-0.435849 1.838802 0.000000 
-0.442335 1.808767 0.000000 
-0.445406 1.775702 0.000000 
-0.444483 1.729986 0.000000 
0.619822 1.565039 0.000000 
-1.077870 0.461604 0.000000 
-1.149036 0.419645 0.000000 
-1.174735 0.344802 0.000000 
-1.192231 0.293079 0.000000 
-1.210811 0.251302 0.000000 
-1.228352 0.211963 0.000000 
-1.238869 0.173983 0.000000 
-1.244643 0.142486 0.000000 
-1.248534 0.117584 0.000000 
-1.252336 0.098297 0.000000 
-1.262323 0.085045 0.000000 
-1.280319 0.074129 0.000000 
-0.451814 0.458567 0.000000 
-0.526928 0.415045 0.000000 
0.194935 0.195564 0.000000 
0.069048 1.905864 0.000000 
-0.574175 0.344361 0.000000 
-0.593607 0.263258 0.000000 
-1.764101 0.302943 0.000000 
-2.210991 0.421799 0.000000 
-0.825996 0.319097 0.000000 
-0.799223 0.248017 0.000000 
-0.760911 0.181584 0.000000 
0.605964 1.514087 0.000000 
0.587834 1.456727 0.000000 
0.576354 1.396878 0.000000 
0.574971 1.341870 0.000000 
0.580375 1.298845 0.000000 
0.545179 1.276461 0.000000 
0.509957 1.244199 0.000000 
0.484198 1.207796 0.000000 
0.468721 1.176642 0.000000 
0.449386 1.158111 0.000000 
0.422962 1.145446 0.000000 
0.391379 1.126295 0.000000 
0.357154 1.102231 0.000000 
0.323730 1.073859 0.000000 
-0.582151 -0.047570 0.000000 
0.265957 0.169134 0.000000 
0.333763 0.123005 0.000000 
0.378371 0.055989 0.000000 
0.400918 -0.018406 0.000000 
0.401084 -0.081395 0.000000 
0.404345 -0.135495 0.000000 
0.432648 -0.186577 0.000000 
0.450030 -0.251018 0.000000 
0.529803 -0.097865 0.000000 
0.491947 -0.146003 0.000000 
0.453243 -0.096119 0.000000 
0.449550 -0.325343 0.000000 
0.498420 -0.051992 0.000000 
0.474171 0.007950 0.000000 
0.457863 0.082523 0.000000 
0.462195 -0.383997 0.000000 
0.478704 -0.430333 0.000000 
0.483460 -0.471299 0.000000 
0.412910 -0.409638 0.000000 
0.398390 -0.448352 0.000000 
0.404290 -0.482639 0.000000 
0.442452 -0.478081 0.000000 
0.436659 -0.442916 0.000000 
-0.727378 0.107450 0.000000 
-0.616071 0.189469 0.000000 
-0.623548 0.115188 0.000000 
-0.605779 0.034180 0.000000 
-0.706340 0.021732 0.000000 
-0.681483 -0.064529 0.000000 
-0.032304 1.900303 0.000000 
-0.128010 1.936453 0.000000 
-0.195732 2.003576 0.000000 
-0.243911 2.057490 0.000000 
-0.287859 2.104894 0.000000 
-0.335518 2.077198 0.000000 
-0.667608 -0.149910 0.000000 
-0.584906 -0.156678 0.000000 
-0.658169 -0.229919 0.000000 
-0.578442 -0.222049 0.000000 
-0.639050 -0.301362 0.000000 
-0.607982 -0.376879 0.000000 
-0.562541 -0.284748 0.000000 
-0.536184 -0.345771 0.000000 
-0.495978 -0.383733 0.000000 
-0.500680 -0.436127 0.000000 
-0.573051 -0.440581 0.000000 
-2.690892 1.673597 0.000000 
-2.684799 1.587585 0.000000 
-2.602920 1.586323 0.000000 
-2.574381 1.671316 0.000000 
-2.518122 1.606190 0.000000 
-2.424460 1.630088 0.000000 
-2.320006 1.621157 0.000000 
-2.229986 1.597539 0.000000 
-2.146342 1.556299 0.000000 
-1.455055 -0.105310 0.000000 
-1.387692 -0.024986 0.000000 
-1.339496 0.028342 0.000000 
-1.304977 0.056902 0.000000 
-1.531301 -0.039817 0.000000 
-1.604385 0.004296 0.000000 
-1.592423 0.104976 0.000000 
-1.608296 0.228939 0.000000 
-1.827918 0.427385 0.000000 
0.477873 0.196188 0.000000 
0.477147 0.231086 0.000000 
0.465631 0.265327 0.000000 
-0.587742 1.709536 0.000000 
-0.593403 1.733639 0.000000 
-0.604579 1.746295 0.000000 
-0.619289 1.751981 0.000000 
-0.639577 1.749808 0.000000 
-0.665912 1.751424 0.000000 
-0.697937 1.758411 0.000000 
-0.595692 1.656047 0.000000 
-0.726123 1.773222 0.000000 
-0.757398 1.783793 0.000000 
-0.794522 1.781218 0.000000 
-0.841416 1.778640 0.000000 
-0.894922 1.780001 0.000000 
-0.956071 1.788416 0.000000 
-1.020951 1.807338 0.000000 
-1.077937 1.834973 0.000000 
-1.120258 1.863701 0.000000 
-1.171769 1.839440 0.000000 
0.332207 0.392831 0.000000 
0.333662 0.351096 0.000000 
0.321472 0.421448 0.000000 
0.302407 0.448261 0.000000 
0.214022 0.462923 0.000000 
0.194081 0.523947 0.000000 
0.186716 0.579460 0.000000 
0.189303 0.632232 0.000000 
0.360023 0.311415 0.000000 
0.405131 0.286281 0.000000 
0.201671 0.681478 0.000000 
0.218038 0.731739 0.000000 
0.236652 0.780673 0.000000 
0.256885 0.822607 0.000000 
0.278373 0.851101 0.000000 
0.284019 0.884499 0.000000 
0.276718 0.931246 0.000000 
0.278735 0.988059 0.000000 
0.296322 1.038327 0.000000 
-1.507867 1.791198 0.000000 
-1.548116 1.766556 0.000000 
-1.598023 1.739176 0.000000 
-1.467251 1.805972 0.000000 
-1.422160 1.813255 0.000000 
-1.373311 1.819972 0.000000 
-1.322903 1.827748 0.000000 
-1.275577 1.836994 0.000000 
-1.225048 1.835595 0.000000 
-1.662214 1.715507 0.000000 
-1.732600 1.695567 0.000000 
-1.794687 1.681192 0.000000 
-1.841773 1.652005 0.000000 
-2.078405 0.719277 0.000000 
-2.079214 0.797867 0.000000 
-2.097651 0.641677 0.000000 
-2.129318 0.569938 0.000000 
-2.096743 0.878429 0.000000 
-2.169699 0.514595 0.000000 
-1.991686 0.441595 0.000000 
-1.642187 0.367151 0.000000 
-1.989898 0.274370 0.000000 
-2.064526 0.202557 0.000000 
-1.914688 0.347904 0.000000 
-2.037969 1.130981 0.000000 
-2.021377 1.015296 0.000000 
-2.055796 1.260143 0.000000 
-2.102728 1.362796 0.000000 
-2.047875 1.505098 0.000000 
0.428030 0.251829 0.000000 
0.375625 0.230593 0.000000 
0.313454 0.243694 0.000000 
0.290352 0.389729 0.000000 
0.238487 1.100646 0.000000 
0.440631 0.213722 0.000000 
0.396678 0.173945 0.000000 
0.460488 0.148024 0.000000 
0.523747 1.324136 0.000000 
-2.262588 0.287391 0.000000 
-2.220468 0.343418 0.000000 
-2.218579 0.233880 0.000000 
-2.146376 0.285730 0.000000 
-2.206503 0.168809 0.000000 
0.473879 1.285524 0.000000 
0.446488 1.233193 0.000000 
0.440978 1.189174 0.000000 
0.409581 1.181319 0.000000 
0.629179 2.010214 0.000000 
0.593839 1.977741 0.000000 
0.550362 1.933537 0.000000 
0.483841 1.893114 0.000000 
0.202470 1.034282 0.000000 
0.241245 0.886506 0.000000 
0.205152 0.861706 0.000000 
0.175878 0.813565 0.000000 
0.153326 0.755059 0.000000 
0.132079 0.694609 0.000000 
0.113278 0.630153 0.000000 
0.106000 0.561830 0.000000 
0.109640 0.492633 0.000000 
0.121648 0.421955 0.000000 
0.032483 0.332341 0.000000 
0.246820 0.415020 0.000000 
0.099619 0.280706 0.000000 
0.373127 1.166437 0.000000 
-0.307911 2.029576 0.000000 
-0.360136 2.011107 0.000000 
-0.343252 1.956761 0.000000 
-0.270247 1.964906 0.000000 
0.168337 0.277225 0.000000 
0.242346 0.266887 0.000000 
0.270369 0.335924 0.000000 
0.505525 1.391897 0.000000 
-0.689828 0.219153 0.000000 
-0.729540 0.276557 0.000000 
-0.746154 0.351029 0.000000 
-0.657668 0.367593 0.000000 
-0.661195 0.283306 0.000000 
-0.924642 0.520269 0.000000 
-1.137284 1.783632 0.000000 
-1.072920 1.739038 0.000000 
-1.248127 1.795929 0.000000 
-1.304069 1.779607 0.000000 
-1.360197 1.771947 0.000000 
-1.411221 1.767807 0.000000 
-1.453165 1.764577 0.000000 
-1.486003 1.747115 0.000000 
-1.510814 1.703646 0.000000 
-1.558800 1.658977 0.000000 
-0.995058 1.712285 0.000000 
-0.919611 1.701809 0.000000 
-0.852227 1.708741 0.000000 
-0.796966 1.725260 0.000000 
-0.752732 1.744428 0.000000 
-1.635591 1.631644 0.000000 
-1.992480 0.906346 0.000000 
-1.965104 0.796566 0.000000 
-1.974377 0.693234 0.000000 
-2.014368 0.599612 0.000000 
-2.065453 0.516426 0.000000 
-2.071492 0.363359 0.000000 
-2.131272 0.446896 0.000000 
-1.712039 1.618321 0.000000 
-1.781280 1.618272 0.000000 
-1.884796 1.588215 0.000000 
0.516332 1.807878 0.000000 
0.538779 1.736749 0.000000 
0.517174 1.466283 0.000000 
0.552532 1.528219 0.000000 
0.576896 1.570146 0.000000 
0.583356 1.607172 0.000000 
0.576083 1.644176 0.000000 
0.562288 1.686537 0.000000 