# vtk DataFile Version 3.0 
vtk output 
ASCII 
DATASET UNSTRUCTURED_GRID 
POINTS 899 float 
-3.648847 2.321759 0.000000 
-3.619410 2.281207 0.000000 
-3.578536 2.245613 0.000000 
-3.540028 2.209962 0.000000 
-3.511690 2.177766 0.000000 
-3.481362 2.147908 0.000000 
-3.451569 2.107235 0.000000 
0.772356 2.224273 0.000000 
0.774615 2.198152 0.000000 
0.769962 2.169398 0.000000 
-3.399514 2.076959 0.000000 
0.413960 -0.567883 0.000000 
0.455573 -0.563581 0.000000 
-1.762619 -0.467779 0.000000 
-1.783389 -0.432382 0.000000 
-1.714437 -0.403593 0.000000 
0.732567 2.218598 0.000000 
0.698438 2.204762 0.000000 
0.491831 -0.549378 0.000000 
0.519501 -0.518973 0.000000 
0.530556 -0.478526 0.000000 
0.532354 -0.432722 0.000000 
0.531774 -0.382215 0.000000 
-3.460923 2.015226 0.000000 
0.663989 2.182816 0.000000 
0.631675 2.155421 0.000000 
0.601833 2.131365 0.000000 
0.569607 2.108108 0.000000 
0.534059 2.086030 0.000000 
0.492599 2.064890 0.000000 
0.444403 2.046225 0.000000 
0.762807 2.128424 0.000000 
-1.708694 -0.369211 0.000000 
-1.726386 -0.328947 0.000000 
-1.761257 -0.304927 0.000000 
-1.812853 -0.297078 0.000000 
-0.690422 -0.549413 0.000000 
-0.624256 -0.567341 0.000000 
-0.561079 -0.575523 0.000000 
-0.500739 -0.576978 0.000000 
-0.445387 -0.577041 0.000000 
0.532260 -0.323131 0.000000 
0.536647 -0.253798 0.000000 
-1.881389 -0.284577 0.000000 
-0.389303 -0.574766 0.000000 
-0.340338 -0.559481 0.000000 
-0.344339 -0.505346 0.000000 
-0.358558 -0.452806 0.000000 
-0.381750 -0.411895 0.000000 
-0.406193 -0.377720 0.000000 
-0.417316 -0.346222 0.000000 
-0.428320 -0.311965 0.000000 
-0.436973 -0.267701 0.000000 
-0.444212 -0.212158 0.000000 
-0.452662 -0.153300 0.000000 
-0.468602 -0.096401 0.000000 
0.553166 -0.189083 0.000000 
0.573193 -0.131412 0.000000 
0.574450 -0.079672 0.000000 
0.561087 -0.029352 0.000000 
0.550432 0.025971 0.000000 
0.748903 2.075106 0.000000 
0.730940 2.018613 0.000000 
0.715868 1.972454 0.000000 
0.699446 1.936326 0.000000 
0.684888 1.895337 0.000000 
0.675900 1.849132 0.000000 
0.669871 1.799573 0.000000 
0.664455 1.751716 0.000000 
0.668163 1.705296 0.000000 
0.672091 1.655463 0.000000 
0.674558 1.607439 0.000000 
0.673045 1.557360 0.000000 
0.386491 2.036545 0.000000 
0.664855 1.498621 0.000000 
0.652298 1.440543 0.000000 
0.638456 1.386893 0.000000 
0.623121 1.337383 0.000000 
0.616008 1.294356 0.000000 
0.600787 1.259414 0.000000 
0.571289 1.229965 0.000000 
0.539016 1.198804 0.000000 
0.513857 1.169905 0.000000 
0.493343 1.143669 0.000000 
0.469109 1.125857 0.000000 
0.444920 1.109413 0.000000 
0.415324 1.088447 0.000000 
0.383540 1.063694 0.000000 
0.356179 1.034362 0.000000 
0.343879 0.995463 0.000000 
0.337476 0.949942 0.000000 
0.332404 0.904656 0.000000 
0.328512 0.864966 0.000000 
0.319594 0.828886 0.000000 
0.304149 0.795475 0.000000 
0.290502 0.755085 0.000000 
0.275896 0.707222 0.000000 
0.261905 0.665253 0.000000 
0.250150 0.631658 0.000000 
0.250896 0.593853 0.000000 
0.259587 0.551249 0.000000 
0.284617 0.508476 0.000000 
0.315237 0.478815 0.000000 
0.340022 0.459379 0.000000 
0.354380 0.433530 0.000000 
0.368685 0.406387 0.000000 
0.385568 0.379991 0.000000 
0.415372 0.355194 0.000000 
0.447119 0.323481 0.000000 
0.477633 0.295565 0.000000 
0.503078 0.267628 0.000000 
0.518876 0.229574 0.000000 
0.527127 0.193605 0.000000 
0.534187 0.149060 0.000000 
0.543185 0.088280 0.000000 
0.322519 2.025489 0.000000 
0.263849 2.012373 0.000000 
0.208223 2.006953 0.000000 
0.150441 2.003124 0.000000 
-0.687392 -0.476346 0.000000 
-3.327058 2.050727 0.000000 
-3.276080 2.004306 0.000000 
-3.224941 1.970719 0.000000 
-3.181728 1.941560 0.000000 
-3.135074 1.904630 0.000000 
-3.078123 1.880337 0.000000 
-1.944260 -0.239699 0.000000 
0.083204 2.008280 0.000000 
0.005786 2.002928 0.000000 
-0.071812 2.012166 0.000000 
-0.135705 2.041707 0.000000 
-0.182391 2.083313 0.000000 
-1.999041 -0.168731 0.000000 
-1.843230 -0.443239 0.000000 
-0.491126 -0.032441 0.000000 
-0.512312 0.040802 0.000000 
-0.526535 0.103635 0.000000 
-0.527935 0.165756 0.000000 
-0.524207 0.232926 0.000000 
-0.505864 0.290058 0.000000 
-0.468875 0.339270 0.000000 
-0.410369 0.368515 0.000000 
-0.354013 0.389632 0.000000 
-0.301050 0.399578 0.000000 
-0.255730 0.400350 0.000000 
-0.695595 -0.398051 0.000000 
-0.726457 -0.321169 0.000000 
-0.747352 -0.251714 0.000000 
-3.396487 1.993592 0.000000 
-3.344056 1.914204 0.000000 
-3.294256 1.870803 0.000000 
-3.248246 1.832479 0.000000 
-3.196818 1.793125 0.000000 
-3.159669 1.741815 0.000000 
-3.113281 1.695110 0.000000 
-3.056061 1.675547 0.000000 
-2.996684 1.652922 0.000000 
-2.933161 1.623306 0.000000 
-2.879064 1.587163 0.000000 
-2.813006 1.562378 0.000000 
-2.751664 1.539327 0.000000 
-2.686782 1.510005 0.000000 
-1.922020 -0.440433 0.000000 
-1.999705 -0.441931 0.000000 
-2.060018 -0.420328 0.000000 
-2.032615 -0.085340 0.000000 
-2.048550 0.000382 0.000000 
-2.029059 0.066275 0.000000 
-2.105228 -0.363269 0.000000 
-2.154373 -0.295675 0.000000 
-2.203584 -0.241051 0.000000 
-2.237020 -0.179616 0.000000 
-2.250593 -0.114323 0.000000 
-2.270119 -0.042539 0.000000 
-2.297898 0.027772 0.000000 
-2.327118 0.089351 0.000000 
-2.346747 0.143321 0.000000 
-2.362840 0.196431 0.000000 
-2.374561 0.247475 0.000000 
-2.373128 0.299451 0.000000 
-2.334174 0.366041 0.000000 
-2.331842 0.406659 0.000000 
-2.284565 0.415418 0.000000 
-0.236368 2.132848 0.000000 
-0.299146 2.176675 0.000000 
-0.346614 2.196600 0.000000 
-0.382877 2.160097 0.000000 
-0.412447 2.131048 0.000000 
-0.433989 2.090760 0.000000 
-0.446472 2.047794 0.000000 
-0.451628 2.008475 0.000000 
-0.451047 1.970013 0.000000 
-0.449242 1.934010 0.000000 
-0.453345 1.902120 0.000000 
-0.460251 1.874427 0.000000 
-0.470304 1.845641 0.000000 
-0.475290 1.816151 0.000000 
-0.478341 1.786366 0.000000 
-0.479442 1.749630 0.000000 
-2.609147 1.496215 0.000000 
-2.517189 1.490717 0.000000 
-2.434013 1.491054 0.000000 
-2.352624 1.481022 0.000000 
-2.274410 1.461651 0.000000 
-2.204499 1.427002 0.000000 
-2.180326 1.358120 0.000000 
-2.178559 1.269583 0.000000 
-2.168273 1.179555 0.000000 
-2.159086 1.081490 0.000000 
-2.144575 0.992332 0.000000 
-2.163040 0.917115 0.000000 
-2.183612 0.843023 0.000000 
-2.172907 0.778465 0.000000 
-2.161614 0.715710 0.000000 
-2.169833 0.655598 0.000000 
-2.188987 0.593845 0.000000 
-2.218663 0.542599 0.000000 
-2.229021 0.486726 0.000000 
-2.997130 1.863540 0.000000 
-3.021908 1.765403 0.000000 
-2.902046 1.832033 0.000000 
-0.770600 -0.169120 0.000000 
-0.790096 -0.077461 0.000000 
-0.811857 0.003246 0.000000 
-0.835807 0.081810 0.000000 
-0.859157 0.151938 0.000000 
-0.881226 0.211990 0.000000 
-0.903169 0.271340 0.000000 
-0.928196 0.335384 0.000000 
-2.785442 1.799480 0.000000 
-2.944278 1.738738 0.000000 
-2.855014 1.701592 0.000000 
-2.796189 1.641512 0.000000 
-2.651235 1.784734 0.000000 
-2.517962 1.774387 0.000000 
-2.394240 1.765224 0.000000 
-2.275192 1.757228 0.000000 
-2.180847 1.732666 0.000000 
-2.099904 1.706187 0.000000 
-2.018420 1.674947 0.000000 
-1.945469 1.679245 0.000000 
-1.885190 1.712585 0.000000 
-1.829736 1.733153 0.000000 
-1.760875 1.758385 0.000000 
-1.680504 1.786809 0.000000 
-1.617798 1.805126 0.000000 
-1.570169 1.819650 0.000000 
-1.527149 1.833840 0.000000 
-1.482581 1.845969 0.000000 
-1.433927 1.852509 0.000000 
-1.386311 1.860424 0.000000 
-1.337319 1.869154 0.000000 
-1.286363 1.876234 0.000000 
-1.235962 1.876952 0.000000 
-1.188452 1.881765 0.000000 
-1.140860 1.891216 0.000000 
-1.091558 1.890525 0.000000 
-1.038962 1.879506 0.000000 
-0.982519 1.860508 0.000000 
-0.922315 1.843766 0.000000 
-0.869867 1.833441 0.000000 
-0.827747 1.826952 0.000000 
-0.785371 1.822040 0.000000 
-0.748025 1.812303 0.000000 
-0.712781 1.802036 0.000000 
-0.681690 1.788104 0.000000 
-0.657198 1.776970 0.000000 
-0.633895 1.770306 0.000000 
-0.612002 1.765851 0.000000 
-0.594184 1.758638 0.000000 
-0.577381 1.749188 0.000000 
-0.560109 1.733905 0.000000 
-0.540091 1.701450 0.000000 
-1.243914 0.062605 0.000000 
-1.232782 0.076322 0.000000 
-1.257376 0.048251 0.000000 
-1.224378 0.095021 0.000000 
-1.271472 0.028905 0.000000 
-1.215702 0.117018 0.000000 
-1.204660 0.143075 0.000000 
-1.290143 0.001164 0.000000 
-1.314447 -0.043876 0.000000 
-1.190204 0.173381 0.000000 
-1.318041 -0.097231 0.000000 
-1.171655 0.207537 0.000000 
-1.149359 0.243852 0.000000 
-1.123094 0.282100 0.000000 
-1.284246 -0.147210 0.000000 
-1.239750 -0.197936 0.000000 
-1.083297 0.326091 0.000000 
-1.028190 0.357763 0.000000 
-1.181630 -0.240293 0.000000 
-1.112789 -0.271720 0.000000 
-1.040643 -0.283890 0.000000 
-0.978118 -0.286977 0.000000 
-0.927392 -0.300003 0.000000 
-0.889718 -0.339137 0.000000 
-0.873564 -0.395688 0.000000 
-0.920771 -0.427882 0.000000 
-0.935346 -0.360613 0.000000 
-0.991249 -0.437457 0.000000 
-1.088918 -0.434729 0.000000 
-1.067426 -0.355077 0.000000 
-1.189474 -0.427166 0.000000 
-1.147229 -0.342410 0.000000 
-1.266509 -0.403876 0.000000 
-1.219913 -0.316233 0.000000 
-1.335307 -0.368049 0.000000 
-1.284456 -0.278234 0.000000 
-1.402357 -0.324145 0.000000 
-1.341444 -0.230433 0.000000 
-1.466758 -0.271470 0.000000 
-1.539152 -0.210671 0.000000 
-1.393011 -0.172502 0.000000 
-1.612839 -0.140399 0.000000 
-1.665320 -0.082821 0.000000 
-1.691220 -0.017995 0.000000 
-1.704696 0.067499 0.000000 
-1.850073 0.234368 0.000000 
-1.911042 0.178544 0.000000 
-1.969645 0.121707 0.000000 
-1.726970 0.173910 0.000000 
-0.222881 0.381740 0.000000 
-0.195707 0.354157 0.000000 
-0.164205 0.317209 0.000000 
-0.127520 0.284511 0.000000 
-0.095686 0.255020 0.000000 
-0.059027 0.226542 0.000000 
-0.018954 0.196558 0.000000 
0.030296 0.165288 0.000000 
0.086536 0.144762 0.000000 
0.141893 0.126030 0.000000 
0.202102 0.096750 0.000000 
0.263408 0.056834 0.000000 
0.311661 0.006847 0.000000 
0.333954 -0.052776 0.000000 
0.338621 -0.113226 0.000000 
0.341530 -0.167165 0.000000 
0.353165 -0.217353 0.000000 
0.365710 -0.275776 0.000000 
0.363543 -0.345305 0.000000 
[...]
POINT_DATA 899 
VECTORS X_GC float 
-3.648847 2.321759 0.000000 
-3.619410 2.281207 0.000000 
-3.578536 2.245613 0.000000 
-3.540028 2.209962 0.000000 
-3.511690 2.177766 0.000000 
-3.481362 2.147908 0.000000 
-3.451569 2.107235 0.000000 
0.772356 2.224273 0.000000 
0.774615 2.198152 0.000000 
0.769962 2.169398 0.000000 
-3.399514 2.076959 0.000000 
0.413960 -0.567883 0.000000 
0.455573 -0.563581 0.000000 
-1.762619 -0.467779 0.000000 
-1.783389 -0.432382 0.000000 
-1.714437 -0.403593 0.000000 
0.732567 2.218598 0.000000 
0.698438 2.204762 0.000000 
0.491831 -0.549378 0.000000 
0.519501 -0.518973 0.000000 
0.530556 -0.478526 0.000000 
0.532354 -0.432722 0.000000 
0.531774 -0.382215 0.000000 
-3.460923 2.015226 0.000000 
0.663989 2.182816 0.000000 
0.631675 2.155421 0.000000 
0.601833 2.131365 0.000000 
0.569607 2.108108 0.000000 
0.534059 2.086030 0.000000 
0.492599 2.064890 0.000000 
0.444403 2.046225 0.000000 
0.762807 2.128424 0.000000 
-1.708694 -0.369211 0.000000 
-1.726386 -0.328947 0.000000 
-1.761257 -0.304927 0.000000 
-1.812853 -0.297078 0.000000 
-0.690422 -0.549413 0.000000 
-0.624256 -0.567341 0.000000 
-0.561079 -0.575523 0.000000 
-0.500739 -0.576978 0.000000 
-0.445387 -0.577041 0.000000 
0.532260 -0.323131 0.000000 
0.536647 -0.253798 0.000000 
-1.881389 -0.284577 0.000000 
-0.389303 -0.574766 0.000000 
-0.340338 -0.559481 0.000000 
-0.344339 -0.505346 0.000000 
-0.358558 -0.452806 0.000000 
-0.381750 -0.411895 0.000000 
-0.406193 -0.377720 0.000000 
-0.417316 -0.346222 0.000000 
-0.428320 -0.311965 0.000000 
-0.436973 -0.267701 0.000000 
-0.444212 -0.212158 0.000000 
-0.452662 -0.153300 0.000000 
-0.468602 -0.096401 0.000000 
0.553166 -0.189083 0.000000 
0.573193 -0.131412 0.000000 
0.574450 -0.079672 0.000000 
0.561087 -0.029352 0.000000 
0.550432 0.025971 0.000000 
0.748903 2.075106 0.000000 
0.730940 2.018613 0.000000 
0.715868 1.972454 0.000000 
0.699446 1.936326 0.000000 
0.684888 1.895337 0.000000 
0.675900 1.849132 0.000000 
0.669871 1.799573 0.000000 
0.664455 1.751716 0.000000 
0.668163 1.705296 0.000000 
0.672091 1.655463 0.000000 
0.674558 1.607439 0.000000 
0.673045 1.557360 0.000000 
0.386491 2.036545 0.000000 
0.664855 1.498621 0.000000 
0.652298 1.440543 0.000000 
0.638456 1.386893 0.000000 
0.623121 1.337383 0.000000 
0.616008 1.294356 0.000000 
0.600787 1.259414 0.000000 
0.571289 1.229965 0.000000 
0.539016 1.198804 0.000000 
0.513857 1.169905 0.000000 
0.493343 1.143669 0.000000 
0.469109 1.125857 0.000000 
0.444920 1.109413 0.000000 
0.415324 1.088447 0.000000 
0.383540 1.063694 0.000000 
0.356179 1.034362 0.000000 
0.343879 0.995463 0.000000 
0.337476 0.949942 0.000000 
0.332404 0.904656 0.000000 
0.328512 0.864966 0.000000 
0.319594 0.828886 0.000000 
0.304149 0.795475 0.000000 
0.290502 0.755085 0.000000 
0.275896 0.707222 0.000000 
0.261905 0.665253 0.000000 
0.250150 0.631658 0.000000 
0.250896 0.593853 0.000000 
0.259587 0.551249 0.000000 
0.284617 0.508476 0.000000 
0.315237 0.478815 0.000000 
0.340022 0.459379 0.000000 
0.354380 0.433530 0.000000 
0.368685 0.406387 0.000000 
0.385568 0.379991 0.000000 
0.415372 0.355194 0.000000 
0.447119 0.323481 0.000000 
0.477633 0.295565 0.000000 
0.503078 0.267628 0.000000 
0.518876 0.229574 0.000000 
0.527127 0.193605 0.000000 
0.534187 0.149060 0.000000 
0.543185 0.088280 0.000000 
0.322519 2.025489 0.000000 
0.263849 2.012373 0.000000 
0.208223 2.006953 0.000000 
0.150441 2.003124 0.000000 
-0.687392 -0.476346 0.000000 
-3.327058 2.050727 0.000000 
-3.276080 2.004306 0.000000 
-3.224941 1.970719 0.000000 
-3.181728 1.941560 0.000000 
-3.135074 1.904630 0.000000 
-3.078123 1.880337 0.000000 
-1.944260 -0.239699 0.000000 
0.083204 2.008280 0.000000 
0.005786 2.002928 0.000000 
-0.071812 2.012166 0.000000 
-0.135705 2.041707 0.000000 
-0.182391 2.083313 0.000000 
-1.999041 -0.168731 0.000000 
-1.843230 -0.443239 0.000000 
-0.491126 -0.032441 0.000000 
-0.512312 0.040802 0.000000 
-0.526535 0.103635 0.000000 
-0.527935 0.165756 0.000000 
-0.524207 0.232926 0.000000 
-0.505864 0.290058 0.000000 
-0.468875 0.339270 0.000000 
-0.410369 0.368515 0.000000 
-0.354013 0.389632 0.000000 
-0.301050 0.399578 0.000000 
-0.255730 0.400350 0.000000 
-0.695595 -0.398051 0.000000 
-0.726457 -0.321169 0.000000 
-0.747352 -0.251714 0.000000 
-3.396487 1.993592 0.000000 
-3.344056 1.914204 0.000000 
-3.294256 1.870803 0.000000 
-3.248246 1.832479 0.000000 
-3.196818 1.793125 0.000000 
-3.159669 1.741815 0.000000 
-3.113281 1.695110 0.000000 
-3.056061 1.675547 0.000000 
-2.996684 1.652922 0.000000 
-2.933161 1.623306 0.000000 
-2.879064 1.587163 0.000000 
-2.813006 1.562378 0.000000 
-2.751664 1.539327 0.000000 
-2.686782 1.510005 0.000000 
-1.922020 -0.440433 0.000000 
-1.999705 -0.441931 0.000000 
-2.060018 -0.420328 0.000000 
-2.032615 -0.085340 0.000000 
-2.048550 0.000382 0.000000 
-2.029059 0.066275 0.000000 
-2.105228 -0.363269 0.000000 
-2.154373 -0.295675 0.000000 
-2.203584 -0.241051 0.000000 
-2.237020 -0.179616 0.000000 
-2.250593 -0.114323 0.000000 
-2.270119 -0.042539 0.000000 
-2.297898 0.027772 0.000000 
-2.327118 0.089351 0.000000 
-2.346747 0.143321 0.000000 
-2.362840 0.196431 0.000000 
-2.374561 0.247475 0.000000 
-2.373128 0.299451 0.000000 
-2.334174 0.366041 0.000000 
-2.331842 0.406659 0.000000 
-2.284565 0.415418 0.000000 
-0.236368 2.132848 0.000000 
-0.299146 2.176675 0.000000 
-0.346614 2.196600 0.000000 
-0.382877 2.160097 0.000000 
-0.412447 2.131048 0.000000 
-0.433989 2.090760 0.000000 
-0.446472 2.047794 0.000000 
-0.451628 2.008475 0.000000 
-0.451047 1.970013 0.000000 
-0.449242 1.934010 0.000000 
-0.453345 1.902120 0.000000 
-0.460251 1.874427 0.000000 
-0.470304 1.845641 0.000000 
-0.475290 1.816151 0.000000 
-0.478341 1.786366 0.000000 
-0.479442 1.749630 0.000000 
-2.609147 1.496215 0.000000 
-2.517189 1.490717 0.000000 
-2.434013 1.491054 0.000000 
-2.352624 1.481022 0.000000 
-2.274410 1.461651 0.000000 
-2.204499 1.427002 0.000000 
-2.180326 1.358120 0.000000 
-2.178559 1.269583 0.000000 
-2.168273 1.179555 0.000000 
-2.159086 1.081490 0.000000 
-2.144575 0.992332 0.000000 
-2.163040 0.917115 0.000000 
-2.183612 0.843023 0.000000 
-2.172907 0.778465 0.000000 
-2.161614 0.715710 0.000000 
-2.169833 0.655598 0.000000 
-2.188987 0.593845 0.000000 
-2.218663 0.542599 0.000000 
-2.229021 0.486726 0.000000 
-2.997130 1.863540 0.000000 
-3.021908 1.765403 0.000000 
-2.902046 1.832033 0.000000 
-0.770600 -0.169120 0.000000 
-0.790096 -0.077461 0.000000 
-0.811857 0.003246 0.000000 
-0.835807 0.081810 0.000000 
-0.859157 0.151938 0.000000 
-0.881226 0.211990 0.000000 
-0.903169 0.271340 0.000000 
-0.928196 0.335384 0.000000 
-2.785442 1.799480 0.000000 
-2.944278 1.738738 0.000000 
-2.855014 1.701592 0.000000 
-2.796189 1.641512 0.000000 
-2.651235 1.784734 0.000000 
-2.517962 1.774387 0.000000 
-2.394240 1.765224 0.000000 
-2.275192 1.757228 0.000000 
-2.180847 1.732666 0.000000 
-2.099904 1.706187 0.000000 
-2.018420 1.674947 0.000000 
-1.945469 1.679245 0.000000 
-1.885190 1.712585 0.000000 
-1.829736 1.733153 0.000000 
-1.760875 1.758385 0.000000 
-1.680504 1.786809 0.000000 
-1.617798 1.805126 0.000000 
-1.570169 1.819650 0.000000 
-1.527149 1.833840 0.000000 
-1.482581 1.845969 0.000000 
-1.433927 1.852509 0.000000 
-1.386311 1.860424 0.000000 
-1.337319 1.869154 0.000000 
-1.286363 1.876234 0.000000 
-1.235962 1.876952 0.000000 
-1.188452 1.881765 0.000000 
-1.140860 1.891216 0.000000 
-1.091558 1.890525 0.000000 
-1.038962 1.879506 0.000000 
-0.982519 1.860508 0.000000 
-0.922315 1.843766 0.000000 
-0.869867 1.833441 0.000000 
-0.827747 1.826952 0.000000 
-0.785371 1.822040 0.000000 
-0.748025 1.812303 0.000000 
-0.712781 1.802036 0.000000 
-0.681690 1.788104 0.000000 
-0.657198 1.776970 0.000000 
-0.633895 1.770306 0.000000 
-0.612002 1.765851 0.000000 
-0.594184 1.758638 0.000000 
-0.577381 1.749188 0.000000 
-0.560109 1.733905 0.000000 
-0.540091 1.701450 0.000000 
-1.243914 0.062605 0.000000 
-1.232782 0.076322 0.000000 
-1.257376 0.048251 0.000000 
-1.224378 0.095021 0.000000 
-1.271472 0.028905 0.000000 
-1.215702 0.117018 0.000000 
-1.204660 0.143075 0.000000 
-1.290143 0.001164 0.000000 
-1.314447 -0.043876 0.000000 
-1.190204 0.173381 0.000000 
-1.318041 -0.097231 0.000000 
-1.171655 0.207537 0.000000 
-1.149359 0.243852 0.000000 
-1.123094 0.282100 0.000000 
-1.284246 -0.147210 0.000000 
-1.239750 -0.197936 0.000000 
-1.083297 0.326091 0.000000 
-1.028190 0.357763 0.000000 
-1.181630 -0.240293 0.000000 
-1.112789 -0.271720 0.000000 
-1.040643 -0.283890 0.000000 
-0.978118 -0.286977 0.000000 
-0.927392 -0.300003 0.000000 
-0.889718 -0.339137 0.000000 
-0.873564 -0.395688 0.000000 
-0.920771 -0.427882 0.000000 
-0.935346 -0.360613 0.000000 
-0.991249 -0.437457 0.000000 
-1.088918 -0.434729 0.000000 
-1.067426 -0.355077 0.000000 
-1.189474 -0.427166 0.000000 
-1.147229 -0.342410 0.000000 
-1.266509 -0.403876 0.000000 
-1.219913 -0.316233 0.000000 
-1.335307 -0.368049 0.000000 
-1.284456 -0.278234 0.000000 
-1.402357 -0.324145 0.000000 
-1.341444 -0.230433 0.000000 
-1.466758 -0.271470 0.000000 
-1.539152 -0.210671 0.000000 
-1.393011 -0.172502 0.000000 
-1.612839 -0.140399 0.000000 
-1.665320 -0.082821 0.000000 
-1.691220 -0.017995 0.000000 
-1.704696 0.067499 0.000000 
-1.850073 0.234368 0.000000 
-1.911042 0.178544 0.000000 
-1.969645 0.121707 0.000000 
-1.726970 0.173910 0.000000 
-0.222881 0.381740 0.000000 
-0.195707 0.354157 0.000000 
-0.164205 0.317209 0.000000 
-0.127520 0.284511 0.000000 
-0.095686 0.255020 0.000000 
-0.059027 0.226542 0.000000 
-0.018954 0.196558 0.000000 
0.030296 0.165288 0.000000 
0.086536 0.144762 0.000000 
0.141893 0.126030 0.000000 
0.202102 0.096750 0.000000 
0.263408 0.056834 0.000000 
0.311661 0.006847 0.000000 
0.333954 -0.052776 0.000000 
0.338621 -0.113226 0.000000 
0.341530 -0.167165 0.000000 
0.353165 -0.217353 0.000000 
0.365710 -0.275776 0.000000 
0.363543 -0.345305 0.000000 
0.357353 -0.407419 0.000000 
0.351188 -0.458162 0.000000 
0.363842 -0.505190 0.000000 
-1.737069 -0.371841 0.000000 
-0.199590 0.434357 0.000000 
-0.156305 0.404441 0.000000 
-0.462327 1.670397 0.000000 
0.741313 2.192971 0.000000 
0.482415 -0.515961 0.000000 
0.446104 -0.523857 0.000000 
0.403556 -0.529511 0.000000 
-0.104001 0.376376 0.000000 
-0.514998 1.602451 0.000000 
-0.059937 0.341971 0.000000 
0.738519 2.167706 0.000000 
0.714572 2.180006 0.000000 
-0.249752 0.461180 0.000000 
-0.036232 0.298173 0.000000 
0.000772 0.270341 0.000000 
0.035161 0.244696 0.000000 
-1.776537 -0.371282 0.000000 
-1.836238 -0.367098 0.000000 
-0.309416 0.475281 0.000000 
-0.378944 0.473016 0.000000 
-2.292732 0.352605 0.000000 
-2.315166 0.302614 0.000000 
-2.314418 0.255057 0.000000 
-2.293418 0.208670 0.000000 
-2.279687 0.158791 0.000000 
-2.253462 0.111526 0.000000 
0.075120 0.216953 0.000000 
0.131113 0.204345 0.000000 
-0.977004 0.406329 0.000000 
-0.860050 0.396163 0.000000 
-1.912142 -0.359041 0.000000 
-1.989966 -0.367822 0.000000 
-2.023752 -0.300280 0.000000 
-2.082175 -0.229019 0.000000 
0.723889 2.136193 0.000000 
0.691466 2.155036 0.000000 
0.665980 2.122389 0.000000 
0.704783 2.095121 0.000000 
0.637970 2.084331 0.000000 
0.681732 2.047913 0.000000 
0.670916 2.001737 0.000000 
0.602858 2.052663 0.000000 
0.659584 1.961313 0.000000 
0.560783 2.026292 0.000000 
0.636111 1.925239 0.000000 
0.607495 1.875448 0.000000 
0.595324 1.811968 0.000000 
0.604052 1.747294 0.000000 
0.514160 1.996889 0.000000 
0.453857 1.969444 0.000000 
0.392525 1.967465 0.000000 
0.334098 1.965937 0.000000 
0.278675 1.947183 0.000000 
0.217273 1.929108 0.000000 
0.149449 1.911752 0.000000 
0.614128 1.695019 0.000000 
0.621313 1.647439 0.000000 
0.624262 1.602560 0.000000 
-2.197766 0.058337 0.000000 
-2.158682 -0.016586 0.000000 
-2.124695 0.117667 0.000000 
-2.150589 -0.182713 0.000000 
-2.141926 -0.105167 0.000000 
-0.393439 -0.521727 0.000000 
-0.412631 -0.477684 0.000000 
-0.436983 -0.437080 0.000000 
-0.445953 -0.393661 0.000000 
-0.458251 -0.360835 0.000000 
-0.479726 -0.326068 0.000000 
-0.496934 -0.277338 0.000000 
-0.509002 -0.222254 0.000000 
-0.517157 -0.167923 0.000000 
-0.545309 -0.116648 0.000000 
-0.442273 -0.519122 0.000000 
-0.496002 -0.509604 0.000000 
-0.557668 -0.511711 0.000000 
-0.618975 -0.496231 0.000000 
-0.334659 2.134788 0.000000 
-0.367985 2.105070 0.000000 
-0.385153 2.068644 0.000000 
-0.396797 2.034777 0.000000 
-0.406285 1.999255 0.000000 
-0.402558 1.960122 0.000000 
-0.406645 1.921678 0.000000 
-0.418378 1.889264 0.000000 
-0.428059 1.860139 0.000000 
-0.435849 1.830591 0.000000 
-0.442335 1.800556 0.000000 
-0.445406 1.767491 0.000000 
-0.444483 1.721775 0.000000 
0.619822 1.556828 0.000000 
-1.077870 0.453393 0.000000 
-1.149036 0.411434 0.000000 
-1.174735 0.336591 0.000000 
-1.192231 0.284868 0.000000 
-1.210811 0.243091 0.000000 
-1.228352 0.203752 0.000000 
-1.238869 0.165772 0.000000 
-1.244643 0.134275 0.000000 
-1.248534 0.109374 0.000000 
-1.252336 0.090086 0.000000 
-1.262323 0.076834 0.000000 
-1.280319 0.065918 0.000000 
-0.451814 0.450356 0.000000 
-0.526928 0.406834 0.000000 
0.194935 0.187353 0.000000 
0.069048 1.897653 0.000000 
-0.574175 0.336150 0.000000 
-0.593607 0.255047 0.000000 
-1.764101 0.294732 0.000000 
-2.210991 0.413588 0.000000 
-0.825996 0.310886 0.000000 
-0.799223 0.239806 0.000000 
-0.760911 0.173373 0.000000 
0.605964 1.505876 0.000000 
0.587834 1.448516 0.000000 
0.576354 1.388667 0.000000 
0.574971 1.333659 0.000000 
0.580375 1.290634 0.000000 
0.545179 1.268250 0.000000 
0.509957 1.235988 0.000000 
0.484198 1.199585 0.000000 
0.468721 1.168431 0.000000 
0.449386 1.149900 0.000000 
0.422962 1.137235 0.000000 
0.391379 1.118084 0.000000 
0.357154 1.094020 0.000000 
0.323730 1.065648 0.000000 
-0.582151 -0.055781 0.000000 
0.265957 0.160923 0.000000 
0.333763 0.114794 0.000000 
0.378371 0.047778 0.000000 
0.400918 -0.026617 0.000000 
0.401084 -0.089605 0.000000 
0.404345 -0.143706 0.000000 
0.432648 -0.194788 0.000000 
0.450030 -0.259229 0.000000 
0.529803 -0.106076 0.000000 
0.491947 -0.154214 0.000000 
0.453243 -0.104330 0.000000 
0.449550 -0.333554 0.000000 
0.498420 -0.060203 0.000000 
0.474171 -0.000261 0.000000 
0.457863 0.074312 0.000000 
0.462195 -0.392208 0.000000 
0.478704 -0.438544 0.000000 
0.483460 -0.479510 0.000000 
0.412910 -0.417849 0.000000 
0.398390 -0.456563 0.000000 
0.404290 -0.490850 0.000000 
0.442452 -0.486292 0.000000 
0.436659 -0.451127 0.000000 
-0.727378 0.099240 0.000000 
-0.616071 0.181258 0.000000 
-0.623548 0.106977 0.000000 
-0.605779 0.025969 0.000000 
-0.706340 0.013521 0.000000 
-0.681483 -0.072740 0.000000 
-0.032304 1.892092 0.000000 
-0.128010 1.928242 0.000000 
-0.195732 1.995365 0.000000 
-0.243911 2.049279 0.000000 
-0.287859 2.096683 0.000000 
-0.335518 2.068987 0.000000 
-0.667608 -0.158121 0.000000 
-0.584906 -0.164889 0.000000 
-0.658169 -0.238130 0.000000 
-0.578442 -0.230260 0.000000 
-0.639050 -0.309573 0.000000 
-0.607982 -0.385090 0.000000 
-0.562541 -0.292959 0.000000 
-0.536184 -0.353982 0.000000 
-0.495978 -0.391944 0.000000 
-0.500680 -0.444338 0.000000 
-0.573051 -0.448791 0.000000 
-2.690892 1.665386 0.000000 
-2.684799 1.579374 0.000000 
-2.602920 1.578112 0.000000 
-2.574381 1.663105 0.000000 
-2.518122 1.597979 0.000000 
-2.424460 1.621877 0.000000 
-2.320006 1.612946 0.000000 
-2.229986 1.589328 0.000000 
-2.146342 1.548088 0.000000 
-1.455055 -0.113521 0.000000 
-1.387692 -0.033197 0.000000 
-1.339496 0.020131 0.000000 
-1.304977 0.048691 0.000000 
-1.531301 -0.048028 0.000000 
-1.604385 -0.003915 0.000000 
-1.592423 0.096765 0.000000 
-1.608296 0.220728 0.000000 
-1.827918 0.419174 0.000000 
0.477873 0.187977 0.000000 
0.477147 0.222875 0.000000 
0.465631 0.257116 0.000000 
-0.587742 1.701325 0.000000 
-0.593403 1.725429 0.000000 
-0.604579 1.738084 0.000000 
-0.619289 1.743770 0.000000 
-0.639577 1.741597 0.000000 
-0.665912 1.743213 0.000000 
-0.697937 1.750200 0.000000 
-0.595692 1.647836 0.000000 
-0.726123 1.765012 0.000000 
-0.757398 1.775582 0.000000 
-0.794522 1.773007 0.000000 
-0.841416 1.770429 0.000000 
-0.894922 1.771790 0.000000 
-0.956071 1.780205 0.000000 
-1.020951 1.799127 0.000000 
-1.077937 1.826762 0.000000 
-1.120258 1.855490 0.000000 
-1.171769 1.831229 0.000000 
0.332207 0.384620 0.000000 
0.333662 0.342885 0.000000 
0.321472 0.413237 0.000000 
0.302407 0.440050 0.000000 
0.214022 0.454712 0.000000 
0.194081 0.515736 0.000000 
0.186716 0.571249 0.000000 
0.189303 0.624021 0.000000 
0.360023 0.303204 0.000000 
0.405131 0.278070 0.000000 
0.201671 0.673267 0.000000 
0.218038 0.723528 0.000000 
0.236652 0.772462 0.000000 
0.256885 0.814396 0.000000 
0.278373 0.842890 0.000000 
0.284019 0.876288 0.000000 
0.276718 0.923035 0.000000 
0.278735 0.979848 0.000000 
0.296322 1.030116 0.000000 
-1.507867 1.782987 0.000000 
-1.548116 1.758345 0.000000 
-1.598023 1.730965 0.000000 
-1.467251 1.797761 0.000000 
-1.422160 1.805044 0.000000 
-1.373311 1.811761 0.000000 
-1.322903 1.819537 0.000000 
-1.275577 1.828783 0.000000 
-1.225048 1.827384 0.000000 
-1.662214 1.707296 0.000000 
-1.732600 1.687356 0.000000 
-1.794687 1.672981 0.000000 
-1.841773 1.643794 0.000000 
-2.078405 0.711066 0.000000 
-2.079214 0.789656 0.000000 
-2.097651 0.633466 0.000000 
-2.129318 0.561727 0.000000 
-2.096743 0.870218 0.000000 
-2.169699 0.506384 0.000000 
-1.991686 0.433384 0.000000 
-1.642187 0.358940 0.000000 
-1.989898 0.266159 0.000000 
-2.064526 0.194346 0.000000 
-1.914688 0.339693 0.000000 
-2.037969 1.122770 0.000000 
-2.021377 1.007085 0.000000 
-2.055796 1.251932 0.000000 
-2.102728 1.354585 0.000000 
-2.047875 1.496887 0.000000 
0.428030 0.243618 0.000000 
0.375625 0.222382 0.000000 
0.313454 0.235483 0.000000 
0.290352 0.381518 0.000000 
0.238487 1.092435 0.000000 
0.440631 0.205511 0.000000 
0.396678 0.165734 0.000000 
0.460488 0.139813 0.000000 
0.523747 1.315925 0.000000 
-2.262588 0.279180 0.000000 
-2.220468 0.335207 0.000000 
-2.218579 0.225669 0.000000 
-2.146376 0.277519 0.000000 
-2.206503 0.160598 0.000000 
0.473879 1.277313 0.000000 
0.446488 1.224982 0.000000 
0.440978 1.180963 0.000000 
0.409581 1.173108 0.000000 
0.629179 2.002003 0.000000 
0.593839 1.969530 0.000000 
0.550362 1.925326 0.000000 
0.483841 1.884903 0.000000 
0.202470 1.026071 0.000000 
0.241245 0.878295 0.000000 
0.205152 0.853495 0.000000 
0.175878 0.805354 0.000000 
0.153326 0.746848 0.000000 
0.132079 0.686398 0.000000 
0.113278 0.621942 0.000000 
0.106000 0.553619 0.000000 
0.109640 0.484422 0.000000 
0.121648 0.413744 0.000000 
0.032483 0.324130 0.000000 
0.246820 0.406809 0.000000 
0.099619 0.272495 0.000000 
0.373127 1.158226 0.000000 
-0.307911 2.021365 0.000000 
-0.360136 2.002896 0.000000 
-0.343252 1.948550 0.000000 
-0.270247 1.956695 0.000000 
0.168337 0.269014 0.000000 
0.242346 0.258677 0.000000 
0.270369 0.327713 0.000000 
0.505525 1.383687 0.000000 
-0.689828 0.210942 0.000000 
-0.729540 0.268346 0.000000 
-0.746154 0.342818 0.000000 
-0.657668 0.359382 0.000000 
-0.661195 0.275095 0.000000 
-0.924642 0.512058 0.000000 
-1.137284 1.775421 0.000000 
-1.072920 1.730827 0.000000 
-1.248127 1.787718 0.000000 
-1.304069 1.771396 0.000000 
-1.360197 1.763736 0.000000 
-1.411221 1.759596 0.000000 
-1.453165 1.756366 0.000000 
-1.486003 1.738904 0.000000 
-1.510814 1.695435 0.000000 
-1.558800 1.650766 0.000000 
-0.995058 1.704074 0.000000 
-0.919611 1.693598 0.000000 
-0.852227 1.700530 0.000000 
-0.796966 1.717049 0.000000 
-0.752732 1.736217 0.000000 
-1.635591 1.623433 0.000000 
-1.992480 0.898135 0.000000 
-1.965104 0.788355 0.000000 
-1.974377 0.685023 0.000000 
-2.014368 0.591401 0.000000 
-2.065453 0.508215 0.000000 
-2.071492 0.355148 0.000000 
-2.131272 0.438685 0.000000 
-1.712039 1.610110 0.000000 
-1.781280 1.610061 0.000000 
-1.884796 1.580004 0.000000 
0.516332 1.799667 0.000000 
0.538779 1.728538 0.000000 
0.517174 1.458072 0.000000 
0.552532 1.520008 0.000000 
0.576896 1.561935 0.000000 
0.583356 1.598961 0.000000 
0.576083 1.635965 0.000000 
0.562288 1.678326 0.000000 