# vtk DataFile Version 3.0 
vtk output 
ASCII 
DATASET UNSTRUCTURED_GRID 
POINTS 899 float 
-3.648847 2.153214 0.000000 
-3.619410 2.112662 0.000000 
-3.578536 2.077067 0.000000 
-3.540028 2.041416 0.000000 
-3.511690 2.009221 0.000000 
-3.481362 1.979363 0.000000 
-3.451569 1.938689 0.000000 
0.772356 2.055728 0.000000 
0.774615 2.029607 0.000000 
0.769962 2.000852 0.000000 
-3.399514 1.908413 0.000000 
0.413960 -0.736429 0.000000 
0.455573 -0.732126 0.000000 
-1.762619 -0.636324 0.000000 
-1.783389 -0.600928 0.000000 
-1.714437 -0.572139 0.000000 
0.732567 2.050052 0.000000 
0.698438 2.036216 0.000000 
0.491831 -0.717923 0.000000 
0.519501 -0.687518 0.000000 
0.530556 -0.647072 0.000000 
0.532354 -0.601268 0.000000 
0.531774 -0.550761 0.000000 
-3.460923 1.846680 0.000000 
0.663989 2.014270 0.000000 
0.631675 1.986875 0.000000 
0.601833 1.962820 0.000000 
0.569607 1.939562 0.000000 
0.534059 1.917485 0.000000 
0.492599 1.896345 0.000000 
0.444403 1.877680 0.000000 
0.762807 1.959878 0.000000 
-1.708694 -0.537756 0.000000 
-1.726386 -0.497493 0.000000 
-1.761257 -0.473472 0.000000 
-1.812853 -0.465624 0.000000 
-0.690422 -0.717959 0.000000 
-0.624256 -0.735887 0.000000 
-0.561079 -0.744068 0.000000 
-0.500739 -0.745524 0.000000 
-0.445387 -0.745586 0.000000 
0.532260 -0.491677 0.000000 
0.536647 -0.422344 0.000000 
-1.881389 -0.453123 0.000000 
-0.389303 -0.743312 0.000000 
-0.340338 -0.728026 0.000000 
-0.344339 -0.673891 0.000000 
-0.358558 -0.621352 0.000000 
-0.381750 -0.580440 0.000000 
-0.406193 -0.546266 0.000000 
-0.417316 -0.514768 0.000000 
-0.428320 -0.480511 0.000000 
-0.436973 -0.436246 0.000000 
-0.444212 -0.380704 0.000000 
-0.452662 -0.321845 0.000000 
-0.468602 -0.264946 0.000000 
0.553166 -0.357629 0.000000 
0.573193 -0.299958 0.000000 
0.574450 -0.248217 0.000000 
0.561087 -0.197898 0.000000 
0.550432 -0.142575 0.000000 
0.748903 1.906560 0.000000 
0.730940 1.850068 0.000000 
0.715868 1.803909 0.000000 
0.699446 1.767781 0.000000 
0.684888 1.726791 0.000000 
0.675900 1.680587 0.000000 
0.669871 1.631027 0.000000 
0.664455 1.583170 0.000000 
0.668163 1.536751 0.000000 
0.672091 1.486917 0.000000 
0.674558 1.438893 0.000000 
0.673045 1.388814 0.000000 
0.386491 1.868000 0.000000 
0.664855 1.330075 0.000000 
0.652298 1.271998 0.000000 
0.638456 1.218348 0.000000 
0.623121 1.168838 0.000000 
0.616008 1.125810 0.000000 
0.600787 1.090868 0.000000 
0.571289 1.061419 0.000000 
0.539016 1.030258 0.000000 
0.513857 1.001359 0.000000 
0.493343 0.975124 0.000000 
0.469109 0.957311 0.000000 
0.444920 0.940867 0.000000 
0.415324 0.919901 0.000000 
0.383540 0.895149 0.000000 
0.356179 0.865817 0.000000 
0.343879 0.826917 0.000000 
0.337476 0.781396 0.000000 
0.332404 0.736110 0.000000 
0.328512 0.696420 0.000000 
0.319594 0.660341 0.000000 
0.304149 0.626930 0.000000 
0.290502 0.586539 0.000000 
0.275896 0.538676 0.000000 
0.261905 0.496707 0.000000 
0.250150 0.463112 0.000000 
0.250896 0.425307 0.000000 
0.259587 0.382704 0.000000 
0.284617 0.339931 0.000000 
0.315237 0.310269 0.000000 
0.340022 0.290833 0.000000 
0.354380 0.264984 0.000000 
0.368685 0.237841 0.000000 
0.385568 0.211445 0.000000 
0.415372 0.186648 0.000000 
0.447119 0.154936 0.000000 
0.477633 0.127019 0.000000 
0.503078 0.099083 0.000000 
0.518876 0.061028 0.000000 
0.527127 0.025060 0.000000 
0.534187 -0.019486 0.000000 
0.543185 -0.080266 0.000000 
0.322519 1.856944 0.000000 
0.263849 1.843827 0.000000 
0.208223 1.838407 0.000000 
0.150441 1.834579 0.000000 
-0.687392 -0.644892 0.000000 
-3.327058 1.882181 0.000000 
-3.276080 1.835760 0.000000 
-3.224941 1.802173 0.000000 
-3.181728 1.773015 0.000000 
-3.135074 1.736085 0.000000 
-3.078123 1.711792 0.000000 
-1.944260 -0.408245 0.000000 
0.083204 1.839735 0.000000 
0.005786 1.834382 0.000000 
-0.071812 1.843620 0.000000 
-0.135705 1.873162 0.000000 
-0.182391 1.914767 0.000000 
-1.999041 -0.337276 0.000000 
-1.843230 -0.611785 0.000000 
-0.491126 -0.200986 0.000000 
-0.512312 -0.127744 0.000000 
-0.526535 -0.064911 0.000000 
-0.527935 -0.002789 0.000000 
-0.524207 0.064381 0.000000 
-0.505864 0.121513 0.000000 
-0.468875 0.170724 0.000000 
-0.410369 0.199970 0.000000 
-0.354013 0.221087 0.000000 
-0.301050 0.231032 0.000000 
-0.255730 0.231805 0.000000 
-0.695595 -0.566596 0.000000 
-0.726457 -0.489715 0.000000 
-0.747352 -0.420259 0.000000 
-3.396487 1.825046 0.000000 
-3.344056 1.745658 0.000000 
-3.294256 1.702257 0.000000 
-3.248246 1.663933 0.000000 
-3.196818 1.624579 0.000000 
-3.159669 1.573269 0.000000 
-3.113281 1.526565 0.000000 
-3.056061 1.507001 0.000000 
-2.996684 1.484376 0.000000 
-2.933161 1.454760 0.000000 
-2.879064 1.418617 0.000000 
-2.813006 1.393832 0.000000 
-2.751664 1.370782 0.000000 
-2.686782 1.341459 0.000000 
-1.922020 -0.608978 0.000000 
-1.999705 -0.610477 0.000000 
-2.060018 -0.588873 0.000000 
-2.032615 -0.253886 0.000000 
-2.048550 -0.168164 0.000000 
-2.029059 -0.102271 0.000000 
-2.105228 -0.531815 0.000000 
-2.154373 -0.464220 0.000000 
-2.203584 -0.409597 0.000000 
-2.237020 -0.348161 0.000000 
-2.250593 -0.282868 0.000000 
-2.270119 -0.211084 0.000000 
-2.297898 -0.140774 0.000000 
-2.327118 -0.079194 0.000000 
-2.346747 -0.025224 0.000000 
-2.362840 0.027885 0.000000 
-2.374561 0.078930 0.000000 
-2.373128 0.130905 0.000000 
-2.334174 0.197496 0.000000 
-2.331842 0.238114 0.000000 
-2.284565 0.246872 0.000000 
-0.236368 1.964303 0.000000 
-0.299146 2.008129 0.000000 
-0.346614 2.028055 0.000000 
-0.382877 1.991552 0.000000 
-0.412447 1.962502 0.000000 
-0.433989 1.922214 0.000000 
-0.446472 1.879248 0.000000 
-0.451628 1.839930 0.000000 
-0.451047 1.801467 0.000000 
-0.449242 1.765464 0.000000 
-0.453345 1.733574 0.000000 
-0.460251 1.705881 0.000000 
-0.470304 1.677096 0.000000 
-0.475290 1.647606 0.000000 
-0.478341 1.617820 0.000000 
-0.479442 1.581084 0.000000 
-2.609147 1.327670 0.000000 
-2.517189 1.322171 0.000000 
-2.434013 1.322508 0.000000 
-2.352624 1.312476 0.000000 
-2.274410 1.293105 0.000000 
-2.204499 1.258457 0.000000 
-2.180326 1.189574 0.000000 
-2.178559 1.101038 0.000000 
-2.168273 1.011009 0.000000 
-2.159086 0.912945 0.000000 
-2.144575 0.823786 0.000000 
-2.163040 0.748569 0.000000 
-2.183612 0.674477 0.000000 
-2.172907 0.609920 0.000000 
-2.161614 0.547165 0.000000 
-2.169833 0.487053 0.000000 
-2.188987 0.425299 0.000000 
-2.218663 0.374054 0.000000 
-2.229021 0.318181 0.000000 
-2.997130 1.694995 0.000000 
-3.021908 1.596857 0.000000 
-2.902046 1.663488 0.000000 
-0.770600 -0.337666 0.000000 
-0.790096 -0.246007 0.000000 
-0.811857 -0.165299 0.000000 
-0.835807 -0.086735 0.000000 
-0.859157 -0.016607 0.000000 
-0.881226 0.043444 0.000000 
-0.903169 0.102795 0.000000 
-0.928196 0.166839 0.000000 
-2.785442 1.630934 0.000000 
-2.944278 1.570192 0.000000 
-2.855014 1.533047 0.000000 
-2.796189 1.472967 0.000000 
-2.651235 1.616188 0.000000 
-2.517962 1.605841 0.000000 
-2.394240 1.596678 0.000000 
-2.275192 1.588682 0.000000 
-2.180847 1.564121 0.000000 
-2.099904 1.537641 0.000000 
-2.018420 1.506402 0.000000 
-1.945469 1.510699 0.000000 
-1.885190 1.544039 0.000000 
-1.829736 1.564608 0.000000 
-1.760875 1.589839 0.000000 
-1.680504 1.618264 0.000000 
-1.617798 1.636580 0.000000 
-1.570169 1.651104 0.000000 
-1.527149 1.665294 0.000000 
-1.482581 1.677423 0.000000 
-1.433927 1.683964 0.000000 
-1.386311 1.691878 0.000000 
-1.337319 1.700609 0.000000 
-1.286363 1.707688 0.000000 
-1.235962 1.708406 0.000000 
-1.188452 1.713219 0.000000 
-1.140860 1.722670 0.000000 
-1.091558 1.721979 0.000000 
-1.038962 1.710961 0.000000 
-0.982519 1.691963 0.000000 
-0.922315 1.675220 0.000000 
-0.869867 1.664896 0.000000 
-0.827747 1.658406 0.000000 
-0.785371 1.653494 0.000000 
-0.748025 1.643757 0.000000 
-0.712781 1.633490 0.000000 
-0.681690 1.619558 0.000000 
-0.657198 1.608424 0.000000 
-0.633895 1.601761 0.000000 
-0.612002 1.597305 0.000000 
-0.594184 1.590093 0.000000 
-0.577381 1.580642 0.000000 
-0.560109 1.565359 0.000000 
-0.540091 1.532905 0.000000 
-1.243914 -0.105941 0.000000 
-1.232782 -0.092224 0.000000 
-1.257376 -0.120295 0.000000 
-1.224378 -0.073524 0.000000 
-1.271472 -0.139640 0.000000 
-1.215702 -0.051528 0.000000 
-1.204660 -0.025471 0.000000 
-1.290143 -0.167382 0.000000 
-1.314447 -0.212422 0.000000 
-1.190204 0.004835 0.000000 
-1.318041 -0.265776 0.000000 
-1.171655 0.038992 0.000000 
-1.149359 0.075306 0.000000 
-1.123094 0.113554 0.000000 
-1.284246 -0.315756 0.000000 
-1.239750 -0.366482 0.000000 
-1.083297 0.157546 0.000000 
-1.028190 0.189217 0.000000 
-1.181630 -0.408838 0.000000 
-1.112789 -0.440266 0.000000 
-1.040643 -0.452436 0.000000 
-0.978118 -0.455523 0.000000 
-0.927392 -0.468548 0.000000 
-0.889718 -0.507683 0.000000 
-0.873564 -0.564233 0.000000 
-0.920771 -0.596427 0.000000 
-0.935346 -0.529159 0.000000 
-0.991249 -0.606003 0.000000 
-1.088918 -0.603275 0.000000 
-1.067426 -0.523623 0.000000 
-1.189474 -0.595712 0.000000 
-1.147229 -0.510956 0.000000 
-1.266509 -0.572422 0.000000 
-1.219913 -0.484778 0.000000 
-1.335307 -0.536595 0.000000 
-1.284456 -0.446779 0.000000 
-1.402357 -0.492691 0.000000 
-1.341444 -0.398979 0.000000 
-1.466758 -0.440016 0.000000 
-1.539152 -0.379217 0.000000 
-1.393011 -0.341048 0.000000 
-1.612839 -0.308945 0.000000 
-1.665320 -0.251367 0.000000 
-1.691220 -0.186540 0.000000 
-1.704696 -0.101046 0.000000 
-1.850073 0.065823 0.000000 
-1.911042 0.009998 0.000000 
-1.969645 -0.046839 0.000000 
-1.726970 0.005364 0.000000 
-0.222881 0.213194 0.000000 
-0.195707 0.185611 0.000000 
-0.164205 0.148664 0.000000 
-0.127520 0.115966 0.000000 
-0.095686 0.086474 0.000000 
-0.059027 0.057996 0.000000 
-0.018954 0.028012 0.000000 
0.030296 -0.003258 0.000000 
0.086536 -0.023784 0.000000 
0.141893 -0.042515 0.000000 
0.202102 -0.071795 0.000000 
0.263408 -0.111712 0.000000 
0.311661 -0.161699 0.000000 
0.333954 -0.221322 0.000000 
0.338621 -0.281772 0.000000 
0.341530 -0.335710 0.000000 
0.353165 -0.385899 0.000000 
0.365710 -0.444322 0.000000 
[...]
POINT_DATA 899 
VECTORS X_GC float 
-3.648847 2.153214 0.000000 
-3.619410 2.112662 0.000000 
-3.578536 2.077067 0.000000 
-3.540028 2.041416 0.000000 
-3.511690 2.009221 0.000000 
-3.481362 1.979363 0.000000 
-3.451569 1.938689 0.000000 
0.772356 2.055728 0.000000 
0.774615 2.029607 0.000000 
0.769962 2.000852 0.000000 
-3.399514 1.908413 0.000000 
0.413960 -0.736429 0.000000 
0.455573 -0.732126 0.000000 
-1.762619 -0.636324 0.000000 
-1.783389 -0.600928 0.000000 
-1.714437 -0.572139 0.000000 
0.732567 2.050052 0.000000 
0.698438 2.036216 0.000000 
0.491831 -0.717923 0.000000 
0.519501 -0.687518 0.000000 
0.530556 -0.647072 0.000000 
0.532354 -0.601268 0.000000 
0.531774 -0.550761 0.000000 
-3.460923 1.846680 0.000000 
0.663989 2.014270 0.000000 
0.631675 1.986875 0.000000 
0.601833 1.962820 0.000000 
0.569607 1.939562 0.000000 
0.534059 1.917485 0.000000 
0.492599 1.896345 0.000000 
0.444403 1.877680 0.000000 
0.762807 1.959878 0.000000 
-1.708694 -0.537756 0.000000 
-1.726386 -0.497493 0.000000 
-1.761257 -0.473472 0.000000 
-1.812853 -0.465624 0.000000 
-0.690422 -0.717959 0.000000 
-0.624256 -0.735887 0.000000 
-0.561079 -0.744068 0.000000 
-0.500739 -0.745524 0.000000 
-0.445387 -0.745586 0.000000 
0.532260 -0.491677 0.000000 
0.536647 -0.422344 0.000000 
-1.881389 -0.453123 0.000000 
-0.389303 -0.743312 0.000000 
-0.340338 -0.728026 0.000000 
-0.344339 -0.673891 0.000000 
-0.358558 -0.621352 0.000000 
-0.381750 -0.580440 0.000000 
-0.406193 -0.546266 0.000000 
-0.417316 -0.514768 0.000000 
-0.428320 -0.480511 0.000000 
-0.436973 -0.436246 0.000000 
-0.444212 -0.380704 0.000000 
-0.452662 -0.321845 0.000000 
-0.468602 -0.264946 0.000000 
0.553166 -0.357629 0.000000 
0.573193 -0.299958 0.000000 
0.574450 -0.248217 0.000000 
0.561087 -0.197898 0.000000 
0.550432 -0.142575 0.000000 
0.748903 1.906560 0.000000 
0.730940 1.850068 0.000000 
0.715868 1.803909 0.000000 
0.699446 1.767781 0.000000 
0.684888 1.726791 0.000000 
0.675900 1.680587 0.000000 
0.669871 1.631027 0.000000 
0.664455 1.583170 0.000000 
0.668163 1.536751 0.000000 
0.672091 1.486917 0.000000 
0.674558 1.438893 0.000000 
0.673045 1.388814 0.000000 
0.386491 1.868000 0.000000 
0.664855 1.330075 0.000000 
0.652298 1.271998 0.000000 
0.638456 1.218348 0.000000 
0.623121 1.168838 0.000000 
0.616008 1.125810 0.000000 
0.600787 1.090868 0.000000 
0.571289 1.061419 0.000000 
0.539016 1.030258 0.000000 
0.513857 1.001359 0.000000 
0.493343 0.975124 0.000000 
0.469109 0.957311 0.000000 
0.444920 0.940867 0.000000 
0.415324 0.919901 0.000000 
0.383540 0.895149 0.000000 
0.356179 0.865817 0.000000 
0.343879 0.826917 0.000000 
0.337476 0.781396 0.000000 
0.332404 0.736110 0.000000 
0.328512 0.696420 0.000000 
0.319594 0.660341 0.000000 
0.304149 0.626930 0.000000 
0.290502 0.586539 0.000000 
0.275896 0.538676 0.000000 
0.261905 0.496707 0.000000 
0.250150 0.463112 0.000000 
0.250896 0.425307 0.000000 
0.259587 0.382704 0.000000 
0.284617 0.339931 0.000000 
0.315237 0.310269 0.000000 
0.340022 0.290833 0.000000 
0.354380 0.264984 0.000000 
0.368685 0.237841 0.000000 
0.385568 0.211445 0.000000 
0.415372 0.186648 0.000000 
0.447119 0.154936 0.000000 
0.477633 0.127019 0.000000 
0.503078 0.099083 0.000000 
0.518876 0.061028 0.000000 
0.527127 0.025060 0.000000 
0.534187 -0.019486 0.000000 
0.543185 -0.080266 0.000000 
0.322519 1.856944 0.000000 
0.263849 1.843827 0.000000 
0.208223 1.838407 0.000000 
0.150441 1.834579 0.000000 
-0.687392 -0.644892 0.000000 
-3.327058 1.882181 0.000000 
-3.276080 1.835760 0.000000 
-3.224941 1.802173 0.000000 
-3.181728 1.773015 0.000000 
-3.135074 1.736085 0.000000 
-3.078123 1.711792 0.000000 
-1.944260 -0.408245 0.000000 
0.083204 1.839735 0.000000 
0.005786 1.834382 0.000000 
-0.071812 1.843620 0.000000 
-0.135705 1.873162 0.000000 
-0.182391 1.914767 0.000000 
-1.999041 -0.337276 0.000000 
-1.843230 -0.611785 0.000000 
-0.491126 -0.200986 0.000000 
-0.512312 -0.127744 0.000000 
-0.526535 -0.064911 0.000000 
-0.527935 -0.002789 0.000000 
-0.524207 0.064381 0.000000 
-0.505864 0.121513 0.000000 
-0.468875 0.170724 0.000000 
-0.410369 0.199970 0.000000 
-0.354013 0.221087 0.000000 
-0.301050 0.231032 0.000000 
-0.255730 0.231805 0.000000 
-0.695595 -0.566596 0.000000 
-0.726457 -0.489715 0.000000 
-0.747352 -0.420259 0.000000 
-3.396487 1.825046 0.000000 
-3.344056 1.745658 0.000000 
-3.294256 1.702257 0.000000 
-3.248246 1.663933 0.000000 
-3.196818 1.624579 0.000000 
-3.159669 1.573269 0.000000 
-3.113281 1.526565 0.000000 
-3.056061 1.507001 0.000000 
-2.996684 1.484376 0.000000 
-2.933161 1.454760 0.000000 
-2.879064 1.418617 0.000000 
-2.813006 1.393832 0.000000 
-2.751664 1.370782 0.000000 
-2.686782 1.341459 0.000000 
-1.922020 -0.608978 0.000000 
-1.999705 -0.610477 0.000000 
-2.060018 -0.588873 0.000000 
-2.032615 -0.253886 0.000000 
-2.048550 -0.168164 0.000000 
-2.029059 -0.102271 0.000000 
-2.105228 -0.531815 0.000000 
-2.154373 -0.464220 0.000000 
-2.203584 -0.409597 0.000000 
-2.237020 -0.348161 0.000000 
-2.250593 -0.282868 0.000000 
-2.270119 -0.211084 0.000000 
-2.297898 -0.140774 0.000000 
-2.327118 -0.079194 0.000000 
-2.346747 -0.025224 0.000000 
-2.362840 0.027885 0.000000 
-2.374561 0.078930 0.000000 
-2.373128 0.130905 0.000000 
-2.334174 0.197496 0.000000 
-2.331842 0.238114 0.000000 
-2.284565 0.246872 0.000000 
-0.236368 1.964303 0.000000 
-0.299146 2.008129 0.000000 
-0.346614 2.028055 0.000000 
-0.382877 1.991552 0.000000 
-0.412447 1.962502 0.000000 
-0.433989 1.922214 0.000000 
-0.446472 1.879248 0.000000 
-0.451628 1.839930 0.000000 
-0.451047 1.801467 0.000000 
-0.449242 1.765464 0.000000 
-0.453345 1.733574 0.000000 
-0.460251 1.705881 0.000000 
-0.470304 1.677096 0.000000 
-0.475290 1.647606 0.000000 
-0.478341 1.617820 0.000000 
-0.479442 1.581084 0.000000 
-2.609147 1.327670 0.000000 
-2.517189 1.322171 0.000000 
-2.434013 1.322508 0.000000 
-2.352624 1.312476 0.000000 
-2.274410 1.293105 0.000000 
-2.204499 1.258457 0.000000 
-2.180326 1.189574 0.000000 
-2.178559 1.101038 0.000000 
-2.168273 1.011009 0.000000 
-2.159086 0.912945 0.000000 
-2.144575 0.823786 0.000000 
-2.163040 0.748569 0.000000 
-2.183612 0.674477 0.000000 
-2.172907 0.609920 0.000000 
-2.161614 0.547165 0.000000 
-2.169833 0.487053 0.000000 
-2.188987 0.425299 0.000000 
-2.218663 0.374054 0.000000 
-2.229021 0.318181 0.000000 
-2.997130 1.694995 0.000000 
-3.021908 1.596857 0.000000 
-2.902046 1.663488 0.000000 
-0.770600 -0.337666 0.000000 
-0.790096 -0.246007 0.000000 
-0.811857 -0.165299 0.000000 
-0.835807 -0.086735 0.000000 
-0.859157 -0.016607 0.000000 
-0.881226 0.043444 0.000000 
-0.903169 0.102795 0.000000 
-0.928196 0.166839 0.000000 
-2.785442 1.630934 0.000000 
-2.944278 1.570192 0.000000 
-2.855014 1.533047 0.000000 
-2.796189 1.472967 0.000000 
-2.651235 1.616188 0.000000 
-2.517962 1.605841 0.000000 
-2.394240 1.596678 0.000000 
-2.275192 1.588682 0.000000 
-2.180847 1.564121 0.000000 
-2.099904 1.537641 0.000000 
-2.018420 1.506402 0.000000 
-1.945469 1.510699 0.000000 
-1.885190 1.544039 0.000000 
-1.829736 1.564608 0.000000 
-1.760875 1.589839 0.000000 
-1.680504 1.618264 0.000000 
-1.617798 1.636580 0.000000 
-1.570169 1.651104 0.000000 
-1.527149 1.665294 0.000000 
-1.482581 1.677423 0.000000 
-1.433927 1.683964 0.000000 
-1.386311 1.691878 0.000000 
-1.337319 1.700609 0.000000 
-1.286363 1.707688 0.000000 
-1.235962 1.708406 0.000000 
-1.188452 1.713219 0.000000 
-1.140860 1.722670 0.000000 
-1.091558 1.721979 0.000000 
-1.038962 1.710961 0.000000 
-0.982519 1.691963 0.000000 
-0.922315 1.675220 0.000000 
-0.869867 1.664896 0.000000 
-0.827747 1.658406 0.000000 
-0.785371 1.653494 0.000000 
-0.748025 1.643757 0.000000 
-0.712781 1.633490 0.000000 
-0.681690 1.619558 0.000000 
-0.657198 1.608424 0.000000 
-0.633895 1.601761 0.000000 
-0.612002 1.597305 0.000000 
-0.594184 1.590093 0.000000 
-0.577381 1.580642 0.000000 
-0.560109 1.565359 0.000000 
-0.540091 1.532905 0.000000 
-1.243914 -0.105941 0.000000 
-1.232782 -0.092224 0.000000 
-1.257376 -0.120295 0.000000 
-1.224378 -0.073524 0.000000 
-1.271472 -0.139640 0.000000 
-1.215702 -0.051528 0.000000 
-1.204660 -0.025471 0.000000 
-1.290143 -0.167382 0.000000 
-1.314447 -0.212422 0.000000 
-1.190204 0.004835 0.000000 
-1.318041 -0.265776 0.000000 
-1.171655 0.038992 0.000000 
-1.149359 0.075306 0.000000 
-1.123094 0.113554 0.000000 
-1.284246 -0.315756 0.000000 
-1.239750 -0.366482 0.000000 
-1.083297 0.157546 0.000000 
-1.028190 0.189217 0.000000 
-1.181630 -0.408838 0.000000 
-1.112789 -0.440266 0.000000 
-1.040643 -0.452436 0.000000 
-0.978118 -0.455523 0.000000 
-0.927392 -0.468548 0.000000 
-0.889718 -0.507683 0.000000 
-0.873564 -0.564233 0.000000 
-0.920771 -0.596427 0.000000 
-0.935346 -0.529159 0.000000 
-0.991249 -0.606003 0.000000 
-1.088918 -0.603275 0.000000 
-1.067426 -0.523623 0.000000 
-1.189474 -0.595712 0.000000 
-1.147229 -0.510956 0.000000 
-1.266509 -0.572422 0.000000 
-1.219913 -0.484778 0.000000 
-1.335307 -0.536595 0.000000 
-1.284456 -0.446779 0.000000 
-1.402357 -0.492691 0.000000 
-1.341444 -0.398979 0.000000 
-1.466758 -0.440016 0.000000 
-1.539152 -0.379217 0.000000 
-1.393011 -0.341048 0.000000 
-1.612839 -0.308945 0.000000 
-1.665320 -0.251367 0.000000 
-1.691220 -0.186540 0.000000 
-1.704696 -0.101046 0.000000 
-1.850073 0.065823 0.000000 
-1.911042 0.009998 0.000000 
-1.969645 -0.046839 0.000000 
-1.726970 0.005364 0.000000 
-0.222881 0.213194 0.000000 
-0.195707 0.185611 0.000000 
-0.164205 0.148664 0.000000 
-0.127520 0.115966 0.000000 
-0.095686 0.086474 0.000000 
-0.059027 0.057996 0.000000 
-0.018954 0.028012 0.000000 
0.030296 -0.003258 0.000000 
0.086536 -0.023784 0.000000 
0.141893 -0.042515 0.000000 
0.202102 -0.071795 0.000000 
0.263408 -0.111712 0.000000 
0.311661 -0.161699 0.000000 
0.333954 -0.221322 0.000000 
0.338621 -0.281772 0.000000 
0.341530 -0.335710 0.000000 
0.353165 -0.385899 0.000000 
0.365710 -0.444322 0.000000 
0.363543 -0.513850 0.000000 
0.357353 -0.575965 0.000000 
0.351188 -0.626707 0.000000 
0.363842 -0.673735 0.000000 
-1.737069 -0.540387 0.000000 
-0.199590 0.265811 0.000000 
-0.156305 0.235895 0.000000 
-0.462327 1.501851 0.000000 
0.741313 2.024426 0.000000 
0.482415 -0.684506 0.000000 
0.446104 -0.692402 0.000000 
0.403556 -0.698057 0.000000 
-0.104001 0.207830 0.000000 
-0.514998 1.433906 0.000000 
-0.059937 0.173426 0.000000 
0.738519 1.999161 0.000000 
0.714572 2.011461 0.000000 
-0.249752 0.292635 0.000000 
-0.036232 0.129627 0.000000 
0.000772 0.101795 0.000000 
0.035161 0.076150 0.000000 
-1.776537 -0.539828 0.000000 
-1.836238 -0.535643 0.000000 
-0.309416 0.306735 0.000000 
-0.378944 0.304471 0.000000 
-2.292732 0.184059 0.000000 
-2.315166 0.134068 0.000000 
-2.314418 0.086511 0.000000 
-2.293418 0.040125 0.000000 
-2.279687 -0.009754 0.000000 
-2.253462 -0.057020 0.000000 
0.075120 0.048408 0.000000 
0.131113 0.035800 0.000000 
-0.977004 0.237783 0.000000 
-0.860050 0.227618 0.000000 
-1.912142 -0.527587 0.000000 
-1.989966 -0.536367 0.000000 
-2.023752 -0.468825 0.000000 
-2.082175 -0.397564 0.000000 
0.723889 1.967647 0.000000 
0.691466 1.986490 0.000000 
0.665980 1.953844 0.000000 
0.704783 1.926575 0.000000 
0.637970 1.915786 0.000000 
0.681732 1.879367 0.000000 
0.670916 1.833192 0.000000 
0.602858 1.884118 0.000000 
0.659584 1.792768 0.000000 
0.560783 1.857747 0.000000 
0.636111 1.756693 0.000000 
0.607495 1.706902 0.000000 
0.595324 1.643422 0.000000 
0.604052 1.578749 0.000000 
0.514160 1.828343 0.000000 
0.453857 1.800898 0.000000 
0.392525 1.798920 0.000000 
0.334098 1.797391 0.000000 
0.278675 1.778638 0.000000 
0.217273 1.760562 0.000000 
0.149449 1.743207 0.000000 
0.614128 1.526473 0.000000 
0.621313 1.478894 0.000000 
0.624262 1.434014 0.000000 
-2.197766 -0.110208 0.000000 
-2.158682 -0.185132 0.000000 
-2.124695 -0.050878 0.000000 
-2.150589 -0.351259 0.000000 
-2.141926 -0.273713 0.000000 
-0.393439 -0.690273 0.000000 
-0.412631 -0.646230 0.000000 
-0.436983 -0.605626 0.000000 
-0.445953 -0.562207 0.000000 
-0.458251 -0.529381 0.000000 
-0.479726 -0.494614 0.000000 
-0.496934 -0.445883 0.000000 
-0.509002 -0.390800 0.000000 
-0.517157 -0.336469 0.000000 
-0.545309 -0.285194 0.000000 
-0.442273 -0.687667 0.000000 
-0.496002 -0.678150 0.000000 
-0.557668 -0.680257 0.000000 
-0.618975 -0.664776 0.000000 
-0.334659 1.966242 0.000000 
-0.367985 1.936525 0.000000 
-0.385153 1.900099 0.000000 
-0.396797 1.866232 0.000000 
-0.406285 1.830709 0.000000 
-0.402558 1.791576 0.000000 
-0.406645 1.753133 0.000000 
-0.418378 1.720718 0.000000 
-0.428059 1.691593 0.000000 
-0.435849 1.662046 0.000000 
-0.442335 1.632011 0.000000 
-0.445406 1.598946 0.000000 
-0.444483 1.553229 0.000000 
0.619822 1.388282 0.000000 
-1.077870 0.284847 0.000000 
-1.149036 0.242888 0.000000 
-1.174735 0.168046 0.000000 
-1.192231 0.116322 0.000000 
-1.210811 0.074546 0.000000 
-1.228352 0.035206 0.000000 
-1.238869 -0.002774 0.000000 
-1.244643 -0.034271 0.000000 
-1.248534 -0.059172 0.000000 
-1.252336 -0.078460 0.000000 
-1.262323 -0.091711 0.000000 
-1.280319 -0.102627 0.000000 
-0.451814 0.281811 0.000000 
-0.526928 0.238289 0.000000 
0.194935 0.018808 0.000000 
0.069048 1.729107 0.000000 
-0.574175 0.167605 0.000000 
-0.593607 0.086502 0.000000 
-1.764101 0.126186 0.000000 
-2.210991 0.245043 0.000000 
-0.825996 0.142341 0.000000 
-0.799223 0.071260 0.000000 
-0.760911 0.004827 0.000000 
0.605964 1.337330 0.000000 
0.587834 1.279970 0.000000 
0.576354 1.220122 0.000000 
0.574971 1.165113 0.000000 
0.580375 1.122089 0.000000 
0.545179 1.099705 0.000000 
0.509957 1.067442 0.000000 
0.484198 1.031040 0.000000 
0.468721 0.999886 0.000000 
0.449386 0.981354 0.000000 
0.422962 0.968689 0.000000 
0.391379 0.949538 0.000000 
0.357154 0.925475 0.000000 
0.323730 0.897102 0.000000 
-0.582151 -0.224326 0.000000 
0.265957 -0.007622 0.000000 
0.333763 -0.053752 0.000000 
0.378371 -0.120767 0.000000 
0.400918 -0.195162 0.000000 
0.401084 -0.258151 0.000000 
0.404345 -0.312252 0.000000 
0.432648 -0.363334 0.000000 
0.450030 -0.427775 0.000000 
0.529803 -0.274622 0.000000 
0.491947 -0.322759 0.000000 
0.453243 -0.272876 0.000000 
0.449550 -0.502099 0.000000 
0.498420 -0.228748 0.000000 
0.474171 -0.168807 0.000000 
0.457863 -0.094234 0.000000 
0.462195 -0.560753 0.000000 
0.478704 -0.607089 0.000000 
0.483460 -0.648055 0.000000 
0.412910 -0.586395 0.000000 
0.398390 -0.625108 0.000000 
0.404290 -0.659396 0.000000 
0.442452 -0.654837 0.000000 
0.436659 -0.619673 0.000000 
-0.727378 -0.069306 0.000000 
-0.616071 0.012712 0.000000 
-0.623548 -0.061569 0.000000 
-0.605779 -0.142576 0.000000 
-0.706340 -0.155024 0.000000 
-0.681483 -0.241286 0.000000 
-0.032304 1.723546 0.000000 
-0.128010 1.759696 0.000000 
-0.195732 1.826820 0.000000 
-0.243911 1.880734 0.000000 
-0.287859 1.928137 0.000000 
-0.335518 1.900442 0.000000 
-0.667608 -0.326667 0.000000 
-0.584906 -0.333435 0.000000 
-0.658169 -0.406676 0.000000 
-0.578442 -0.398805 0.000000 
-0.639050 -0.478118 0.000000 
-0.607982 -0.553635 0.000000 
-0.562541 -0.461505 0.000000 
-0.536184 -0.522528 0.000000 
-0.495978 -0.560490 0.000000 
-0.500680 -0.612884 0.000000 
-0.573051 -0.617337 0.000000 
-2.690892 1.496841 0.000000 
-2.684799 1.410828 0.000000 
-2.602920 1.409566 0.000000 
-2.574381 1.494559 0.000000 
-2.518122 1.429433 0.000000 
-2.424460 1.453331 0.000000 
-2.320006 1.444400 0.000000 
-2.229986 1.420782 0.000000 
-2.146342 1.379542 0.000000 
-1.455055 -0.282067 0.000000 
-1.387692 -0.201743 0.000000 
-1.339496 -0.148415 0.000000 
-1.304977 -0.119855 0.000000 
-1.531301 -0.216574 0.000000 
-1.604385 -0.172461 0.000000 
-1.592423 -0.071780 0.000000 
-1.608296 0.052182 0.000000 
-1.827918 0.250628 0.000000 
0.477873 0.019431 0.000000 
0.477147 0.054330 0.000000 
0.465631 0.088570 0.000000 
-0.587742 1.532779 0.000000 
-0.593403 1.556883 0.000000 
-0.604579 1.569539 0.000000 
-0.619289 1.575225 0.000000 
-0.639577 1.573051 0.000000 
-0.665912 1.574668 0.000000 
-0.697937 1.581654 0.000000 
-0.595692 1.479291 0.000000 
-0.726123 1.596466 0.000000 
-0.757398 1.607036 0.000000 
-0.794522 1.604461 0.000000 
-0.841416 1.601883 0.000000 
-0.894922 1.603244 0.000000 
-0.956071 1.611660 0.000000 
-1.020951 1.630581 0.000000 
-1.077937 1.658216 0.000000 
-1.120258 1.686944 0.000000 
-1.171769 1.662684 0.000000 
0.332207 0.216075 0.000000 
0.333662 0.174340 0.000000 
0.321472 0.244691 0.000000 
0.302407 0.271504 0.000000 
0.214022 0.286166 0.000000 
0.194081 0.347191 0.000000 
0.186716 0.402704 0.000000 
0.189303 0.455476 0.000000 
0.360023 0.134658 0.000000 
0.405131 0.109525 0.000000 
0.201671 0.504721 0.000000 
0.218038 0.554983 0.000000 
0.236652 0.603916 0.000000 
0.256885 0.645850 0.000000 
0.278373 0.674344 0.000000 
0.284019 0.707742 0.000000 
0.276718 0.754489 0.000000 
0.278735 0.811303 0.000000 
0.296322 0.861570 0.000000 
-1.507867 1.614442 0.000000 
-1.548116 1.589799 0.000000 
-1.598023 1.562420 0.000000 
-1.467251 1.629215 0.000000 
-1.422160 1.636499 0.000000 
-1.373311 1.643215 0.000000 
-1.322903 1.650992 0.000000 
-1.275577 1.660238 0.000000 
-1.225048 1.658838 0.000000 
-1.662214 1.538750 0.000000 
-1.732600 1.518811 0.000000 
-1.794687 1.504435 0.000000 
-1.841773 1.475248 0.000000 
-2.078405 0.542521 0.000000 
-2.079214 0.621110 0.000000 
-2.097651 0.464921 0.000000 
-2.129318 0.393182 0.000000 
-2.096743 0.701672 0.000000 
-2.169699 0.337838 0.000000 
-1.991686 0.264838 0.000000 
-1.642187 0.190394 0.000000 
-1.989898 0.097613 0.000000 
-2.064526 0.025801 0.000000 
-1.914688 0.171148 0.000000 
-2.037969 0.954224 0.000000 
-2.021377 0.838540 0.000000 
-2.055796 1.083386 0.000000 
-2.102728 1.186039 0.000000 
-2.047875 1.328342 0.000000 
0.428030 0.075072 0.000000 
0.375625 0.053836 0.000000 
0.313454 0.066937 0.000000 
0.290352 0.212972 0.000000 
0.238487 0.923889 0.000000 
0.440631 0.036965 0.000000 
0.396678 -0.002812 0.000000 
0.460488 -0.028733 0.000000 
0.523747 1.147380 0.000000 
-2.262588 0.110634 0.000000 
-2.220468 0.166661 0.000000 
-2.218579 0.057123 0.000000 
-2.146376 0.108973 0.000000 
-2.206503 -0.007947 0.000000 
0.473879 1.108768 0.000000 
0.446488 1.056436 0.000000 
0.440978 1.012417 0.000000 
0.409581 1.004562 0.000000 
0.629179 1.833457 0.000000 
0.593839 1.800984 0.000000 
0.550362 1.756780 0.000000 
0.483841 1.716358 0.000000 
0.202470 0.857525 0.000000 
0.241245 0.709750 0.000000 
0.205152 0.684949 0.000000 
0.175878 0.636808 0.000000 
0.153326 0.578302 0.000000 
0.132079 0.517852 0.000000 
0.113278 0.453396 0.000000 
0.106000 0.385073 0.000000 
0.109640 0.315877 0.000000 
0.121648 0.245199 0.000000 
0.032483 0.155584 0.000000 
0.246820 0.238263 0.000000 
0.099619 0.103950 0.000000 
0.373127 0.989680 0.000000 
-0.307911 1.852820 0.000000 
-0.360136 1.834350 0.000000 
-0.343252 1.780005 0.000000 
-0.270247 1.788149 0.000000 
0.168337 0.100468 0.000000 
0.242346 0.090131 0.000000 
0.270369 0.159167 0.000000 
0.505525 1.215141 0.000000 
-0.689828 0.042396 0.000000 
-0.729540 0.099800 0.000000 
-0.746154 0.174272 0.000000 
-0.657668 0.190837 0.000000 
-0.661195 0.106550 0.000000 
-0.924642 0.343512 0.000000 
-1.137284 1.606876 0.000000 
-1.072920 1.562282 0.000000 
-1.248127 1.619173 0.000000 
-1.304069 1.602850 0.000000 
-1.360197 1.595190 0.000000 
-1.411221 1.591050 0.000000 
-1.453165 1.587821 0.000000 
-1.486003 1.570359 0.000000 
-1.510814 1.526890 0.000000 
-1.558800 1.482221 0.000000 
-0.995058 1.535528 0.000000 
-0.919611 1.525052 0.000000 
-0.852227 1.531984 0.000000 
-0.796966 1.548503 0.000000 
-0.752732 1.567671 0.000000 
-1.635591 1.454888 0.000000 
-1.992480 0.729589 0.000000 
-1.965104 0.619810 0.000000 
-1.974377 0.516477 0.000000 
-2.014368 0.422855 0.000000 
-2.065453 0.339669 0.000000 
-2.071492 0.186602 0.000000 
-2.131272 0.270139 0.000000 
-1.712039 1.441565 0.000000 
-1.781280 1.441515 0.000000 
-1.884796 1.411458 0.000000 
0.516332 1.631121 0.000000 
0.538779 1.559993 0.000000 
0.517174 1.289526 0.000000 
0.552532 1.351463 0.000000 
0.576896 1.393389 0.000000 
0.583356 1.430415 0.000000 