# vtk DataFile Version 3.0 
vtk output 
ASCII 
DATASET UNSTRUCTURED_GRID 
POINTS 899 float 
-3.648847 2.320082 0.000000 
-3.619410 2.279530 0.000000 
-3.578536 2.243935 0.000000 
-3.540028 2.208284 0.000000 
-3.511690 2.176089 0.000000 
-3.481362 2.146231 0.000000 
-3.451569 2.105557 0.000000 
0.772356 2.222596 0.000000 
0.774615 2.196475 0.000000 
0.769962 2.167721 0.000000 
-3.399514 2.075281 0.000000 
0.413960 -0.569561 0.000000 
0.455573 -0.565258 0.000000 
-1.762619 -0.469456 0.000000 
-1.783389 -0.434060 0.000000 
-1.714437 -0.405271 0.000000 
0.732567 2.216920 0.000000 
0.698438 2.203084 0.000000 
0.491831 -0.551055 0.000000 
0.519501 -0.520650 0.000000 
0.530556 -0.480204 0.000000 
0.532354 -0.434399 0.000000 
0.531774 -0.383893 0.000000 
-3.460923 2.013549 0.000000 
0.663989 2.181138 0.000000 
0.631675 2.153743 0.000000 
0.601833 2.129688 0.000000 
0.569607 2.106430 0.000000 
0.534059 2.084353 0.000000 
0.492599 2.063213 0.000000 
0.444403 2.044548 0.000000 
0.762807 2.126746 0.000000 
-1.708694 -0.370888 0.000000 
-1.726386 -0.330625 0.000000 
-1.761257 -0.306604 0.000000 
-1.812853 -0.298756 0.000000 
-0.690422 -0.551091 0.000000 
-0.624256 -0.569019 0.000000 
-0.561079 -0.577200 0.000000 
-0.500739 -0.578656 0.000000 
-0.445387 -0.578718 0.000000 
0.532260 -0.324809 0.000000 
0.536647 -0.255476 0.000000 
-1.881389 -0.286255 0.000000 
-0.389303 -0.576444 0.000000 
-0.340338 -0.561158 0.000000 
-0.344339 -0.507023 0.000000 
-0.358558 -0.454484 0.000000 
-0.381750 -0.413572 0.000000 
-0.406193 -0.379398 0.000000 
-0.417316 -0.347900 0.000000 
-0.428320 -0.313643 0.000000 
-0.436973 -0.269378 0.000000 
-0.444212 -0.213835 0.000000 
-0.452662 -0.154977 0.000000 
-0.468602 -0.098078 0.000000 
0.553166 -0.190761 0.000000 
0.573193 -0.133090 0.000000 
0.574450 -0.081349 0.000000 
0.561087 -0.031029 0.000000 
0.550432 0.024294 0.000000 
0.748903 2.073428 0.000000 
0.730940 2.016936 0.000000 
0.715868 1.970777 0.000000 
0.699446 1.934649 0.000000 
0.684888 1.893659 0.000000 
0.675900 1.847455 0.000000 
0.669871 1.797895 0.000000 
0.664455 1.750038 0.000000 
0.668163 1.703619 0.000000 
0.672091 1.653785 0.000000 
0.674558 1.605762 0.000000 
0.673045 1.555682 0.000000 
0.386491 2.034868 0.000000 
0.664855 1.496943 0.000000 
0.652298 1.438866 0.000000 
0.638456 1.385216 0.000000 
0.623121 1.335706 0.000000 
0.616008 1.292679 0.000000 
0.600787 1.257736 0.000000 
0.571289 1.228288 0.000000 
0.539016 1.197126 0.000000 
0.513857 1.168227 0.000000 
0.493343 1.141992 0.000000 
0.469109 1.124179 0.000000 
0.444920 1.107735 0.000000 
0.415324 1.086769 0.000000 
0.383540 1.062017 0.000000 
0.356179 1.032685 0.000000 
0.343879 0.993785 0.000000 
0.337476 0.948265 0.000000 
0.332404 0.902978 0.000000 
0.328512 0.863288 0.000000 
0.319594 0.827209 0.000000 
0.304149 0.793798 0.000000 
0.290502 0.753407 0.000000 
0.275896 0.705545 0.000000 
0.261905 0.663575 0.000000 
0.250150 0.629980 0.000000 
0.250896 0.592175 0.000000 
0.259587 0.549572 0.000000 
0.284617 0.506799 0.000000 
0.315237 0.477138 0.000000 
0.340022 0.457701 0.000000 
0.354380 0.431852 0.000000 
0.368685 0.404709 0.000000 
0.385568 0.378313 0.000000 
0.415372 0.353516 0.000000 
0.447119 0.321804 0.000000 
0.477633 0.293887 0.000000 
0.503078 0.265951 0.000000 
0.518876 0.227896 0.000000 
0.527127 0.191928 0.000000 
0.534187 0.147383 0.000000 
0.543185 0.086602 0.000000 
0.322519 2.023812 0.000000 
0.263849 2.010695 0.000000 
0.208223 2.005275 0.000000 
0.150441 2.001447 0.000000 
-0.687392 -0.478024 0.000000 
-3.327058 2.049049 0.000000 
-3.276080 2.002628 0.000000 
-3.224941 1.969041 0.000000 
-3.181728 1.939883 0.000000 
-3.135074 1.902953 0.000000 
-3.078123 1.878660 0.000000 
-1.944260 -0.241377 0.000000 
0.083204 2.006603 0.000000 
0.005786 2.001250 0.000000 
-0.071812 2.010488 0.000000 
-0.135705 2.040030 0.000000 
-0.182391 2.081636 0.000000 
-1.999041 -0.170408 0.000000 
-1.843230 -0.444917 0.000000 
-0.491126 -0.034118 0.000000 
-0.512312 0.039125 0.000000 
-0.526535 0.101957 0.000000 
-0.527935 0.164079 0.000000 
-0.524207 0.231249 0.000000 
-0.505864 0.288381 0.000000 
-0.468875 0.337593 0.000000 
-0.410369 0.366838 0.000000 
-0.354013 0.387955 0.000000 
-0.301050 0.397900 0.000000 
-0.255730 0.398673 0.000000 
-0.695595 -0.399728 0.000000 
-0.726457 -0.322847 0.000000 
-0.747352 -0.253391 0.000000 
-3.396487 1.991914 0.000000 
-3.344056 1.912526 0.000000 
-3.294256 1.869125 0.000000 
-3.248246 1.830801 0.000000 
-3.196818 1.791448 0.000000 
-3.159669 1.740137 0.000000 
-3.113281 1.693433 0.000000 
-3.056061 1.673869 0.000000 
-2.996684 1.651245 0.000000 
-2.933161 1.621628 0.000000 
-2.879064 1.585485 0.000000 
-2.813006 1.560700 0.000000 
-2.751664 1.537650 0.000000 
-2.686782 1.508327 0.000000 
-1.922020 -0.442110 0.000000 
-1.999705 -0.443609 0.000000 
-2.060018 -0.422005 0.000000 
-2.032615 -0.087018 0.000000 
-2.048550 -0.001296 0.000000 
-2.029059 0.064597 0.000000 
-2.105228 -0.364947 0.000000 
-2.154373 -0.297352 0.000000 
-2.203584 -0.242728 0.000000 
-2.237020 -0.181293 0.000000 
-2.250593 -0.116000 0.000000 
-2.270119 -0.044216 0.000000 
-2.297898 0.026094 0.000000 
-2.327118 0.087674 0.000000 
-2.346747 0.141644 0.000000 
-2.362840 0.194753 0.000000 
-2.374561 0.245798 0.000000 
-2.373128 0.297773 0.000000 
-2.334174 0.364364 0.000000 
-2.331842 0.404982 0.000000 
-2.284565 0.413740 0.000000 
-0.236368 2.131171 0.000000 
-0.299146 2.174998 0.000000 
-0.346614 2.194923 0.000000 
-0.382877 2.158420 0.000000 
-0.412447 2.129370 0.000000 
-0.433989 2.089082 0.000000 
-0.446472 2.046116 0.000000 
-0.451628 2.006798 0.000000 
-0.451047 1.968335 0.000000 
-0.449242 1.932332 0.000000 
-0.453345 1.900442 0.000000 
-0.460251 1.872749 0.000000 
-0.470304 1.843964 0.000000 
-0.475290 1.814474 0.000000 
-0.478341 1.784688 0.000000 
-0.479442 1.747952 0.000000 
-2.609147 1.494538 0.000000 
-2.517189 1.489039 0.000000 
-2.434013 1.489376 0.000000 
-2.352624 1.479344 0.000000 
-2.274410 1.459973 0.000000 
-2.204499 1.425325 0.000000 
-2.180326 1.356442 0.000000 
-2.178559 1.267906 0.000000 
-2.168273 1.177877 0.000000 
-2.159086 1.079813 0.000000 
-2.144575 0.990654 0.000000 
-2.163040 0.915437 0.000000 
-2.183612 0.841345 0.000000 
-2.172907 0.776788 0.000000 
-2.161614 0.714033 0.000000 
-2.169833 0.653921 0.000000 
-2.188987 0.592168 0.000000 
-2.218663 0.540922 0.000000 
-2.229021 0.485049 0.000000 
-2.997130 1.861863 0.000000 
-3.021908 1.763725 0.000000 
-2.902046 1.830356 0.000000 
-0.770600 -0.170798 0.000000 
-0.790096 -0.079139 0.000000 
-0.811857 0.001569 0.000000 
-0.835807 0.080133 0.000000 
-0.859157 0.150261 0.000000 
-0.881226 0.210312 0.000000 
-0.903169 0.269663 0.000000 
-0.928196 0.333707 0.000000 
-2.785442 1.797802 0.000000 
-2.944278 1.737061 0.000000 
-2.855014 1.699915 0.000000 
-2.796189 1.639835 0.000000 
-2.651235 1.783056 0.000000 
-2.517962 1.772709 0.000000 
-2.394240 1.763546 0.000000 
-2.275192 1.755550 0.000000 
-2.180847 1.730989 0.000000 
-2.099904 1.704509 0.000000 
-2.018420 1.673270 0.000000 
-1.945469 1.677567 0.000000 
-1.885190 1.710907 0.000000 
-1.829736 1.731476 0.000000 
-1.760875 1.756707 0.000000 
-1.680504 1.785132 0.000000 
-1.617798 1.803449 0.000000 
-1.570169 1.817972 0.000000 
-1.527149 1.832162 0.000000 
-1.482581 1.844291 0.000000 
-1.433927 1.850832 0.000000 
-1.386311 1.858747 0.000000 
-1.337319 1.867477 0.000000 
-1.286363 1.874557 0.000000 
-1.235962 1.875274 0.000000 
-1.188452 1.880087 0.000000 
-1.140860 1.889538 0.000000 
-1.091558 1.888847 0.000000 
-1.038962 1.877829 0.000000 
-0.982519 1.858831 0.000000 
-0.922315 1.842089 0.000000 
-0.869867 1.831764 0.000000 
-0.827747 1.825274 0.000000 
-0.785371 1.820362 0.000000 
-0.748025 1.810625 0.000000 
-0.712781 1.800358 0.000000 
-0.681690 1.786426 0.000000 
-0.657198 1.775292 0.000000 
-0.633895 1.768629 0.000000 
-0.612002 1.764174 0.000000 
-0.594184 1.756961 0.000000 
-0.577381 1.747511 0.000000 
-0.560109 1.732227 0.000000 
-0.540091 1.699773 0.000000 
-1.243914 0.060927 0.000000 
-1.232782 0.074644 0.000000 
-1.257376 0.046573 0.000000 
-1.224378 0.093344 0.000000 
-1.271472 0.027228 0.000000 
-1.215702 0.115341 0.000000 
-1.204660 0.141397 0.000000 
-1.290143 -0.000514 0.000000 
-1.314447 -0.045554 0.000000 
-1.190204 0.171704 0.000000 
-1.318041 -0.098908 0.000000 
-1.171655 0.205860 0.000000 
-1.149359 0.242174 0.000000 
-1.123094 0.280423 0.000000 
-1.284246 -0.148888 0.000000 
-1.239750 -0.199614 0.000000 
-1.083297 0.324414 0.000000 
-1.028190 0.356085 0.000000 
-1.181630 -0.241970 0.000000 
-1.112789 -0.273398 0.000000 
-1.040643 -0.285568 0.000000 
-0.978118 -0.288655 0.000000 
-0.927392 -0.301680 0.000000 
-0.889718 -0.340815 0.000000 
-0.873564 -0.397365 0.000000 
-0.920771 -0.429559 0.000000 
-0.935346 -0.362291 0.000000 
-0.991249 -0.439135 0.000000 
-1.088918 -0.436407 0.000000 
-1.067426 -0.356755 0.000000 
-1.189474 -0.428843 0.000000 
-1.147229 -0.344088 0.000000 
-1.266509 -0.405554 0.000000 
-1.219913 -0.317910 0.000000 
-1.335307 -0.369727 0.000000 
-1.284456 -0.279911 0.000000 
-1.402357 -0.325823 0.000000 
-1.341444 -0.232111 0.000000 
-1.466758 -0.273148 0.000000 
-1.539152 -0.212348 0.000000 
-1.393011 -0.174180 0.000000 
-1.612839 -0.142077 0.000000 
-1.665320 -0.084499 0.000000 
-1.691220 -0.019672 0.000000 
-1.704696 0.065822 0.000000 
-1.850073 0.232691 0.000000 
-1.911042 0.176866 0.000000 
-1.969645 0.120029 0.000000 
-1.726970 0.172232 0.000000 
-0.222881 0.380062 0.000000 
-0.195707 0.352479 0.000000 
-0.164205 0.315532 0.000000 
-0.127520 0.282834 0.000000 
-0.095686 0.253342 0.000000 
-0.059027 0.224864 0.000000 
-0.018954 0.194881 0.000000 
0.030296 0.163610 0.000000 
0.086536 0.143084 0.000000 
0.141893 0.124353 0.000000 
0.202102 0.095073 0.000000 
0.263408 0.055156 0.000000 
0.311661 0.005169 0.000000 
0.333954 -0.054453 0.000000 
0.338621 -0.114904 0.000000 
0.341530 -0.168842 0.000000 
0.353165 -0.219031 0.000000 
0.365710 -0.277454 0.000000 
0.363543 -0.346982 0.000000 
[...]
POINT_DATA 899 
VECTORS X_GC float 
-3.648847 2.320082 0.000000 
-3.619410 2.279530 0.000000 
-3.578536 2.243935 0.000000 
-3.540028 2.208284 0.000000 
-3.511690 2.176089 0.000000 
-3.481362 2.146231 0.000000 
-3.451569 2.105557 0.000000 
0.772356 2.222596 0.000000 
0.774615 2.196475 0.000000 
0.769962 2.167721 0.000000 
-3.399514 2.075281 0.000000 
0.413960 -0.569561 0.000000 
0.455573 -0.565258 0.000000 
-1.762619 -0.469456 0.000000 
-1.783389 -0.434060 0.000000 
-1.714437 -0.405271 0.000000 
0.732567 2.216920 0.000000 
0.698438 2.203084 0.000000 
0.491831 -0.551055 0.000000 
0.519501 -0.520650 0.000000 
0.530556 -0.480204 0.000000 
0.532354 -0.434399 0.000000 
0.531774 -0.383893 0.000000 
-3.460923 2.013549 0.000000 
0.663989 2.181138 0.000000 
0.631675 2.153743 0.000000 
0.601833 2.129688 0.000000 
0.569607 2.106430 0.000000 
0.534059 2.084353 0.000000 
0.492599 2.063213 0.000000 
0.444403 2.044548 0.000000 
0.762807 2.126746 0.000000 
-1.708694 -0.370888 0.000000 
-1.726386 -0.330625 0.000000 
-1.761257 -0.306604 0.000000 
-1.812853 -0.298756 0.000000 
-0.690422 -0.551091 0.000000 
-0.624256 -0.569019 0.000000 
-0.561079 -0.577200 0.000000 
-0.500739 -0.578656 0.000000 
-0.445387 -0.578718 0.000000 
0.532260 -0.324809 0.000000 
0.536647 -0.255476 0.000000 
-1.881389 -0.286255 0.000000 
-0.389303 -0.576444 0.000000 
-0.340338 -0.561158 0.000000 
-0.344339 -0.507023 0.000000 
-0.358558 -0.454484 0.000000 
-0.381750 -0.413572 0.000000 
-0.406193 -0.379398 0.000000 
-0.417316 -0.347900 0.000000 
-0.428320 -0.313643 0.000000 
-0.436973 -0.269378 0.000000 
-0.444212 -0.213835 0.000000 
-0.452662 -0.154977 0.000000 
-0.468602 -0.098078 0.000000 
0.553166 -0.190761 0.000000 
0.573193 -0.133090 0.000000 
0.574450 -0.081349 0.000000 
0.561087 -0.031029 0.000000 
0.550432 0.024294 0.000000 
0.748903 2.073428 0.000000 
0.730940 2.016936 0.000000 
0.715868 1.970777 0.000000 
0.699446 1.934649 0.000000 
0.684888 1.893659 0.000000 
0.675900 1.847455 0.000000 
0.669871 1.797895 0.000000 
0.664455 1.750038 0.000000 
0.668163 1.703619 0.000000 
0.672091 1.653785 0.000000 
0.674558 1.605762 0.000000 
0.673045 1.555682 0.000000 
0.386491 2.034868 0.000000 
0.664855 1.496943 0.000000 
0.652298 1.438866 0.000000 
0.638456 1.385216 0.000000 
0.623121 1.335706 0.000000 
0.616008 1.292679 0.000000 
0.600787 1.257736 0.000000 
0.571289 1.228288 0.000000 
0.539016 1.197126 0.000000 
0.513857 1.168227 0.000000 
0.493343 1.141992 0.000000 
0.469109 1.124179 0.000000 
0.444920 1.107735 0.000000 
0.415324 1.086769 0.000000 
0.383540 1.062017 0.000000 
0.356179 1.032685 0.000000 
0.343879 0.993785 0.000000 
0.337476 0.948265 0.000000 
0.332404 0.902978 0.000000 
0.328512 0.863288 0.000000 
0.319594 0.827209 0.000000 
0.304149 0.793798 0.000000 
0.290502 0.753407 0.000000 
0.275896 0.705545 0.000000 
0.261905 0.663575 0.000000 
0.250150 0.629980 0.000000 
0.250896 0.592175 0.000000 
0.259587 0.549572 0.000000 
0.284617 0.506799 0.000000 
0.315237 0.477138 0.000000 
0.340022 0.457701 0.000000 
0.354380 0.431852 0.000000 
0.368685 0.404709 0.000000 
0.385568 0.378313 0.000000 
0.415372 0.353516 0.000000 
0.447119 0.321804 0.000000 
0.477633 0.293887 0.000000 
0.503078 0.265951 0.000000 
0.518876 0.227896 0.000000 
0.527127 0.191928 0.000000 
0.534187 0.147383 0.000000 
0.543185 0.086602 0.000000 
0.322519 2.023812 0.000000 
0.263849 2.010695 0.000000 
0.208223 2.005275 0.000000 
0.150441 2.001447 0.000000 
-0.687392 -0.478024 0.000000 
-3.327058 2.049049 0.000000 
-3.276080 2.002628 0.000000 
-3.224941 1.969041 0.000000 
-3.181728 1.939883 0.000000 
-3.135074 1.902953 0.000000 
-3.078123 1.878660 0.000000 
-1.944260 -0.241377 0.000000 
0.083204 2.006603 0.000000 
0.005786 2.001250 0.000000 
-0.071812 2.010488 0.000000 
-0.135705 2.040030 0.000000 
-0.182391 2.081636 0.000000 
-1.999041 -0.170408 0.000000 
-1.843230 -0.444917 0.000000 
-0.491126 -0.034118 0.000000 
-0.512312 0.039125 0.000000 
-0.526535 0.101957 0.000000 
-0.527935 0.164079 0.000000 
-0.524207 0.231249 0.000000 
-0.505864 0.288381 0.000000 
-0.468875 0.337593 0.000000 
-0.410369 0.366838 0.000000 
-0.354013 0.387955 0.000000 
-0.301050 0.397900 0.000000 
-0.255730 0.398673 0.000000 
-0.695595 -0.399728 0.000000 
-0.726457 -0.322847 0.000000 
-0.747352 -0.253391 0.000000 
-3.396487 1.991914 0.000000 
-3.344056 1.912526 0.000000 
-3.294256 1.869125 0.000000 
-3.248246 1.830801 0.000000 
-3.196818 1.791448 0.000000 
-3.159669 1.740137 0.000000 
-3.113281 1.693433 0.000000 
-3.056061 1.673869 0.000000 
-2.996684 1.651245 0.000000 
-2.933161 1.621628 0.000000 
-2.879064 1.585485 0.000000 
-2.813006 1.560700 0.000000 
-2.751664 1.537650 0.000000 
-2.686782 1.508327 0.000000 
-1.922020 -0.442110 0.000000 
-1.999705 -0.443609 0.000000 
-2.060018 -0.422005 0.000000 
-2.032615 -0.087018 0.000000 
-2.048550 -0.001296 0.000000 
-2.029059 0.064597 0.000000 
-2.105228 -0.364947 0.000000 
-2.154373 -0.297352 0.000000 
-2.203584 -0.242728 0.000000 
-2.237020 -0.181293 0.000000 
-2.250593 -0.116000 0.000000 
-2.270119 -0.044216 0.000000 
-2.297898 0.026094 0.000000 
-2.327118 0.087674 0.000000 
-2.346747 0.141644 0.000000 
-2.362840 0.194753 0.000000 
-2.374561 0.245798 0.000000 
-2.373128 0.297773 0.000000 
-2.334174 0.364364 0.000000 
-2.331842 0.404982 0.000000 
-2.284565 0.413740 0.000000 
-0.236368 2.131171 0.000000 
-0.299146 2.174998 0.000000 
-0.346614 2.194923 0.000000 
-0.382877 2.158420 0.000000 
-0.412447 2.129370 0.000000 
-0.433989 2.089082 0.000000 
-0.446472 2.046116 0.000000 
-0.451628 2.006798 0.000000 
-0.451047 1.968335 0.000000 
-0.449242 1.932332 0.000000 
-0.453345 1.900442 0.000000 
-0.460251 1.872749 0.000000 
-0.470304 1.843964 0.000000 
-0.475290 1.814474 0.000000 
-0.478341 1.784688 0.000000 
-0.479442 1.747952 0.000000 
-2.609147 1.494538 0.000000 
-2.517189 1.489039 0.000000 
-2.434013 1.489376 0.000000 
-2.352624 1.479344 0.000000 
-2.274410 1.459973 0.000000 
-2.204499 1.425325 0.000000 
-2.180326 1.356442 0.000000 
-2.178559 1.267906 0.000000 
-2.168273 1.177877 0.000000 
-2.159086 1.079813 0.000000 
-2.144575 0.990654 0.000000 
-2.163040 0.915437 0.000000 
-2.183612 0.841345 0.000000 
-2.172907 0.776788 0.000000 
-2.161614 0.714033 0.000000 
-2.169833 0.653921 0.000000 
-2.188987 0.592168 0.000000 
-2.218663 0.540922 0.000000 
-2.229021 0.485049 0.000000 
-2.997130 1.861863 0.000000 
-3.021908 1.763725 0.000000 
-2.902046 1.830356 0.000000 
-0.770600 -0.170798 0.000000 
-0.790096 -0.079139 0.000000 
-0.811857 0.001569 0.000000 
-0.835807 0.080133 0.000000 
-0.859157 0.150261 0.000000 
-0.881226 0.210312 0.000000 
-0.903169 0.269663 0.000000 
-0.928196 0.333707 0.000000 
-2.785442 1.797802 0.000000 
-2.944278 1.737061 0.000000 
-2.855014 1.699915 0.000000 
-2.796189 1.639835 0.000000 
-2.651235 1.783056 0.000000 
-2.517962 1.772709 0.000000 
-2.394240 1.763546 0.000000 
-2.275192 1.755550 0.000000 
-2.180847 1.730989 0.000000 
-2.099904 1.704509 0.000000 
-2.018420 1.673270 0.000000 
-1.945469 1.677567 0.000000 
-1.885190 1.710907 0.000000 
-1.829736 1.731476 0.000000 
-1.760875 1.756707 0.000000 
-1.680504 1.785132 0.000000 
-1.617798 1.803449 0.000000 
-1.570169 1.817972 0.000000 
-1.527149 1.832162 0.000000 
-1.482581 1.844291 0.000000 
-1.433927 1.850832 0.000000 
-1.386311 1.858747 0.000000 
-1.337319 1.867477 0.000000 
-1.286363 1.874557 0.000000 
-1.235962 1.875274 0.000000 
-1.188452 1.880087 0.000000 
-1.140860 1.889538 0.000000 
-1.091558 1.888847 0.000000 
-1.038962 1.877829 0.000000 
-0.982519 1.858831 0.000000 
-0.922315 1.842089 0.000000 
-0.869867 1.831764 0.000000 
-0.827747 1.825274 0.000000 
-0.785371 1.820362 0.000000 
-0.748025 1.810625 0.000000 
-0.712781 1.800358 0.000000 
-0.681690 1.786426 0.000000 
-0.657198 1.775292 0.000000 
-0.633895 1.768629 0.000000 
-0.612002 1.764174 0.000000 
-0.594184 1.756961 0.000000 
-0.577381 1.747511 0.000000 
-0.560109 1.732227 0.000000 
-0.540091 1.699773 0.000000 
-1.243914 0.060927 0.000000 
-1.232782 0.074644 0.000000 
-1.257376 0.046573 0.000000 
-1.224378 0.093344 0.000000 
-1.271472 0.027228 0.000000 
-1.215702 0.115341 0.000000 
-1.204660 0.141397 0.000000 
-1.290143 -0.000514 0.000000 
-1.314447 -0.045554 0.000000 
-1.190204 0.171704 0.000000 
-1.318041 -0.098908 0.000000 
-1.171655 0.205860 0.000000 
-1.149359 0.242174 0.000000 
-1.123094 0.280423 0.000000 
-1.284246 -0.148888 0.000000 
-1.239750 -0.199614 0.000000 
-1.083297 0.324414 0.000000 
-1.028190 0.356085 0.000000 
-1.181630 -0.241970 0.000000 
-1.112789 -0.273398 0.000000 
-1.040643 -0.285568 0.000000 
-0.978118 -0.288655 0.000000 
-0.927392 -0.301680 0.000000 
-0.889718 -0.340815 0.000000 
-0.873564 -0.397365 0.000000 
-0.920771 -0.429559 0.000000 
-0.935346 -0.362291 0.000000 
-0.991249 -0.439135 0.000000 
-1.088918 -0.436407 0.000000 
-1.067426 -0.356755 0.000000 
-1.189474 -0.428843 0.000000 
-1.147229 -0.344088 0.000000 
-1.266509 -0.405554 0.000000 
-1.219913 -0.317910 0.000000 
-1.335307 -0.369727 0.000000 
-1.284456 -0.279911 0.000000 
-1.402357 -0.325823 0.000000 
-1.341444 -0.232111 0.000000 
-1.466758 -0.273148 0.000000 
-1.539152 -0.212348 0.000000 
-1.393011 -0.174180 0.000000 
-1.612839 -0.142077 0.000000 
-1.665320 -0.084499 0.000000 
-1.691220 -0.019672 0.000000 
-1.704696 0.065822 0.000000 
-1.850073 0.232691 0.000000 
-1.911042 0.176866 0.000000 
-1.969645 0.120029 0.000000 
-1.726970 0.172232 0.000000 
-0.222881 0.380062 0.000000 
-0.195707 0.352479 0.000000 
-0.164205 0.315532 0.000000 
-0.127520 0.282834 0.000000 
-0.095686 0.253342 0.000000 
-0.059027 0.224864 0.000000 
-0.018954 0.194881 0.000000 
0.030296 0.163610 0.000000 
0.086536 0.143084 0.000000 
0.141893 0.124353 0.000000 
0.202102 0.095073 0.000000 
0.263408 0.055156 0.000000 
0.311661 0.005169 0.000000 
0.333954 -0.054453 0.000000 
0.338621 -0.114904 0.000000 
0.341530 -0.168842 0.000000 
0.353165 -0.219031 0.000000 
0.365710 -0.277454 0.000000 
0.363543 -0.346982 0.000000 
0.357353 -0.409097 0.000000 
0.351188 -0.459839 0.000000 
0.363842 -0.506867 0.000000 
-1.737069 -0.373518 0.000000 
-0.199590 0.432679 0.000000 
-0.156305 0.402763 0.000000 
-0.462327 1.668719 0.000000 
0.741313 2.191294 0.000000 
0.482415 -0.517638 0.000000 
0.446104 -0.525534 0.000000 
0.403556 -0.531188 0.000000 
-0.104001 0.374698 0.000000 
-0.514998 1.600774 0.000000 
-0.059937 0.340294 0.000000 
0.738519 2.166029 0.000000 
0.714572 2.178329 0.000000 
-0.249752 0.459503 0.000000 
-0.036232 0.296495 0.000000 
0.000772 0.268663 0.000000 
0.035161 0.243018 0.000000 
-1.776537 -0.372960 0.000000 
-1.836238 -0.368775 0.000000 
-0.309416 0.473603 0.000000 
-0.378944 0.471339 0.000000 
-2.292732 0.350927 0.000000 
-2.315166 0.300936 0.000000 
-2.314418 0.253379 0.000000 
-2.293418 0.206993 0.000000 
-2.279687 0.157114 0.000000 
-2.253462 0.109848 0.000000 
0.075120 0.215276 0.000000 
0.131113 0.202668 0.000000 
-0.977004 0.404651 0.000000 
-0.860050 0.394486 0.000000 
-1.912142 -0.360719 0.000000 
-1.989966 -0.369499 0.000000 
-2.023752 -0.301957 0.000000 
-2.082175 -0.230696 0.000000 
0.723889 2.134516 0.000000 
0.691466 2.153358 0.000000 
0.665980 2.120712 0.000000 
0.704783 2.093443 0.000000 
0.637970 2.082654 0.000000 
0.681732 2.046235 0.000000 
0.670916 2.000060 0.000000 
0.602858 2.050986 0.000000 
0.659584 1.959636 0.000000 
0.560783 2.024615 0.000000 
0.636111 1.923561 0.000000 
0.607495 1.873771 0.000000 
0.595324 1.810290 0.000000 
0.604052 1.745617 0.000000 
0.514160 1.995211 0.000000 
0.453857 1.967766 0.000000 
0.392525 1.965788 0.000000 
0.334098 1.964259 0.000000 
0.278675 1.945506 0.000000 
0.217273 1.927430 0.000000 
0.149449 1.910075 0.000000 
0.614128 1.693341 0.000000 
0.621313 1.645762 0.000000 
0.624262 1.600882 0.000000 
-2.197766 0.056660 0.000000 
-2.158682 -0.018264 0.000000 
-2.124695 0.115990 0.000000 
-2.150589 -0.184390 0.000000 
-2.141926 -0.106845 0.000000 
-0.393439 -0.523405 0.000000 
-0.412631 -0.479361 0.000000 
-0.436983 -0.438758 0.000000 
-0.445953 -0.395338 0.000000 
-0.458251 -0.362513 0.000000 
-0.479726 -0.327746 0.000000 
-0.496934 -0.279015 0.000000 
-0.509002 -0.223932 0.000000 
-0.517157 -0.169601 0.000000 
-0.545309 -0.118326 0.000000 
-0.442273 -0.520799 0.000000 
-0.496002 -0.511282 0.000000 
-0.557668 -0.513389 0.000000 
-0.618975 -0.497908 0.000000 
-0.334659 2.133110 0.000000 
-0.367985 2.103393 0.000000 
-0.385153 2.066967 0.000000 
-0.396797 2.033100 0.000000 
-0.406285 1.997577 0.000000 
-0.402558 1.958444 0.000000 
-0.406645 1.920001 0.000000 
-0.418378 1.887587 0.000000 
-0.428059 1.858461 0.000000 
-0.435849 1.828914 0.000000 
-0.442335 1.798879 0.000000 
-0.445406 1.765814 0.000000 
-0.444483 1.720097 0.000000 
0.619822 1.555150 0.000000 
-1.077870 0.451715 0.000000 
-1.149036 0.409756 0.000000 
-1.174735 0.334914 0.000000 
-1.192231 0.283191 0.000000 
-1.210811 0.241414 0.000000 
-1.228352 0.202074 0.000000 
-1.238869 0.164094 0.000000 
-1.244643 0.132597 0.000000 
-1.248534 0.107696 0.000000 
-1.252336 0.088408 0.000000 
-1.262323 0.075157 0.000000 
-1.280319 0.064241 0.000000 
-0.451814 0.448679 0.000000 
-0.526928 0.405157 0.000000 
0.194935 0.185676 0.000000 
0.069048 1.895975 0.000000 
-0.574175 0.334473 0.000000 
-0.593607 0.253370 0.000000 
-1.764101 0.293054 0.000000 
-2.210991 0.411911 0.000000 
-0.825996 0.309209 0.000000 
-0.799223 0.238128 0.000000 
-0.760911 0.171695 0.000000 
0.605964 1.504198 0.000000 
0.587834 1.446838 0.000000 
0.576354 1.386990 0.000000 
0.574971 1.331981 0.000000 
0.580375 1.288957 0.000000 
0.545179 1.266573 0.000000 
0.509957 1.234310 0.000000 
0.484198 1.197908 0.000000 
0.468721 1.166754 0.000000 
0.449386 1.148222 0.000000 
0.422962 1.135557 0.000000 
0.391379 1.116406 0.000000 
0.357154 1.092343 0.000000 
0.323730 1.063970 0.000000 
-0.582151 -0.057458 0.000000 
0.265957 0.159246 0.000000 
0.333763 0.113116 0.000000 
0.378371 0.046101 0.000000 
0.400918 -0.028294 0.000000 
0.401084 -0.091283 0.000000 
0.404345 -0.145384 0.000000 
0.432648 -0.196466 0.000000 
0.450030 -0.260907 0.000000 
0.529803 -0.107754 0.000000 
0.491947 -0.155891 0.000000 
0.453243 -0.106008 0.000000 
0.449550 -0.335231 0.000000 
0.498420 -0.061880 0.000000 
0.474171 -0.001939 0.000000 
0.457863 0.072634 0.000000 
0.462195 -0.393885 0.000000 
0.478704 -0.440221 0.000000 
0.483460 -0.481187 0.000000 
0.412910 -0.419527 0.000000 
0.398390 -0.458240 0.000000 
0.404290 -0.492528 0.000000 
0.442452 -0.487969 0.000000 
0.436659 -0.452805 0.000000 
-0.727378 0.097562 0.000000 
-0.616071 0.179580 0.000000 
-0.623548 0.105300 0.000000 
-0.605779 0.024292 0.000000 
-0.706340 0.011844 0.000000 
-0.681483 -0.074418 0.000000 
-0.032304 1.890414 0.000000 
-0.128010 1.926564 0.000000 
-0.195732 1.993688 0.000000 
-0.243911 2.047602 0.000000 
-0.287859 2.095005 0.000000 
-0.335518 2.067310 0.000000 
-0.667608 -0.159799 0.000000 
-0.584906 -0.166567 0.000000 
-0.658169 -0.239808 0.000000 
-0.578442 -0.231937 0.000000 
-0.639050 -0.311250 0.000000 
-0.607982 -0.386767 0.000000 
-0.562541 -0.294637 0.000000 
-0.536184 -0.355660 0.000000 
-0.495978 -0.393622 0.000000 
-0.500680 -0.446016 0.000000 
-0.573051 -0.450469 0.000000 
-2.690892 1.663709 0.000000 
-2.684799 1.577696 0.000000 
-2.602920 1.576434 0.000000 
-2.574381 1.661427 0.000000 
-2.518122 1.596301 0.000000 
-2.424460 1.620199 0.000000 
-2.320006 1.611268 0.000000 
-2.229986 1.587650 0.000000 
-2.146342 1.546410 0.000000 
-1.455055 -0.115198 0.000000 
-1.387692 -0.034875 0.000000 
-1.339496 0.018453 0.000000 
-1.304977 0.047013 0.000000 
-1.531301 -0.049705 0.000000 
-1.604385 -0.005593 0.000000 
-1.592423 0.095088 0.000000 
-1.608296 0.219051 0.000000 
-1.827918 0.417496 0.000000 
0.477873 0.186299 0.000000 
0.477147 0.221198 0.000000 
0.465631 0.255438 0.000000 
-0.587742 1.699647 0.000000 
-0.593403 1.723751 0.000000 
-0.604579 1.736407 0.000000 
-0.619289 1.742093 0.000000 
-0.639577 1.739920 0.000000 
-0.665912 1.741536 0.000000 
-0.697937 1.748522 0.000000 
-0.595692 1.646159 0.000000 
-0.726123 1.763334 0.000000 
-0.757398 1.773905 0.000000 
-0.794522 1.771329 0.000000 
-0.841416 1.768751 0.000000 
-0.894922 1.770112 0.000000 
-0.956071 1.778528 0.000000 
-1.020951 1.797449 0.000000 
-1.077937 1.825084 0.000000 
-1.120258 1.853812 0.000000 
-1.171769 1.829552 0.000000 
0.332207 0.382943 0.000000 
0.333662 0.341208 0.000000 
0.321472 0.411560 0.000000 
0.302407 0.438372 0.000000 
0.214022 0.453034 0.000000 
0.194081 0.514059 0.000000 
0.186716 0.569572 0.000000 
0.189303 0.622344 0.000000 
0.360023 0.301526 0.000000 
0.405131 0.276393 0.000000 
0.201671 0.671590 0.000000 
0.218038 0.721851 0.000000 
0.236652 0.770784 0.000000 
0.256885 0.812718 0.000000 
0.278373 0.841212 0.000000 
0.284019 0.874610 0.000000 
0.276718 0.921358 0.000000 
0.278735 0.978171 0.000000 
0.296322 1.028438 0.000000 
-1.507867 1.781310 0.000000 
-1.548116 1.756667 0.000000 
-1.598023 1.729288 0.000000 
-1.467251 1.796083 0.000000 
-1.422160 1.803367 0.000000 
-1.373311 1.810083 0.000000 
-1.322903 1.817860 0.000000 
-1.275577 1.827106 0.000000 
-1.225048 1.825706 0.000000 
-1.662214 1.705619 0.000000 
-1.732600 1.685679 0.000000 
-1.794687 1.671303 0.000000 
-1.841773 1.642116 0.000000 
-2.078405 0.709389 0.000000 
-2.079214 0.787978 0.000000 
-2.097651 0.631789 0.000000 
-2.129318 0.560050 0.000000 
-2.096743 0.868540 0.000000 
-2.169699 0.504706 0.000000 
-1.991686 0.431706 0.000000 
-1.642187 0.357262 0.000000 
-1.989898 0.264481 0.000000 
-2.064526 0.192669 0.000000 
-1.914688 0.338016 0.000000 
-2.037969 1.121092 0.000000 
-2.021377 1.005408 0.000000 
-2.055796 1.250254 0.000000 
-2.102728 1.352907 0.000000 
-2.047875 1.495210 0.000000 
0.428030 0.241940 0.000000 
0.375625 0.220705 0.000000 
0.313454 0.233805 0.000000 
0.290352 0.379840 0.000000 
0.238487 1.090758 0.000000 
0.440631 0.203833 0.000000 
0.396678 0.164056 0.000000 
0.460488 0.138135 0.000000 
0.523747 1.314248 0.000000 
-2.262588 0.277502 0.000000 
-2.220468 0.333530 0.000000 
-2.218579 0.223991 0.000000 
-2.146376 0.275841 0.000000 
-2.206503 0.158921 0.000000 
0.473879 1.275636 0.000000 
0.446488 1.223304 0.000000 
0.440978 1.179285 0.000000 
0.409581 1.171430 0.000000 
0.629179 2.000326 0.000000 
0.593839 1.967852 0.000000 
0.550362 1.923648 0.000000 
0.483841 1.883226 0.000000 
0.202470 1.024393 0.000000 
0.241245 0.876618 0.000000 
0.205152 0.851817 0.000000 
0.175878 0.803677 0.000000 
0.153326 0.745170 0.000000 
0.132079 0.684720 0.000000 
0.113278 0.620264 0.000000 
0.106000 0.551941 0.000000 
0.109640 0.482745 0.000000 
0.121648 0.412067 0.000000 
0.032483 0.322452 0.000000 
0.246820 0.405131 0.000000 
0.099619 0.270818 0.000000 
0.373127 1.156548 0.000000 
-0.307911 2.019688 0.000000 
-0.360136 2.001218 0.000000 
-0.343252 1.946873 0.000000 
-0.270247 1.955017 0.000000 
0.168337 0.267336 0.000000 
0.242346 0.256999 0.000000 
0.270369 0.326036 0.000000 
0.505525 1.382009 0.000000 
-0.689828 0.209264 0.000000 
-0.729540 0.266668 0.000000 
-0.746154 0.341140 0.000000 
-0.657668 0.357705 0.000000 
-0.661195 0.273418 0.000000 
-0.924642 0.510380 0.000000 
-1.137284 1.773744 0.000000 
-1.072920 1.729150 0.000000 
-1.248127 1.786041 0.000000 
-1.304069 1.769718 0.000000 
-1.360197 1.762058 0.000000 
-1.411221 1.757919 0.000000 
-1.453165 1.754689 0.000000 
-1.486003 1.737227 0.000000 
-1.510814 1.693758 0.000000 
-1.558800 1.649089 0.000000 
-0.995058 1.702397 0.000000 
-0.919611 1.691920 0.000000 
-0.852227 1.698852 0.000000 
-0.796966 1.715371 0.000000 
-0.752732 1.734540 0.000000 
-1.635591 1.621756 0.000000 
-1.992480 0.896457 0.000000 
-1.965104 0.786678 0.000000 
-1.974377 0.683345 0.000000 
-2.014368 0.589723 0.000000 
-2.065453 0.506537 0.000000 
-2.071492 0.353470 0.000000 
-2.131272 0.437007 0.000000 
-1.712039 1.608433 0.000000 
-1.781280 1.608383 0.000000 
-1.884796 1.578326 0.000000 
0.516332 1.797989 0.000000 
0.538779 1.726861 0.000000 
0.517174 1.456394 0.000000 
0.552532 1.518331 0.000000 
0.576896 1.560257 0.000000 
0.583356 1.597283 0.000000 
0.576083 1.634288 0.000000 
0.562288 1.676648 0.000000 