# vtk DataFile Version 3.0 
vtk output 
ASCII 
DATASET UNSTRUCTURED_GRID 
POINTS 899 float 
-3.648847 2.168086 0.000000 
-3.619410 2.127534 0.000000 
-3.578536 2.091939 0.000000 
-3.540028 2.056288 0.000000 
-3.511690 2.024093 0.000000 
-3.481362 1.994235 0.000000 
-3.451569 1.953561 0.000000 
0.772356 2.070600 0.000000 
0.774615 2.044479 0.000000 
0.769962 2.015724 0.000000 
-3.399514 1.923285 0.000000 
0.413960 -0.721557 0.000000 
0.455573 -0.717254 0.000000 
-1.762619 -0.621452 0.000000 
-1.783389 -0.586056 0.000000 
-1.714437 -0.557267 0.000000 
0.732567 2.064924 0.000000 
0.698438 2.051088 0.000000 
0.491831 -0.703052 0.000000 
0.519501 -0.672646 0.000000 
0.530556 -0.632200 0.000000 
0.532354 -0.586396 0.000000 
0.531774 -0.535889 0.000000 
-3.460923 1.861552 0.000000 
0.663989 2.029142 0.000000 
0.631675 2.001747 0.000000 
0.601833 1.977692 0.000000 
0.569607 1.954434 0.000000 
0.534059 1.932357 0.000000 
0.492599 1.911217 0.000000 
0.444403 1.892552 0.000000 
0.762807 1.974750 0.000000 
-1.708694 -0.522885 0.000000 
-1.726386 -0.482621 0.000000 
-1.761257 -0.458600 0.000000 
-1.812853 -0.450752 0.000000 
-0.690422 -0.703087 0.000000 
-0.624256 -0.721015 0.000000 
-0.561079 -0.729197 0.000000 
-0.500739 -0.730652 0.000000 
-0.445387 -0.730714 0.000000 
0.532260 -0.476805 0.000000 
0.536647 -0.407472 0.000000 
-1.881389 -0.438251 0.000000 
-0.389303 -0.728440 0.000000 
-0.340338 -0.713155 0.000000 
-0.344339 -0.659019 0.000000 
-0.358558 -0.606480 0.000000 
-0.381750 -0.565568 0.000000 
-0.406193 -0.531394 0.000000 
-0.417316 -0.499896 0.000000 
-0.428320 -0.465639 0.000000 
-0.436973 -0.421374 0.000000 
-0.444212 -0.365832 0.000000 
-0.452662 -0.306973 0.000000 
-0.468602 -0.250074 0.000000 
0.553166 -0.342757 0.000000 
0.573193 -0.285086 0.000000 
0.574450 -0.233345 0.000000 
0.561087 -0.183026 0.000000 
0.550432 -0.127703 0.000000 
0.748903 1.921432 0.000000 
0.730940 1.864940 0.000000 
0.715868 1.818781 0.000000 
0.699446 1.782653 0.000000 
0.684888 1.741663 0.000000 
0.675900 1.695459 0.000000 
0.669871 1.645899 0.000000 
0.664455 1.598042 0.000000 
0.668163 1.551623 0.000000 
0.672091 1.501789 0.000000 
0.674558 1.453765 0.000000 
0.673045 1.403686 0.000000 
0.386491 1.882872 0.000000 
0.664855 1.344947 0.000000 
0.652298 1.286870 0.000000 
0.638456 1.233220 0.000000 
0.623121 1.183710 0.000000 
0.616008 1.140682 0.000000 
0.600787 1.105740 0.000000 
0.571289 1.076291 0.000000 
0.539016 1.045130 0.000000 
0.513857 1.016231 0.000000 
0.493343 0.989996 0.000000 
0.469109 0.972183 0.000000 
0.444920 0.955739 0.000000 
0.415324 0.934773 0.000000 
0.383540 0.910021 0.000000 
0.356179 0.880689 0.000000 
0.343879 0.841789 0.000000 
0.337476 0.796268 0.000000 
0.332404 0.750982 0.000000 
0.328512 0.711292 0.000000 
0.319594 0.675213 0.000000 
0.304149 0.641802 0.000000 
0.290502 0.601411 0.000000 
0.275896 0.553548 0.000000 
0.261905 0.511579 0.000000 
0.250150 0.477984 0.000000 
0.250896 0.440179 0.000000 
0.259587 0.397576 0.000000 
0.284617 0.354803 0.000000 
0.315237 0.325141 0.000000 
0.340022 0.305705 0.000000 
0.354380 0.279856 0.000000 
0.368685 0.252713 0.000000 
0.385568 0.226317 0.000000 
0.415372 0.201520 0.000000 
0.447119 0.169807 0.000000 
0.477633 0.141891 0.000000 
0.503078 0.113955 0.000000 
0.518876 0.075900 0.000000 
0.527127 0.039932 0.000000 
0.534187 -0.004614 0.000000 
0.543185 -0.065394 0.000000 
0.322519 1.871816 0.000000 
0.263849 1.858699 0.000000 
0.208223 1.853279 0.000000 
0.150441 1.849451 0.000000 
-0.687392 -0.630020 0.000000 
-3.327058 1.897053 0.000000 
-3.276080 1.850632 0.000000 
-3.224941 1.817045 0.000000 
-3.181728 1.787887 0.000000 
-3.135074 1.750957 0.000000 
-3.078123 1.726664 0.000000 
-1.944260 -0.393373 0.000000 
0.083204 1.854607 0.000000 
0.005786 1.849254 0.000000 
-0.071812 1.858492 0.000000 
-0.135705 1.888034 0.000000 
-0.182391 1.929639 0.000000 
-1.999041 -0.322404 0.000000 
-1.843230 -0.596913 0.000000 
-0.491126 -0.186114 0.000000 
-0.512312 -0.112872 0.000000 
-0.526535 -0.050039 0.000000 
-0.527935 0.012083 0.000000 
-0.524207 0.079253 0.000000 
-0.505864 0.136384 0.000000 
-0.468875 0.185596 0.000000 
-0.410369 0.214841 0.000000 
-0.354013 0.235959 0.000000 
-0.301050 0.245904 0.000000 
-0.255730 0.246677 0.000000 
-0.695595 -0.551724 0.000000 
-0.726457 -0.474843 0.000000 
-0.747352 -0.405387 0.000000 
-3.396487 1.839918 0.000000 
-3.344056 1.760530 0.000000 
-3.294256 1.717129 0.000000 
-3.248246 1.678805 0.000000 
-3.196818 1.639451 0.000000 
-3.159669 1.588141 0.000000 
-3.113281 1.541437 0.000000 
-3.056061 1.521873 0.000000 
-2.996684 1.499248 0.000000 
-2.933161 1.469632 0.000000 
-2.879064 1.433489 0.000000 
-2.813006 1.408704 0.000000 
-2.751664 1.385654 0.000000 
-2.686782 1.356331 0.000000 
-1.922020 -0.594106 0.000000 
-1.999705 -0.595605 0.000000 
-2.060018 -0.574001 0.000000 
-2.032615 -0.239014 0.000000 
-2.048550 -0.153292 0.000000 
-2.029059 -0.087399 0.000000 
-2.105228 -0.516943 0.000000 
-2.154373 -0.449348 0.000000 
-2.203584 -0.394725 0.000000 
-2.237020 -0.333289 0.000000 
-2.250593 -0.267997 0.000000 
-2.270119 -0.196212 0.000000 
-2.297898 -0.125902 0.000000 
-2.327118 -0.064322 0.000000 
-2.346747 -0.010352 0.000000 
-2.362840 0.042757 0.000000 
-2.374561 0.093802 0.000000 
-2.373128 0.145777 0.000000 
-2.334174 0.212367 0.000000 
-2.331842 0.252986 0.000000 
-2.284565 0.261744 0.000000 
-0.236368 1.979175 0.000000 
-0.299146 2.023001 0.000000 
-0.346614 2.042927 0.000000 
-0.382877 2.006424 0.000000 
-0.412447 1.977374 0.000000 
-0.433989 1.937086 0.000000 
-0.446472 1.894120 0.000000 
-0.451628 1.854802 0.000000 
-0.451047 1.816339 0.000000 
-0.449242 1.780336 0.000000 
-0.453345 1.748446 0.000000 
-0.460251 1.720753 0.000000 
-0.470304 1.691968 0.000000 
-0.475290 1.662478 0.000000 
-0.478341 1.632692 0.000000 
-0.479442 1.595956 0.000000 
-2.609147 1.342542 0.000000 
-2.517189 1.337043 0.000000 
-2.434013 1.337380 0.000000 
-2.352624 1.327348 0.000000 
-2.274410 1.307977 0.000000 
-2.204499 1.273329 0.000000 
-2.180326 1.204446 0.000000 
-2.178559 1.115910 0.000000 
-2.168273 1.025881 0.000000 
-2.159086 0.927817 0.000000 
-2.144575 0.838658 0.000000 
-2.163040 0.763441 0.000000 
-2.183612 0.689349 0.000000 
-2.172907 0.624792 0.000000 
-2.161614 0.562037 0.000000 
-2.169833 0.501925 0.000000 
-2.188987 0.440171 0.000000 
-2.218663 0.388926 0.000000 
-2.229021 0.333053 0.000000 
-2.997130 1.709867 0.000000 
-3.021908 1.611729 0.000000 
-2.902046 1.678360 0.000000 
-0.770600 -0.322794 0.000000 
-0.790096 -0.231135 0.000000 
-0.811857 -0.150427 0.000000 
-0.835807 -0.071863 0.000000 
-0.859157 -0.001736 0.000000 
-0.881226 0.058316 0.000000 
-0.903169 0.117667 0.000000 
-0.928196 0.181711 0.000000 
-2.785442 1.645806 0.000000 
-2.944278 1.585064 0.000000 
-2.855014 1.547919 0.000000 
-2.796189 1.487839 0.000000 
-2.651235 1.631060 0.000000 
-2.517962 1.620713 0.000000 
-2.394240 1.611550 0.000000 
-2.275192 1.603554 0.000000 
-2.180847 1.578993 0.000000 
-2.099904 1.552513 0.000000 
-2.018420 1.521274 0.000000 
-1.945469 1.525571 0.000000 
-1.885190 1.558911 0.000000 
-1.829736 1.579480 0.000000 
-1.760875 1.604711 0.000000 
-1.680504 1.633136 0.000000 
-1.617798 1.651452 0.000000 
-1.570169 1.665976 0.000000 
-1.527149 1.680166 0.000000 
-1.482581 1.692295 0.000000 
-1.433927 1.698836 0.000000 
-1.386311 1.706750 0.000000 
-1.337319 1.715481 0.000000 
-1.286363 1.722560 0.000000 
-1.235962 1.723278 0.000000 
-1.188452 1.728091 0.000000 
-1.140860 1.737542 0.000000 
-1.091558 1.736851 0.000000 
-1.038962 1.725833 0.000000 
-0.982519 1.706835 0.000000 
-0.922315 1.690092 0.000000 
-0.869867 1.679768 0.000000 
-0.827747 1.673278 0.000000 
-0.785371 1.668366 0.000000 
-0.748025 1.658629 0.000000 
-0.712781 1.648362 0.000000 
-0.681690 1.634430 0.000000 
-0.657198 1.623296 0.000000 
-0.633895 1.616633 0.000000 
-0.612002 1.612177 0.000000 
-0.594184 1.604965 0.000000 
-0.577381 1.595514 0.000000 
-0.560109 1.580231 0.000000 
-0.540091 1.547777 0.000000 
-1.243914 -0.091069 0.000000 
-1.232782 -0.077352 0.000000 
-1.257376 -0.105423 0.000000 
-1.224378 -0.058653 0.000000 
-1.271472 -0.124768 0.000000 
-1.215702 -0.036656 0.000000 
-1.204660 -0.010599 0.000000 
-1.290143 -0.152510 0.000000 
-1.314447 -0.197550 0.000000 
-1.190204 0.019707 0.000000 
-1.318041 -0.250904 0.000000 
-1.171655 0.053864 0.000000 
-1.149359 0.090178 0.000000 
-1.123094 0.128426 0.000000 
-1.284246 -0.300884 0.000000 
-1.239750 -0.351610 0.000000 
-1.083297 0.172418 0.000000 
-1.028190 0.204089 0.000000 
-1.181630 -0.393967 0.000000 
-1.112789 -0.425394 0.000000 
-1.040643 -0.437564 0.000000 
-0.978118 -0.440651 0.000000 
-0.927392 -0.453677 0.000000 
-0.889718 -0.492811 0.000000 
-0.873564 -0.549361 0.000000 
-0.920771 -0.581555 0.000000 
-0.935346 -0.514287 0.000000 
-0.991249 -0.591131 0.000000 
-1.088918 -0.588403 0.000000 
-1.067426 -0.508751 0.000000 
-1.189474 -0.580840 0.000000 
-1.147229 -0.496084 0.000000 
-1.266509 -0.557550 0.000000 
-1.219913 -0.469906 0.000000 
-1.335307 -0.521723 0.000000 
-1.284456 -0.431907 0.000000 
-1.402357 -0.477819 0.000000 
-1.341444 -0.384107 0.000000 
-1.466758 -0.425144 0.000000 
-1.539152 -0.364345 0.000000 
-1.393011 -0.326176 0.000000 
-1.612839 -0.294073 0.000000 
-1.665320 -0.236495 0.000000 
-1.691220 -0.171668 0.000000 
-1.704696 -0.086175 0.000000 
-1.850073 0.080695 0.000000 
-1.911042 0.024870 0.000000 
-1.969645 -0.031967 0.000000 
-1.726970 0.020236 0.000000 
-0.222881 0.228066 0.000000 
-0.195707 0.200483 0.000000 
-0.164205 0.163536 0.000000 
-0.127520 0.130838 0.000000 
-0.095686 0.101346 0.000000 
-0.059027 0.072868 0.000000 
-0.018954 0.042884 0.000000 
0.030296 0.011614 0.000000 
0.086536 -0.008912 0.000000 
0.141893 -0.027644 0.000000 
0.202102 -0.056923 0.000000 
0.263408 -0.096840 0.000000 
0.311661 -0.146827 0.000000 
0.333954 -0.206450 0.000000 
0.338621 -0.266900 0.000000 
0.341530 -0.320838 0.000000 
0.353165 -0.371027 0.000000 
0.365710 -0.429450 0.000000 
[...]
POINT_DATA 899 
VECTORS X_GC float 
-3.648847 2.168086 0.000000 
-3.619410 2.127534 0.000000 
-3.578536 2.091939 0.000000 
-3.540028 2.056288 0.000000 
-3.511690 2.024093 0.000000 
-3.481362 1.994235 0.000000 
-3.451569 1.953561 0.000000 
0.772356 2.070600 0.000000 
0.774615 2.044479 0.000000 
0.769962 2.015724 0.000000 
-3.399514 1.923285 0.000000 
0.413960 -0.721557 0.000000 
0.455573 -0.717254 0.000000 
-1.762619 -0.621452 0.000000 
-1.783389 -0.586056 0.000000 
-1.714437 -0.557267 0.000000 
0.732567 2.064924 0.000000 
0.698438 2.051088 0.000000 
0.491831 -0.703052 0.000000 
0.519501 -0.672646 0.000000 
0.530556 -0.632200 0.000000 
0.532354 -0.586396 0.000000 
0.531774 -0.535889 0.000000 
-3.460923 1.861552 0.000000 
0.663989 2.029142 0.000000 
0.631675 2.001747 0.000000 
0.601833 1.977692 0.000000 
0.569607 1.954434 0.000000 
0.534059 1.932357 0.000000 
0.492599 1.911217 0.000000 
0.444403 1.892552 0.000000 
0.762807 1.974750 0.000000 
-1.708694 -0.522885 0.000000 
-1.726386 -0.482621 0.000000 
-1.761257 -0.458600 0.000000 
-1.812853 -0.450752 0.000000 
-0.690422 -0.703087 0.000000 
-0.624256 -0.721015 0.000000 
-0.561079 -0.729197 0.000000 
-0.500739 -0.730652 0.000000 
-0.445387 -0.730714 0.000000 
0.532260 -0.476805 0.000000 
0.536647 -0.407472 0.000000 
-1.881389 -0.438251 0.000000 
-0.389303 -0.728440 0.000000 
-0.340338 -0.713155 0.000000 
-0.344339 -0.659019 0.000000 
-0.358558 -0.606480 0.000000 
-0.381750 -0.565568 0.000000 
-0.406193 -0.531394 0.000000 
-0.417316 -0.499896 0.000000 
-0.428320 -0.465639 0.000000 
-0.436973 -0.421374 0.000000 
-0.444212 -0.365832 0.000000 
-0.452662 -0.306973 0.000000 
-0.468602 -0.250074 0.000000 
0.553166 -0.342757 0.000000 
0.573193 -0.285086 0.000000 
0.574450 -0.233345 0.000000 
0.561087 -0.183026 0.000000 
0.550432 -0.127703 0.000000 
0.748903 1.921432 0.000000 
0.730940 1.864940 0.000000 
0.715868 1.818781 0.000000 
0.699446 1.782653 0.000000 
0.684888 1.741663 0.000000 
0.675900 1.695459 0.000000 
0.669871 1.645899 0.000000 
0.664455 1.598042 0.000000 
0.668163 1.551623 0.000000 
0.672091 1.501789 0.000000 
0.674558 1.453765 0.000000 
0.673045 1.403686 0.000000 
0.386491 1.882872 0.000000 
0.664855 1.344947 0.000000 
0.652298 1.286870 0.000000 
0.638456 1.233220 0.000000 
0.623121 1.183710 0.000000 
0.616008 1.140682 0.000000 
0.600787 1.105740 0.000000 
0.571289 1.076291 0.000000 
0.539016 1.045130 0.000000 
0.513857 1.016231 0.000000 
0.493343 0.989996 0.000000 
0.469109 0.972183 0.000000 
0.444920 0.955739 0.000000 
0.415324 0.934773 0.000000 
0.383540 0.910021 0.000000 
0.356179 0.880689 0.000000 
0.343879 0.841789 0.000000 
0.337476 0.796268 0.000000 
0.332404 0.750982 0.000000 
0.328512 0.711292 0.000000 
0.319594 0.675213 0.000000 
0.304149 0.641802 0.000000 
0.290502 0.601411 0.000000 
0.275896 0.553548 0.000000 
0.261905 0.511579 0.000000 
0.250150 0.477984 0.000000 
0.250896 0.440179 0.000000 
0.259587 0.397576 0.000000 
0.284617 0.354803 0.000000 
0.315237 0.325141 0.000000 
0.340022 0.305705 0.000000 
0.354380 0.279856 0.000000 
0.368685 0.252713 0.000000 
0.385568 0.226317 0.000000 
0.415372 0.201520 0.000000 
0.447119 0.169807 0.000000 
0.477633 0.141891 0.000000 
0.503078 0.113955 0.000000 
0.518876 0.075900 0.000000 
0.527127 0.039932 0.000000 
0.534187 -0.004614 0.000000 
0.543185 -0.065394 0.000000 
0.322519 1.871816 0.000000 
0.263849 1.858699 0.000000 
0.208223 1.853279 0.000000 
0.150441 1.849451 0.000000 
-0.687392 -0.630020 0.000000 
-3.327058 1.897053 0.000000 
-3.276080 1.850632 0.000000 
-3.224941 1.817045 0.000000 
-3.181728 1.787887 0.000000 
-3.135074 1.750957 0.000000 
-3.078123 1.726664 0.000000 
-1.944260 -0.393373 0.000000 
0.083204 1.854607 0.000000 
0.005786 1.849254 0.000000 
-0.071812 1.858492 0.000000 
-0.135705 1.888034 0.000000 
-0.182391 1.929639 0.000000 
-1.999041 -0.322404 0.000000 
-1.843230 -0.596913 0.000000 
-0.491126 -0.186114 0.000000 
-0.512312 -0.112872 0.000000 
-0.526535 -0.050039 0.000000 
-0.527935 0.012083 0.000000 
-0.524207 0.079253 0.000000 
-0.505864 0.136384 0.000000 
-0.468875 0.185596 0.000000 
-0.410369 0.214841 0.000000 
-0.354013 0.235959 0.000000 
-0.301050 0.245904 0.000000 
-0.255730 0.246677 0.000000 
-0.695595 -0.551724 0.000000 
-0.726457 -0.474843 0.000000 
-0.747352 -0.405387 0.000000 
-3.396487 1.839918 0.000000 
-3.344056 1.760530 0.000000 
-3.294256 1.717129 0.000000 
-3.248246 1.678805 0.000000 
-3.196818 1.639451 0.000000 
-3.159669 1.588141 0.000000 
-3.113281 1.541437 0.000000 
-3.056061 1.521873 0.000000 
-2.996684 1.499248 0.000000 
-2.933161 1.469632 0.000000 
-2.879064 1.433489 0.000000 
-2.813006 1.408704 0.000000 
-2.751664 1.385654 0.000000 
-2.686782 1.356331 0.000000 
-1.922020 -0.594106 0.000000 
-1.999705 -0.595605 0.000000 
-2.060018 -0.574001 0.000000 
-2.032615 -0.239014 0.000000 
-2.048550 -0.153292 0.000000 
-2.029059 -0.087399 0.000000 
-2.105228 -0.516943 0.000000 
-2.154373 -0.449348 0.000000 
-2.203584 -0.394725 0.000000 
-2.237020 -0.333289 0.000000 
-2.250593 -0.267997 0.000000 
-2.270119 -0.196212 0.000000 
-2.297898 -0.125902 0.000000 
-2.327118 -0.064322 0.000000 
-2.346747 -0.010352 0.000000 
-2.362840 0.042757 0.000000 
-2.374561 0.093802 0.000000 
-2.373128 0.145777 0.000000 
-2.334174 0.212367 0.000000 
-2.331842 0.252986 0.000000 
-2.284565 0.261744 0.000000 
-0.236368 1.979175 0.000000 
-0.299146 2.023001 0.000000 
-0.346614 2.042927 0.000000 
-0.382877 2.006424 0.000000 
-0.412447 1.977374 0.000000 
-0.433989 1.937086 0.000000 
-0.446472 1.894120 0.000000 
-0.451628 1.854802 0.000000 
-0.451047 1.816339 0.000000 
-0.449242 1.780336 0.000000 
-0.453345 1.748446 0.000000 
-0.460251 1.720753 0.000000 
-0.470304 1.691968 0.000000 
-0.475290 1.662478 0.000000 
-0.478341 1.632692 0.000000 
-0.479442 1.595956 0.000000 
-2.609147 1.342542 0.000000 
-2.517189 1.337043 0.000000 
-2.434013 1.337380 0.000000 
-2.352624 1.327348 0.000000 
-2.274410 1.307977 0.000000 
-2.204499 1.273329 0.000000 
-2.180326 1.204446 0.000000 
-2.178559 1.115910 0.000000 
-2.168273 1.025881 0.000000 
-2.159086 0.927817 0.000000 
-2.144575 0.838658 0.000000 
-2.163040 0.763441 0.000000 
-2.183612 0.689349 0.000000 
-2.172907 0.624792 0.000000 
-2.161614 0.562037 0.000000 
-2.169833 0.501925 0.000000 
-2.188987 0.440171 0.000000 
-2.218663 0.388926 0.000000 
-2.229021 0.333053 0.000000 
-2.997130 1.709867 0.000000 
-3.021908 1.611729 0.000000 
-2.902046 1.678360 0.000000 
-0.770600 -0.322794 0.000000 
-0.790096 -0.231135 0.000000 
-0.811857 -0.150427 0.000000 
-0.835807 -0.071863 0.000000 
-0.859157 -0.001736 0.000000 
-0.881226 0.058316 0.000000 
-0.903169 0.117667 0.000000 
-0.928196 0.181711 0.000000 
-2.785442 1.645806 0.000000 
-2.944278 1.585064 0.000000 
-2.855014 1.547919 0.000000 
-2.796189 1.487839 0.000000 
-2.651235 1.631060 0.000000 
-2.517962 1.620713 0.000000 
-2.394240 1.611550 0.000000 
-2.275192 1.603554 0.000000 
-2.180847 1.578993 0.000000 
-2.099904 1.552513 0.000000 
-2.018420 1.521274 0.000000 
-1.945469 1.525571 0.000000 
-1.885190 1.558911 0.000000 
-1.829736 1.579480 0.000000 
-1.760875 1.604711 0.000000 
-1.680504 1.633136 0.000000 
-1.617798 1.651452 0.000000 
-1.570169 1.665976 0.000000 
-1.527149 1.680166 0.000000 
-1.482581 1.692295 0.000000 
-1.433927 1.698836 0.000000 
-1.386311 1.706750 0.000000 
-1.337319 1.715481 0.000000 
-1.286363 1.722560 0.000000 
-1.235962 1.723278 0.000000 
-1.188452 1.728091 0.000000 
-1.140860 1.737542 0.000000 
-1.091558 1.736851 0.000000 
-1.038962 1.725833 0.000000 
-0.982519 1.706835 0.000000 
-0.922315 1.690092 0.000000 
-0.869867 1.679768 0.000000 
-0.827747 1.673278 0.000000 
-0.785371 1.668366 0.000000 
-0.748025 1.658629 0.000000 
-0.712781 1.648362 0.000000 
-0.681690 1.634430 0.000000 
-0.657198 1.623296 0.000000 
-0.633895 1.616633 0.000000 
-0.612002 1.612177 0.000000 
-0.594184 1.604965 0.000000 
-0.577381 1.595514 0.000000 
-0.560109 1.580231 0.000000 
-0.540091 1.547777 0.000000 
-1.243914 -0.091069 0.000000 
-1.232782 -0.077352 0.000000 
-1.257376 -0.105423 0.000000 
-1.224378 -0.058653 0.000000 
-1.271472 -0.124768 0.000000 
-1.215702 -0.036656 0.000000 
-1.204660 -0.010599 0.000000 
-1.290143 -0.152510 0.000000 
-1.314447 -0.197550 0.000000 
-1.190204 0.019707 0.000000 
-1.318041 -0.250904 0.000000 
-1.171655 0.053864 0.000000 
-1.149359 0.090178 0.000000 
-1.123094 0.128426 0.000000 
-1.284246 -0.300884 0.000000 
-1.239750 -0.351610 0.000000 
-1.083297 0.172418 0.000000 
-1.028190 0.204089 0.000000 
-1.181630 -0.393967 0.000000 
-1.112789 -0.425394 0.000000 
-1.040643 -0.437564 0.000000 
-0.978118 -0.440651 0.000000 
-0.927392 -0.453677 0.000000 
-0.889718 -0.492811 0.000000 
-0.873564 -0.549361 0.000000 
-0.920771 -0.581555 0.000000 
-0.935346 -0.514287 0.000000 
-0.991249 -0.591131 0.000000 
-1.088918 -0.588403 0.000000 
-1.067426 -0.508751 0.000000 
-1.189474 -0.580840 0.000000 
-1.147229 -0.496084 0.000000 
-1.266509 -0.557550 0.000000 
-1.219913 -0.469906 0.000000 
-1.335307 -0.521723 0.000000 
-1.284456 -0.431907 0.000000 
-1.402357 -0.477819 0.000000 
-1.341444 -0.384107 0.000000 
-1.466758 -0.425144 0.000000 
-1.539152 -0.364345 0.000000 
-1.393011 -0.326176 0.000000 
-1.612839 -0.294073 0.000000 
-1.665320 -0.236495 0.000000 
-1.691220 -0.171668 0.000000 
-1.704696 -0.086175 0.000000 
-1.850073 0.080695 0.000000 
-1.911042 0.024870 0.000000 
-1.969645 -0.031967 0.000000 
-1.726970 0.020236 0.000000 
-0.222881 0.228066 0.000000 
-0.195707 0.200483 0.000000 
-0.164205 0.163536 0.000000 
-0.127520 0.130838 0.000000 
-0.095686 0.101346 0.000000 
-0.059027 0.072868 0.000000 
-0.018954 0.042884 0.000000 
0.030296 0.011614 0.000000 
0.086536 -0.008912 0.000000 
0.141893 -0.027644 0.000000 
0.202102 -0.056923 0.000000 
0.263408 -0.096840 0.000000 
0.311661 -0.146827 0.000000 
0.333954 -0.206450 0.000000 
0.338621 -0.266900 0.000000 
0.341530 -0.320838 0.000000 
0.353165 -0.371027 0.000000 
0.365710 -0.429450 0.000000 
0.363543 -0.498978 0.000000 
0.357353 -0.561093 0.000000 
0.351188 -0.611835 0.000000 
0.363842 -0.658863 0.000000 
-1.737069 -0.525515 0.000000 
-0.199590 0.280683 0.000000 
-0.156305 0.250767 0.000000 
-0.462327 1.516723 0.000000 
0.741313 2.039298 0.000000 
0.482415 -0.669634 0.000000 
0.446104 -0.677530 0.000000 
0.403556 -0.683185 0.000000 
-0.104001 0.222702 0.000000 
-0.514998 1.448778 0.000000 
-0.059937 0.188297 0.000000 
0.738519 2.014032 0.000000 
0.714572 2.026333 0.000000 
-0.249752 0.307507 0.000000 
-0.036232 0.144499 0.000000 
0.000772 0.116667 0.000000 
0.035161 0.091022 0.000000 
-1.776537 -0.524956 0.000000 
-1.836238 -0.520771 0.000000 
-0.309416 0.321607 0.000000 
-0.378944 0.319343 0.000000 
-2.292732 0.198931 0.000000 
-2.315166 0.148940 0.000000 
-2.314418 0.101383 0.000000 
-2.293418 0.054997 0.000000 
-2.279687 0.005118 0.000000 
-2.253462 -0.042148 0.000000 
0.075120 0.063280 0.000000 
0.131113 0.050672 0.000000 
-0.977004 0.252655 0.000000 
-0.860050 0.242490 0.000000 
-1.912142 -0.512715 0.000000 
-1.989966 -0.521495 0.000000 
-2.023752 -0.453953 0.000000 
-2.082175 -0.382692 0.000000 
0.723889 1.982519 0.000000 
0.691466 2.001362 0.000000 
0.665980 1.968716 0.000000 
0.704783 1.941447 0.000000 
0.637970 1.930658 0.000000 
0.681732 1.894239 0.000000 
0.670916 1.848064 0.000000 
0.602858 1.898989 0.000000 
0.659584 1.807640 0.000000 
0.560783 1.872619 0.000000 
0.636111 1.771565 0.000000 
0.607495 1.721774 0.000000 
0.595324 1.658294 0.000000 
0.604052 1.593621 0.000000 
0.514160 1.843215 0.000000 
0.453857 1.815770 0.000000 
0.392525 1.813792 0.000000 
0.334098 1.812263 0.000000 
0.278675 1.793510 0.000000 
0.217273 1.775434 0.000000 
0.149449 1.758079 0.000000 
0.614128 1.541345 0.000000 
0.621313 1.493766 0.000000 
0.624262 1.448886 0.000000 
-2.197766 -0.095337 0.000000 
-2.158682 -0.170260 0.000000 
-2.124695 -0.036006 0.000000 
-2.150589 -0.336387 0.000000 
-2.141926 -0.258841 0.000000 
-0.393439 -0.675401 0.000000 
-0.412631 -0.631358 0.000000 
-0.436983 -0.590754 0.000000 
-0.445953 -0.547335 0.000000 
-0.458251 -0.514509 0.000000 
-0.479726 -0.479742 0.000000 
-0.496934 -0.431012 0.000000 
-0.509002 -0.375928 0.000000 
-0.517157 -0.321597 0.000000 
-0.545309 -0.270322 0.000000 
-0.442273 -0.672795 0.000000 
-0.496002 -0.663278 0.000000 
-0.557668 -0.665385 0.000000 
-0.618975 -0.649905 0.000000 
-0.334659 1.981114 0.000000 
-0.367985 1.951396 0.000000 
-0.385153 1.914971 0.000000 
-0.396797 1.881104 0.000000 
-0.406285 1.845581 0.000000 
-0.402558 1.806448 0.000000 
-0.406645 1.768005 0.000000 
-0.418378 1.735590 0.000000 
-0.428059 1.706465 0.000000 
-0.435849 1.676918 0.000000 
-0.442335 1.646883 0.000000 
-0.445406 1.613818 0.000000 
-0.444483 1.568101 0.000000 
0.619822 1.403154 0.000000 
-1.077870 0.299719 0.000000 
-1.149036 0.257760 0.000000 
-1.174735 0.182918 0.000000 
-1.192231 0.131194 0.000000 
-1.210811 0.089418 0.000000 
-1.228352 0.050078 0.000000 
-1.238869 0.012098 0.000000 
-1.244643 -0.019399 0.000000 
-1.248534 -0.044300 0.000000 
-1.252336 -0.063588 0.000000 
-1.262323 -0.076839 0.000000 
-1.280319 -0.087755 0.000000 
-0.451814 0.296682 0.000000 
-0.526928 0.253161 0.000000 
0.194935 0.033680 0.000000 
0.069048 1.743979 0.000000 
-0.574175 0.182476 0.000000 
-0.593607 0.101374 0.000000 
-1.764101 0.141058 0.000000 
-2.210991 0.259915 0.000000 
-0.825996 0.157213 0.000000 
-0.799223 0.086132 0.000000 
-0.760911 0.019699 0.000000 
0.605964 1.352202 0.000000 
0.587834 1.294842 0.000000 
0.576354 1.234994 0.000000 
0.574971 1.179985 0.000000 
0.580375 1.136961 0.000000 
0.545179 1.114577 0.000000 
0.509957 1.082314 0.000000 
0.484198 1.045912 0.000000 
0.468721 1.014758 0.000000 
0.449386 0.996226 0.000000 
0.422962 0.983561 0.000000 
0.391379 0.964410 0.000000 
0.357154 0.940347 0.000000 
0.323730 0.911974 0.000000 
-0.582151 -0.209454 0.000000 
0.265957 0.007250 0.000000 
0.333763 -0.038880 0.000000 
0.378371 -0.105895 0.000000 
0.400918 -0.180290 0.000000 
0.401084 -0.243279 0.000000 
0.404345 -0.297380 0.000000 
0.432648 -0.348462 0.000000 
0.450030 -0.412903 0.000000 
0.529803 -0.259750 0.000000 
0.491947 -0.307887 0.000000 
0.453243 -0.258004 0.000000 
0.449550 -0.487227 0.000000 
0.498420 -0.213876 0.000000 
0.474171 -0.153935 0.000000 
0.457863 -0.079362 0.000000 
0.462195 -0.545881 0.000000 
0.478704 -0.592217 0.000000 
0.483460 -0.633183 0.000000 
0.412910 -0.571523 0.000000 
0.398390 -0.610236 0.000000 
0.404290 -0.644524 0.000000 
0.442452 -0.639966 0.000000 
0.436659 -0.604801 0.000000 
-0.727378 -0.054434 0.000000 
-0.616071 0.027584 0.000000 
-0.623548 -0.046697 0.000000 
-0.605779 -0.127704 0.000000 
-0.706340 -0.140152 0.000000 
-0.681483 -0.226414 0.000000 
-0.032304 1.738418 0.000000 
-0.128010 1.774568 0.000000 
-0.195732 1.841692 0.000000 
-0.243911 1.895606 0.000000 
-0.287859 1.943009 0.000000 
-0.335518 1.915314 0.000000 
-0.667608 -0.311795 0.000000 
-0.584906 -0.318563 0.000000 
-0.658169 -0.391804 0.000000 
-0.578442 -0.383933 0.000000 
-0.639050 -0.463246 0.000000 
-0.607982 -0.538763 0.000000 
-0.562541 -0.446633 0.000000 
-0.536184 -0.507656 0.000000 
-0.495978 -0.545618 0.000000 
-0.500680 -0.598012 0.000000 
-0.573051 -0.602465 0.000000 
-2.690892 1.511713 0.000000 
-2.684799 1.425700 0.000000 
-2.602920 1.424438 0.000000 
-2.574381 1.509431 0.000000 
-2.518122 1.444305 0.000000 
-2.424460 1.468203 0.000000 
-2.320006 1.459272 0.000000 
-2.229986 1.435654 0.000000 
-2.146342 1.394414 0.000000 
-1.455055 -0.267195 0.000000 
-1.387692 -0.186871 0.000000 
-1.339496 -0.133543 0.000000 
-1.304977 -0.104983 0.000000 
-1.531301 -0.201702 0.000000 
-1.604385 -0.157589 0.000000 
-1.592423 -0.056908 0.000000 
-1.608296 0.067054 0.000000 
-1.827918 0.265500 0.000000 
0.477873 0.034303 0.000000 
0.477147 0.069202 0.000000 
0.465631 0.103442 0.000000 
-0.587742 1.547651 0.000000 
-0.593403 1.571755 0.000000 
-0.604579 1.584411 0.000000 
-0.619289 1.590097 0.000000 
-0.639577 1.587923 0.000000 
-0.665912 1.589540 0.000000 
-0.697937 1.596526 0.000000 
-0.595692 1.494163 0.000000 
-0.726123 1.611338 0.000000 
-0.757398 1.621908 0.000000 
-0.794522 1.619333 0.000000 
-0.841416 1.616755 0.000000 
-0.894922 1.618116 0.000000 
-0.956071 1.626532 0.000000 
-1.020951 1.645453 0.000000 
-1.077937 1.673088 0.000000 
-1.120258 1.701816 0.000000 
-1.171769 1.677556 0.000000 
0.332207 0.230947 0.000000 
0.333662 0.189212 0.000000 
0.321472 0.259563 0.000000 
0.302407 0.286376 0.000000 
0.214022 0.301038 0.000000 
0.194081 0.362063 0.000000 
0.186716 0.417576 0.000000 
0.189303 0.470348 0.000000 
0.360023 0.149530 0.000000 
0.405131 0.124397 0.000000 
0.201671 0.519593 0.000000 
0.218038 0.569855 0.000000 
0.236652 0.618788 0.000000 
0.256885 0.660722 0.000000 
0.278373 0.689216 0.000000 
0.284019 0.722614 0.000000 
0.276718 0.769361 0.000000 
0.278735 0.826174 0.000000 
0.296322 0.876442 0.000000 
-1.507867 1.629313 0.000000 
-1.548116 1.604671 0.000000 
-1.598023 1.577292 0.000000 
-1.467251 1.644087 0.000000 
-1.422160 1.651371 0.000000 
-1.373311 1.658087 0.000000 
-1.322903 1.665864 0.000000 
-1.275577 1.675110 0.000000 
-1.225048 1.673710 0.000000 
-1.662214 1.553622 0.000000 
-1.732600 1.533683 0.000000 
-1.794687 1.519307 0.000000 
-1.841773 1.490120 0.000000 
-2.078405 0.557393 0.000000 
-2.079214 0.635982 0.000000 
-2.097651 0.479793 0.000000 
-2.129318 0.408054 0.000000 
-2.096743 0.716544 0.000000 
-2.169699 0.352710 0.000000 
-1.991686 0.279710 0.000000 
-1.642187 0.205266 0.000000 
-1.989898 0.112485 0.000000 
-2.064526 0.040673 0.000000 
-1.914688 0.186020 0.000000 
-2.037969 0.969096 0.000000 
-2.021377 0.853412 0.000000 
-2.055796 1.098258 0.000000 
-2.102728 1.200911 0.000000 
-2.047875 1.343214 0.000000 
0.428030 0.089944 0.000000 
0.375625 0.068708 0.000000 
0.313454 0.081809 0.000000 
0.290352 0.227844 0.000000 
0.238487 0.938761 0.000000 
0.440631 0.051837 0.000000 
0.396678 0.012060 0.000000 
0.460488 -0.013861 0.000000 
0.523747 1.162252 0.000000 
-2.262588 0.125506 0.000000 
-2.220468 0.181533 0.000000 
-2.218579 0.071995 0.000000 
-2.146376 0.123845 0.000000 
-2.206503 0.006925 0.000000 
0.473879 1.123639 0.000000 
0.446488 1.071308 0.000000 
0.440978 1.027289 0.000000 
0.409581 1.019434 0.000000 
0.629179 1.848329 0.000000 
0.593839 1.815856 0.000000 
0.550362 1.771652 0.000000 
0.483841 1.731229 0.000000 
0.202470 0.872397 0.000000 
0.241245 0.724622 0.000000 
0.205152 0.699821 0.000000 
0.175878 0.651680 0.000000 
0.153326 0.593174 0.000000 
0.132079 0.532724 0.000000 
0.113278 0.468268 0.000000 
0.106000 0.399945 0.000000 
0.109640 0.330749 0.000000 
0.121648 0.260071 0.000000 
0.032483 0.170456 0.000000 
0.246820 0.253135 0.000000 
0.099619 0.118822 0.000000 
0.373127 1.004552 0.000000 
-0.307911 1.867692 0.000000 
-0.360136 1.849222 0.000000 
-0.343252 1.794877 0.000000 
-0.270247 1.803021 0.000000 
0.168337 0.115340 0.000000 
0.242346 0.105003 0.000000 
0.270369 0.174039 0.000000 
0.505525 1.230013 0.000000 
-0.689828 0.057268 0.000000 
-0.729540 0.114672 0.000000 
-0.746154 0.189144 0.000000 
-0.657668 0.205709 0.000000 
-0.661195 0.121422 0.000000 
-0.924642 0.358384 0.000000 
-1.137284 1.621747 0.000000 
-1.072920 1.577154 0.000000 
-1.248127 1.634045 0.000000 
-1.304069 1.617722 0.000000 
-1.360197 1.610062 0.000000 
-1.411221 1.605922 0.000000 
-1.453165 1.602693 0.000000 
-1.486003 1.585231 0.000000 
-1.510814 1.541762 0.000000 
-1.558800 1.497093 0.000000 
-0.995058 1.550400 0.000000 
-0.919611 1.539924 0.000000 
-0.852227 1.546856 0.000000 
-0.796966 1.563375 0.000000 
-0.752732 1.582543 0.000000 
-1.635591 1.469760 0.000000 
-1.992480 0.744461 0.000000 
-1.965104 0.634682 0.000000 
-1.974377 0.531349 0.000000 
-2.014368 0.437727 0.000000 
-2.065453 0.354541 0.000000 
-2.071492 0.201474 0.000000 
-2.131272 0.285011 0.000000 
-1.712039 1.456437 0.000000 
-1.781280 1.456387 0.000000 
-1.884796 1.426330 0.000000 
0.516332 1.645993 0.000000 
0.538779 1.574865 0.000000 
0.517174 1.304398 0.000000 
0.552532 1.366334 0.000000 
0.576896 1.408261 0.000000 
0.583356 1.445287 0.000000 