# vtk DataFile Version 3.0 
vtk output 
ASCII 
DATASET UNSTRUCTURED_GRID 
POINTS 899 float 
-3.648847 2.336837 0.000000 
-3.619410 2.296285 0.000000 
-3.578536 2.260691 0.000000 
-3.540028 2.225040 0.000000 
-3.511690 2.192844 0.000000 
-3.481362 2.162986 0.000000 
-3.451569 2.122313 0.000000 
0.772356 2.239351 0.000000 
0.774615 2.213230 0.000000 
0.769962 2.184476 0.000000 
-3.399514 2.092037 0.000000 
0.413960 -0.552805 0.000000 
0.455573 -0.548503 0.000000 
-1.762619 -0.452701 0.000000 
-1.783389 -0.417305 0.000000 
-1.714437 -0.388515 0.000000 
0.732567 2.233676 0.000000 
0.698438 2.219840 0.000000 
0.491831 -0.534300 0.000000 
0.519501 -0.503895 0.000000 
0.530556 -0.463448 0.000000 
0.532354 -0.417644 0.000000 
0.531774 -0.367137 0.000000 
-3.460923 2.030304 0.000000 
0.663989 2.197894 0.000000 
0.631675 2.170499 0.000000 
0.601833 2.146443 0.000000 
0.569607 2.123186 0.000000 
0.534059 2.101108 0.000000 
0.492599 2.079968 0.000000 
0.444403 2.061303 0.000000 
0.762807 2.143502 0.000000 
-1.708694 -0.354133 0.000000 
-1.726386 -0.313869 0.000000 
-1.761257 -0.289849 0.000000 
-1.812853 -0.282000 0.000000 
-0.690422 -0.534335 0.000000 
-0.624256 -0.552263 0.000000 
-0.561079 -0.560445 0.000000 
-0.500739 -0.561900 0.000000 
-0.445387 -0.561963 0.000000 
0.532260 -0.308053 0.000000 
0.536647 -0.238720 0.000000 
-1.881389 -0.269499 0.000000 
-0.389303 -0.559688 0.000000 
-0.340338 -0.544403 0.000000 
-0.344339 -0.490268 0.000000 
-0.358558 -0.437728 0.000000 
-0.381750 -0.396817 0.000000 
-0.406193 -0.362642 0.000000 
-0.417316 -0.331144 0.000000 
-0.428320 -0.296887 0.000000 
-0.436973 -0.252623 0.000000 
-0.444212 -0.197080 0.000000 
-0.452662 -0.138222 0.000000 
-0.468602 -0.081323 0.000000 
0.553166 -0.174005 0.000000 
0.573193 -0.116334 0.000000 
0.574450 -0.064594 0.000000 
0.561087 -0.014274 0.000000 
0.550432 0.041049 0.000000 
0.748903 2.090184 0.000000 
0.730940 2.033691 0.000000 
0.715868 1.987532 0.000000 
0.699446 1.951404 0.000000 
0.684888 1.910415 0.000000 
0.675900 1.864210 0.000000 
0.669871 1.814651 0.000000 
0.664455 1.766794 0.000000 
0.668163 1.720374 0.000000 
0.672091 1.670541 0.000000 
0.674558 1.622517 0.000000 
0.673045 1.572438 0.000000 
0.386491 2.051623 0.000000 
0.664855 1.513699 0.000000 
0.652298 1.455621 0.000000 
0.638456 1.401971 0.000000 
0.623121 1.352461 0.000000 
0.616008 1.309434 0.000000 
0.600787 1.274492 0.000000 
0.571289 1.245043 0.000000 
0.539016 1.213882 0.000000 
0.513857 1.184983 0.000000 
0.493343 1.158747 0.000000 
0.469109 1.140935 0.000000 
0.444920 1.124491 0.000000 
0.415324 1.103525 0.000000 
0.383540 1.078772 0.000000 
0.356179 1.049440 0.000000 
0.343879 1.010541 0.000000 
0.337476 0.965020 0.000000 
0.332404 0.919734 0.000000 
0.328512 0.880044 0.000000 
0.319594 0.843964 0.000000 
0.304149 0.810553 0.000000 
0.290502 0.770162 0.000000 
0.275896 0.722300 0.000000 
0.261905 0.680331 0.000000 
0.250150 0.646736 0.000000 
0.250896 0.608931 0.000000 
0.259587 0.566327 0.000000 
0.284617 0.523554 0.000000 
0.315237 0.493893 0.000000 
0.340022 0.474457 0.000000 
0.354380 0.448608 0.000000 
0.368685 0.421465 0.000000 
0.385568 0.395069 0.000000 
0.415372 0.370272 0.000000 
0.447119 0.338559 0.000000 
0.477633 0.310643 0.000000 
0.503078 0.282706 0.000000 
0.518876 0.244652 0.000000 
0.527127 0.208683 0.000000 
0.534187 0.164138 0.000000 
0.543185 0.103358 0.000000 
0.322519 2.040567 0.000000 
0.263849 2.027451 0.000000 
0.208223 2.022031 0.000000 
0.150441 2.018202 0.000000 
-0.687392 -0.461268 0.000000 
-3.327058 2.065805 0.000000 
-3.276080 2.019383 0.000000 
-3.224941 1.985797 0.000000 
-3.181728 1.956638 0.000000 
-3.135074 1.919708 0.000000 
-3.078123 1.895415 0.000000 
-1.944260 -0.224621 0.000000 
0.083204 2.023358 0.000000 
0.005786 2.018005 0.000000 
-0.071812 2.027244 0.000000 
-0.135705 2.056785 0.000000 
-0.182391 2.098391 0.000000 
-1.999041 -0.153653 0.000000 
-1.843230 -0.428161 0.000000 
-0.491126 -0.017363 0.000000 
-0.512312 0.055880 0.000000 
-0.526535 0.118713 0.000000 
-0.527935 0.180834 0.000000 
-0.524207 0.248004 0.000000 
-0.505864 0.305136 0.000000 
-0.468875 0.354348 0.000000 
-0.410369 0.383593 0.000000 
-0.354013 0.404710 0.000000 
-0.301050 0.414656 0.000000 
-0.255730 0.415428 0.000000 
-0.695595 -0.382973 0.000000 
-0.726457 -0.306091 0.000000 
-0.747352 -0.236636 0.000000 
-3.396487 2.008670 0.000000 
-3.344056 1.929282 0.000000 
-3.294256 1.885881 0.000000 
-3.248246 1.847557 0.000000 
-3.196818 1.808203 0.000000 
-3.159669 1.756893 0.000000 
-3.113281 1.710188 0.000000 
-3.056061 1.690625 0.000000 
-2.996684 1.668000 0.000000 
-2.933161 1.638384 0.000000 
-2.879064 1.602241 0.000000 
-2.813006 1.577456 0.000000 
-2.751664 1.554405 0.000000 
-2.686782 1.525082 0.000000 
-1.922020 -0.425355 0.000000 
-1.999705 -0.426853 0.000000 
-2.060018 -0.405250 0.000000 
-2.032615 -0.070262 0.000000 
-2.048550 0.015460 0.000000 
-2.029059 0.081353 0.000000 
-2.105228 -0.348191 0.000000 
-2.154373 -0.280597 0.000000 
-2.203584 -0.225973 0.000000 
-2.237020 -0.164538 0.000000 
-2.250593 -0.099245 0.000000 
-2.270119 -0.027461 0.000000 
-2.297898 0.042850 0.000000 
-2.327118 0.104429 0.000000 
-2.346747 0.158399 0.000000 
-2.362840 0.211509 0.000000 
-2.374561 0.262553 0.000000 
-2.373128 0.314529 0.000000 
-2.334174 0.381119 0.000000 
-2.331842 0.421737 0.000000 
-2.284565 0.430496 0.000000 
-0.236368 2.147926 0.000000 
-0.299146 2.191753 0.000000 
-0.346614 2.211678 0.000000 
-0.382877 2.175175 0.000000 
-0.412447 2.146126 0.000000 
-0.433989 2.105838 0.000000 
-0.446472 2.062872 0.000000 
-0.451628 2.023553 0.000000 
-0.451047 1.985091 0.000000 
-0.449242 1.949087 0.000000 
-0.453345 1.917198 0.000000 
-0.460251 1.889505 0.000000 
-0.470304 1.860719 0.000000 
-0.475290 1.831229 0.000000 
-0.478341 1.801444 0.000000 
-0.479442 1.764708 0.000000 
-2.609147 1.511293 0.000000 
-2.517189 1.505795 0.000000 
-2.434013 1.506131 0.000000 
-2.352624 1.496100 0.000000 
-2.274410 1.476729 0.000000 
-2.204499 1.442080 0.000000 
-2.180326 1.373198 0.000000 
-2.178559 1.284661 0.000000 
-2.168273 1.194632 0.000000 
-2.159086 1.096568 0.000000 
-2.144575 1.007410 0.000000 
-2.163040 0.932193 0.000000 
-2.183612 0.858101 0.000000 
-2.172907 0.793543 0.000000 
-2.161614 0.730788 0.000000 
-2.169833 0.670676 0.000000 
-2.188987 0.608923 0.000000 
-2.218663 0.557677 0.000000 
-2.229021 0.501804 0.000000 
-2.997130 1.878618 0.000000 
-3.021908 1.780481 0.000000 
-2.902046 1.847111 0.000000 
-0.770600 -0.154042 0.000000 
-0.790096 -0.062383 0.000000 
-0.811857 0.018324 0.000000 
-0.835807 0.096888 0.000000 
-0.859157 0.167016 0.000000 
-0.881226 0.227068 0.000000 
-0.903169 0.286418 0.000000 
-0.928196 0.350462 0.000000 
-2.785442 1.814558 0.000000 
-2.944278 1.753816 0.000000 
-2.855014 1.716670 0.000000 
-2.796189 1.656590 0.000000 
-2.651235 1.799812 0.000000 
-2.517962 1.789465 0.000000 
-2.394240 1.780302 0.000000 
-2.275192 1.772305 0.000000 
-2.180847 1.747744 0.000000 
-2.099904 1.721265 0.000000 
-2.018420 1.690025 0.000000 
-1.945469 1.694323 0.000000 
-1.885190 1.727663 0.000000 
-1.829736 1.748231 0.000000 
-1.760875 1.773463 0.000000 
-1.680504 1.801887 0.000000 
-1.617798 1.820204 0.000000 
-1.570169 1.834728 0.000000 
-1.527149 1.848918 0.000000 
-1.482581 1.861047 0.000000 
-1.433927 1.867587 0.000000 
-1.386311 1.875502 0.000000 
-1.337319 1.884232 0.000000 
-1.286363 1.891312 0.000000 
-1.235962 1.892030 0.000000 
-1.188452 1.896843 0.000000 
-1.140860 1.906294 0.000000 
-1.091558 1.905603 0.000000 
-1.038962 1.894584 0.000000 
-0.982519 1.875586 0.000000 
-0.922315 1.858844 0.000000 
-0.869867 1.848519 0.000000 
-0.827747 1.842030 0.000000 
-0.785371 1.837118 0.000000 
-0.748025 1.827381 0.000000 
-0.712781 1.817114 0.000000 
-0.681690 1.803182 0.000000 
-0.657198 1.792048 0.000000 
-0.633895 1.785384 0.000000 
-0.612002 1.780929 0.000000 
-0.594184 1.773716 0.000000 
-0.577381 1.764266 0.000000 
-0.560109 1.748983 0.000000 
-0.540091 1.716528 0.000000 
-1.243914 0.077683 0.000000 
-1.232782 0.091400 0.000000 
-1.257376 0.063329 0.000000 
-1.224378 0.110099 0.000000 
-1.271472 0.043983 0.000000 
-1.215702 0.132096 0.000000 
-1.204660 0.158153 0.000000 
-1.290143 0.016242 0.000000 
-1.314447 -0.028798 0.000000 
-1.190204 0.188459 0.000000 
-1.318041 -0.082153 0.000000 
-1.171655 0.222615 0.000000 
-1.149359 0.258930 0.000000 
-1.123094 0.297178 0.000000 
-1.284246 -0.132132 0.000000 
-1.239750 -0.182858 0.000000 
-1.083297 0.341169 0.000000 
-1.028190 0.372841 0.000000 
-1.181630 -0.225215 0.000000 
-1.112789 -0.256642 0.000000 
-1.040643 -0.268812 0.000000 
-0.978118 -0.271899 0.000000 
-0.927392 -0.284925 0.000000 
-0.889718 -0.324059 0.000000 
-0.873564 -0.380610 0.000000 
-0.920771 -0.412804 0.000000 
-0.935346 -0.345535 0.000000 
-0.991249 -0.422379 0.000000 
-1.088918 -0.419651 0.000000 
-1.067426 -0.339999 0.000000 
-1.189474 -0.412088 0.000000 
-1.147229 -0.327332 0.000000 
-1.266509 -0.388798 0.000000 
-1.219913 -0.301155 0.000000 
-1.335307 -0.352971 0.000000 
-1.284456 -0.263156 0.000000 
-1.402357 -0.309067 0.000000 
-1.341444 -0.215355 0.000000 
-1.466758 -0.256392 0.000000 
-1.539152 -0.195593 0.000000 
-1.393011 -0.157424 0.000000 
-1.612839 -0.125321 0.000000 
-1.665320 -0.067743 0.000000 
-1.691220 -0.002917 0.000000 
-1.704696 0.082577 0.000000 
-1.850073 0.249446 0.000000 
-1.911042 0.193622 0.000000 
-1.969645 0.136785 0.000000 
-1.726970 0.188988 0.000000 
-0.222881 0.396818 0.000000 
-0.195707 0.369234 0.000000 
-0.164205 0.332287 0.000000 
-0.127520 0.299589 0.000000 
-0.095686 0.270098 0.000000 
-0.059027 0.241620 0.000000 
-0.018954 0.211636 0.000000 
0.030296 0.180365 0.000000 
0.086536 0.159840 0.000000 
0.141893 0.141108 0.000000 
0.202102 0.111828 0.000000 
0.263408 0.071912 0.000000 
0.311661 0.021925 0.000000 
0.333954 -0.037698 0.000000 
0.338621 -0.098148 0.000000 
0.341530 -0.152087 0.000000 
0.353165 -0.202275 0.000000 
0.365710 -0.260698 0.000000 
0.363543 -0.330227 0.000000 
[...]
POINT_DATA 899 
VECTORS X_GC float 
-3.648847 2.336837 0.000000 
-3.619410 2.296285 0.000000 
-3.578536 2.260691 0.000000 
-3.540028 2.225040 0.000000 
-3.511690 2.192844 0.000000 
-3.481362 2.162986 0.000000 
-3.451569 2.122313 0.000000 
0.772356 2.239351 0.000000 
0.774615 2.213230 0.000000 
0.769962 2.184476 0.000000 
-3.399514 2.092037 0.000000 
0.413960 -0.552805 0.000000 
0.455573 -0.548503 0.000000 
-1.762619 -0.452701 0.000000 
-1.783389 -0.417305 0.000000 
-1.714437 -0.388515 0.000000 
0.732567 2.233676 0.000000 
0.698438 2.219840 0.000000 
0.491831 -0.534300 0.000000 
0.519501 -0.503895 0.000000 
0.530556 -0.463448 0.000000 
0.532354 -0.417644 0.000000 
0.531774 -0.367137 0.000000 
-3.460923 2.030304 0.000000 
0.663989 2.197894 0.000000 
0.631675 2.170499 0.000000 
0.601833 2.146443 0.000000 
0.569607 2.123186 0.000000 
0.534059 2.101108 0.000000 
0.492599 2.079968 0.000000 
0.444403 2.061303 0.000000 
0.762807 2.143502 0.000000 
-1.708694 -0.354133 0.000000 
-1.726386 -0.313869 0.000000 
-1.761257 -0.289849 0.000000 
-1.812853 -0.282000 0.000000 
-0.690422 -0.534335 0.000000 
-0.624256 -0.552263 0.000000 
-0.561079 -0.560445 0.000000 
-0.500739 -0.561900 0.000000 
-0.445387 -0.561963 0.000000 
0.532260 -0.308053 0.000000 
0.536647 -0.238720 0.000000 
-1.881389 -0.269499 0.000000 
-0.389303 -0.559688 0.000000 
-0.340338 -0.544403 0.000000 
-0.344339 -0.490268 0.000000 
-0.358558 -0.437728 0.000000 
-0.381750 -0.396817 0.000000 
-0.406193 -0.362642 0.000000 
-0.417316 -0.331144 0.000000 
-0.428320 -0.296887 0.000000 
-0.436973 -0.252623 0.000000 
-0.444212 -0.197080 0.000000 
-0.452662 -0.138222 0.000000 
-0.468602 -0.081323 0.000000 
0.553166 -0.174005 0.000000 
0.573193 -0.116334 0.000000 
0.574450 -0.064594 0.000000 
0.561087 -0.014274 0.000000 
0.550432 0.041049 0.000000 
0.748903 2.090184 0.000000 
0.730940 2.033691 0.000000 
0.715868 1.987532 0.000000 
0.699446 1.951404 0.000000 
0.684888 1.910415 0.000000 
0.675900 1.864210 0.000000 
0.669871 1.814651 0.000000 
0.664455 1.766794 0.000000 
0.668163 1.720374 0.000000 
0.672091 1.670541 0.000000 
0.674558 1.622517 0.000000 
0.673045 1.572438 0.000000 
0.386491 2.051623 0.000000 
0.664855 1.513699 0.000000 
0.652298 1.455621 0.000000 
0.638456 1.401971 0.000000 
0.623121 1.352461 0.000000 
0.616008 1.309434 0.000000 
0.600787 1.274492 0.000000 
0.571289 1.245043 0.000000 
0.539016 1.213882 0.000000 
0.513857 1.184983 0.000000 
0.493343 1.158747 0.000000 
0.469109 1.140935 0.000000 
0.444920 1.124491 0.000000 
0.415324 1.103525 0.000000 
0.383540 1.078772 0.000000 
0.356179 1.049440 0.000000 
0.343879 1.010541 0.000000 
0.337476 0.965020 0.000000 
0.332404 0.919734 0.000000 
0.328512 0.880044 0.000000 
0.319594 0.843964 0.000000 
0.304149 0.810553 0.000000 
0.290502 0.770162 0.000000 
0.275896 0.722300 0.000000 
0.261905 0.680331 0.000000 
0.250150 0.646736 0.000000 
0.250896 0.608931 0.000000 
0.259587 0.566327 0.000000 
0.284617 0.523554 0.000000 
0.315237 0.493893 0.000000 
0.340022 0.474457 0.000000 
0.354380 0.448608 0.000000 
0.368685 0.421465 0.000000 
0.385568 0.395069 0.000000 
0.415372 0.370272 0.000000 
0.447119 0.338559 0.000000 
0.477633 0.310643 0.000000 
0.503078 0.282706 0.000000 
0.518876 0.244652 0.000000 
0.527127 0.208683 0.000000 
0.534187 0.164138 0.000000 
0.543185 0.103358 0.000000 
0.322519 2.040567 0.000000 
0.263849 2.027451 0.000000 
0.208223 2.022031 0.000000 
0.150441 2.018202 0.000000 
-0.687392 -0.461268 0.000000 
-3.327058 2.065805 0.000000 
-3.276080 2.019383 0.000000 
-3.224941 1.985797 0.000000 
-3.181728 1.956638 0.000000 
-3.135074 1.919708 0.000000 
-3.078123 1.895415 0.000000 
-1.944260 -0.224621 0.000000 
0.083204 2.023358 0.000000 
0.005786 2.018005 0.000000 
-0.071812 2.027244 0.000000 
-0.135705 2.056785 0.000000 
-0.182391 2.098391 0.000000 
-1.999041 -0.153653 0.000000 
-1.843230 -0.428161 0.000000 
-0.491126 -0.017363 0.000000 
-0.512312 0.055880 0.000000 
-0.526535 0.118713 0.000000 
-0.527935 0.180834 0.000000 
-0.524207 0.248004 0.000000 
-0.505864 0.305136 0.000000 
-0.468875 0.354348 0.000000 
-0.410369 0.383593 0.000000 
-0.354013 0.404710 0.000000 
-0.301050 0.414656 0.000000 
-0.255730 0.415428 0.000000 
-0.695595 -0.382973 0.000000 
-0.726457 -0.306091 0.000000 
-0.747352 -0.236636 0.000000 
-3.396487 2.008670 0.000000 
-3.344056 1.929282 0.000000 
-3.294256 1.885881 0.000000 
-3.248246 1.847557 0.000000 
-3.196818 1.808203 0.000000 
-3.159669 1.756893 0.000000 
-3.113281 1.710188 0.000000 
-3.056061 1.690625 0.000000 
-2.996684 1.668000 0.000000 
-2.933161 1.638384 0.000000 
-2.879064 1.602241 0.000000 
-2.813006 1.577456 0.000000 
-2.751664 1.554405 0.000000 
-2.686782 1.525082 0.000000 
-1.922020 -0.425355 0.000000 
-1.999705 -0.426853 0.000000 
-2.060018 -0.405250 0.000000 
-2.032615 -0.070262 0.000000 
-2.048550 0.015460 0.000000 
-2.029059 0.081353 0.000000 
-2.105228 -0.348191 0.000000 
-2.154373 -0.280597 0.000000 
-2.203584 -0.225973 0.000000 
-2.237020 -0.164538 0.000000 
-2.250593 -0.099245 0.000000 
-2.270119 -0.027461 0.000000 
-2.297898 0.042850 0.000000 
-2.327118 0.104429 0.000000 
-2.346747 0.158399 0.000000 
-2.362840 0.211509 0.000000 
-2.374561 0.262553 0.000000 
-2.373128 0.314529 0.000000 
-2.334174 0.381119 0.000000 
-2.331842 0.421737 0.000000 
-2.284565 0.430496 0.000000 
-0.236368 2.147926 0.000000 
-0.299146 2.191753 0.000000 
-0.346614 2.211678 0.000000 
-0.382877 2.175175 0.000000 
-0.412447 2.146126 0.000000 
-0.433989 2.105838 0.000000 
-0.446472 2.062872 0.000000 
-0.451628 2.023553 0.000000 
-0.451047 1.985091 0.000000 
-0.449242 1.949087 0.000000 
-0.453345 1.917198 0.000000 
-0.460251 1.889505 0.000000 
-0.470304 1.860719 0.000000 
-0.475290 1.831229 0.000000 
-0.478341 1.801444 0.000000 
-0.479442 1.764708 0.000000 
-2.609147 1.511293 0.000000 
-2.517189 1.505795 0.000000 
-2.434013 1.506131 0.000000 
-2.352624 1.496100 0.000000 
-2.274410 1.476729 0.000000 
-2.204499 1.442080 0.000000 
-2.180326 1.373198 0.000000 
-2.178559 1.284661 0.000000 
-2.168273 1.194632 0.000000 
-2.159086 1.096568 0.000000 
-2.144575 1.007410 0.000000 
-2.163040 0.932193 0.000000 
-2.183612 0.858101 0.000000 
-2.172907 0.793543 0.000000 
-2.161614 0.730788 0.000000 
-2.169833 0.670676 0.000000 
-2.188987 0.608923 0.000000 
-2.218663 0.557677 0.000000 
-2.229021 0.501804 0.000000 
-2.997130 1.878618 0.000000 
-3.021908 1.780481 0.000000 
-2.902046 1.847111 0.000000 
-0.770600 -0.154042 0.000000 
-0.790096 -0.062383 0.000000 
-0.811857 0.018324 0.000000 
-0.835807 0.096888 0.000000 
-0.859157 0.167016 0.000000 
-0.881226 0.227068 0.000000 
-0.903169 0.286418 0.000000 
-0.928196 0.350462 0.000000 
-2.785442 1.814558 0.000000 
-2.944278 1.753816 0.000000 
-2.855014 1.716670 0.000000 
-2.796189 1.656590 0.000000 
-2.651235 1.799812 0.000000 
-2.517962 1.789465 0.000000 
-2.394240 1.780302 0.000000 
-2.275192 1.772305 0.000000 
-2.180847 1.747744 0.000000 
-2.099904 1.721265 0.000000 
-2.018420 1.690025 0.000000 
-1.945469 1.694323 0.000000 
-1.885190 1.727663 0.000000 
-1.829736 1.748231 0.000000 
-1.760875 1.773463 0.000000 
-1.680504 1.801887 0.000000 
-1.617798 1.820204 0.000000 
-1.570169 1.834728 0.000000 
-1.527149 1.848918 0.000000 
-1.482581 1.861047 0.000000 
-1.433927 1.867587 0.000000 
-1.386311 1.875502 0.000000 
-1.337319 1.884232 0.000000 
-1.286363 1.891312 0.000000 
-1.235962 1.892030 0.000000 
-1.188452 1.896843 0.000000 
-1.140860 1.906294 0.000000 
-1.091558 1.905603 0.000000 
-1.038962 1.894584 0.000000 
-0.982519 1.875586 0.000000 
-0.922315 1.858844 0.000000 
-0.869867 1.848519 0.000000 
-0.827747 1.842030 0.000000 
-0.785371 1.837118 0.000000 
-0.748025 1.827381 0.000000 
-0.712781 1.817114 0.000000 
-0.681690 1.803182 0.000000 
-0.657198 1.792048 0.000000 
-0.633895 1.785384 0.000000 
-0.612002 1.780929 0.000000 
-0.594184 1.773716 0.000000 
-0.577381 1.764266 0.000000 
-0.560109 1.748983 0.000000 
-0.540091 1.716528 0.000000 
-1.243914 0.077683 0.000000 
-1.232782 0.091400 0.000000 
-1.257376 0.063329 0.000000 
-1.224378 0.110099 0.000000 
-1.271472 0.043983 0.000000 
-1.215702 0.132096 0.000000 
-1.204660 0.158153 0.000000 
-1.290143 0.016242 0.000000 
-1.314447 -0.028798 0.000000 
-1.190204 0.188459 0.000000 
-1.318041 -0.082153 0.000000 
-1.171655 0.222615 0.000000 
-1.149359 0.258930 0.000000 
-1.123094 0.297178 0.000000 
-1.284246 -0.132132 0.000000 
-1.239750 -0.182858 0.000000 
-1.083297 0.341169 0.000000 
-1.028190 0.372841 0.000000 
-1.181630 -0.225215 0.000000 
-1.112789 -0.256642 0.000000 
-1.040643 -0.268812 0.000000 
-0.978118 -0.271899 0.000000 
-0.927392 -0.284925 0.000000 
-0.889718 -0.324059 0.000000 
-0.873564 -0.380610 0.000000 
-0.920771 -0.412804 0.000000 
-0.935346 -0.345535 0.000000 
-0.991249 -0.422379 0.000000 
-1.088918 -0.419651 0.000000 
-1.067426 -0.339999 0.000000 
-1.189474 -0.412088 0.000000 
-1.147229 -0.327332 0.000000 
-1.266509 -0.388798 0.000000 
-1.219913 -0.301155 0.000000 
-1.335307 -0.352971 0.000000 
-1.284456 -0.263156 0.000000 
-1.402357 -0.309067 0.000000 
-1.341444 -0.215355 0.000000 
-1.466758 -0.256392 0.000000 
-1.539152 -0.195593 0.000000 
-1.393011 -0.157424 0.000000 
-1.612839 -0.125321 0.000000 
-1.665320 -0.067743 0.000000 
-1.691220 -0.002917 0.000000 
-1.704696 0.082577 0.000000 
-1.850073 0.249446 0.000000 
-1.911042 0.193622 0.000000 
-1.969645 0.136785 0.000000 
-1.726970 0.188988 0.000000 
-0.222881 0.396818 0.000000 
-0.195707 0.369234 0.000000 
-0.164205 0.332287 0.000000 
-0.127520 0.299589 0.000000 
-0.095686 0.270098 0.000000 
-0.059027 0.241620 0.000000 
-0.018954 0.211636 0.000000 
0.030296 0.180365 0.000000 
0.086536 0.159840 0.000000 
0.141893 0.141108 0.000000 
0.202102 0.111828 0.000000 
0.263408 0.071912 0.000000 
0.311661 0.021925 0.000000 
0.333954 -0.037698 0.000000 
0.338621 -0.098148 0.000000 
0.341530 -0.152087 0.000000 
0.353165 -0.202275 0.000000 
0.365710 -0.260698 0.000000 
0.363543 -0.330227 0.000000 
0.357353 -0.392341 0.000000 
0.351188 -0.443084 0.000000 
0.363842 -0.490112 0.000000 
-1.737069 -0.356763 0.000000 
-0.199590 0.449435 0.000000 
-0.156305 0.419519 0.000000 
-0.462327 1.685475 0.000000 
0.741313 2.208049 0.000000 
0.482415 -0.500883 0.000000 
0.446104 -0.508779 0.000000 
0.403556 -0.514433 0.000000 
-0.104001 0.391454 0.000000 
-0.514998 1.617529 0.000000 
-0.059937 0.357049 0.000000 
0.738519 2.182784 0.000000 
0.714572 2.195084 0.000000 
-0.249752 0.476258 0.000000 
-0.036232 0.313251 0.000000 
0.000772 0.285419 0.000000 
0.035161 0.259774 0.000000 
-1.776537 -0.356204 0.000000 
-1.836238 -0.352020 0.000000 
-0.309416 0.490358 0.000000 
-0.378944 0.488094 0.000000 
-2.292732 0.367683 0.000000 
-2.315166 0.317691 0.000000 
-2.314418 0.270135 0.000000 
-2.293418 0.223748 0.000000 
-2.279687 0.173869 0.000000 
-2.253462 0.126604 0.000000 
0.075120 0.232031 0.000000 
0.131113 0.219423 0.000000 
-0.977004 0.421407 0.000000 
-0.860050 0.411241 0.000000 
-1.912142 -0.343963 0.000000 
-1.989966 -0.352744 0.000000 
-2.023752 -0.285202 0.000000 
-2.082175 -0.213941 0.000000 
0.723889 2.151271 0.000000 
0.691466 2.170114 0.000000 
0.665980 2.137467 0.000000 
0.704783 2.110199 0.000000 
0.637970 2.099409 0.000000 
0.681732 2.062991 0.000000 
0.670916 2.016815 0.000000 
0.602858 2.067741 0.000000 
0.659584 1.976391 0.000000 
0.560783 2.041370 0.000000 
0.636111 1.940317 0.000000 
0.607495 1.890526 0.000000 
0.595324 1.827046 0.000000 
0.604052 1.762372 0.000000 
0.514160 2.011967 0.000000 
0.453857 1.984522 0.000000 
0.392525 1.982543 0.000000 
0.334098 1.981015 0.000000 
0.278675 1.962261 0.000000 
0.217273 1.944186 0.000000 
0.149449 1.926830 0.000000 
0.614128 1.710097 0.000000 
0.621313 1.662517 0.000000 
0.624262 1.617638 0.000000 
-2.197766 0.073415 0.000000 
-2.158682 -0.001509 0.000000 
-2.124695 0.132745 0.000000 
-2.150589 -0.167635 0.000000 
-2.141926 -0.090089 0.000000 
-0.393439 -0.506649 0.000000 
-0.412631 -0.462606 0.000000 
-0.436983 -0.422002 0.000000 
-0.445953 -0.378583 0.000000 
-0.458251 -0.345757 0.000000 
-0.479726 -0.310991 0.000000 
-0.496934 -0.262260 0.000000 
-0.509002 -0.207176 0.000000 
-0.517157 -0.152846 0.000000 
-0.545309 -0.101570 0.000000 
-0.442273 -0.504044 0.000000 
-0.496002 -0.494526 0.000000 
-0.557668 -0.496633 0.000000 
-0.618975 -0.481153 0.000000 
-0.334659 2.149866 0.000000 
-0.367985 2.120148 0.000000 
-0.385153 2.083722 0.000000 
-0.396797 2.049855 0.000000 
-0.406285 2.014333 0.000000 
-0.402558 1.975200 0.000000 
-0.406645 1.936756 0.000000 
-0.418378 1.904342 0.000000 
-0.428059 1.875217 0.000000 
-0.435849 1.845669 0.000000 
-0.442335 1.815634 0.000000 
-0.445406 1.782569 0.000000 
-0.444483 1.736853 0.000000 
0.619822 1.571906 0.000000 
-1.077870 0.468471 0.000000 
-1.149036 0.426512 0.000000 
-1.174735 0.351669 0.000000 
-1.192231 0.299946 0.000000 
-1.210811 0.258169 0.000000 
-1.228352 0.218830 0.000000 
-1.238869 0.180850 0.000000 
-1.244643 0.149353 0.000000 
-1.248534 0.124451 0.000000 
-1.252336 0.105164 0.000000 
-1.262323 0.091912 0.000000 
-1.280319 0.080996 0.000000 
-0.451814 0.465434 0.000000 
-0.526928 0.421912 0.000000 
0.194935 0.202431 0.000000 
0.069048 1.912731 0.000000 
-0.574175 0.351228 0.000000 
-0.593607 0.270125 0.000000 
-1.764101 0.309810 0.000000 
-2.210991 0.428666 0.000000 
-0.825996 0.325964 0.000000 
-0.799223 0.254884 0.000000 
-0.760911 0.188451 0.000000 
0.605964 1.520954 0.000000 
0.587834 1.463594 0.000000 
0.576354 1.403745 0.000000 
0.574971 1.348737 0.000000 
0.580375 1.305712 0.000000 
0.545179 1.283328 0.000000 
0.509957 1.251066 0.000000 
0.484198 1.214663 0.000000 
0.468721 1.183509 0.000000 
0.449386 1.164978 0.000000 
0.422962 1.152313 0.000000 
0.391379 1.133162 0.000000 
0.357154 1.109098 0.000000 
0.323730 1.080726 0.000000 
-0.582151 -0.040703 0.000000 
0.265957 0.176001 0.000000 
0.333763 0.129872 0.000000 
0.378371 0.062856 0.000000 
0.400918 -0.011539 0.000000 
0.401084 -0.074528 0.000000 
0.404345 -0.128628 0.000000 
0.432648 -0.179710 0.000000 
0.450030 -0.244151 0.000000 
0.529803 -0.090998 0.000000 
0.491947 -0.139136 0.000000 
0.453243 -0.089252 0.000000 
0.449550 -0.318476 0.000000 
0.498420 -0.045125 0.000000 
0.474171 0.014817 0.000000 
0.457863 0.089390 0.000000 
0.462195 -0.377130 0.000000 
0.478704 -0.423466 0.000000 
0.483460 -0.464432 0.000000 
0.412910 -0.402771 0.000000 
0.398390 -0.441485 0.000000 
0.404290 -0.475772 0.000000 
0.442452 -0.471214 0.000000 
0.436659 -0.436049 0.000000 
-0.727378 0.114317 0.000000 
-0.616071 0.196336 0.000000 
-0.623548 0.122055 0.000000 
-0.605779 0.041047 0.000000 
-0.706340 0.028599 0.000000 
-0.681483 -0.057662 0.000000 
-0.032304 1.907170 0.000000 
-0.128010 1.943320 0.000000 
-0.195732 2.010443 0.000000 
-0.243911 2.064357 0.000000 
-0.287859 2.111761 0.000000 
-0.335518 2.084065 0.000000 
-0.667608 -0.143043 0.000000 
-0.584906 -0.149811 0.000000 
-0.658169 -0.223052 0.000000 
-0.578442 -0.215182 0.000000 
-0.639050 -0.294495 0.000000 
-0.607982 -0.370012 0.000000 
-0.562541 -0.277881 0.000000 
-0.536184 -0.338904 0.000000 
-0.495978 -0.376866 0.000000 
-0.500680 -0.429260 0.000000 
-0.573051 -0.433714 0.000000 
-2.690892 1.680464 0.000000 
-2.684799 1.594452 0.000000 
-2.602920 1.593190 0.000000 
-2.574381 1.678183 0.000000 
-2.518122 1.613057 0.000000 
-2.424460 1.636955 0.000000 
-2.320006 1.628024 0.000000 
-2.229986 1.604406 0.000000 
-2.146342 1.563166 0.000000 
-1.455055 -0.098443 0.000000 
-1.387692 -0.018119 0.000000 
-1.339496 0.035209 0.000000 
-1.304977 0.063769 0.000000 
-1.531301 -0.032950 0.000000 
-1.604385 0.011163 0.000000 
-1.592423 0.111843 0.000000 
-1.608296 0.235806 0.000000 
-1.827918 0.434252 0.000000 
0.477873 0.203055 0.000000 
0.477147 0.237953 0.000000 
0.465631 0.272194 0.000000 
-0.587742 1.716403 0.000000 
-0.593403 1.740506 0.000000 
-0.604579 1.753162 0.000000 
-0.619289 1.758848 0.000000 
-0.639577 1.756675 0.000000 
-0.665912 1.758291 0.000000 
-0.697937 1.765278 0.000000 
-0.595692 1.662914 0.000000 
-0.726123 1.780089 0.000000 
-0.757398 1.790660 0.000000 
-0.794522 1.788085 0.000000 
-0.841416 1.785507 0.000000 
-0.894922 1.786868 0.000000 
-0.956071 1.795283 0.000000 
-1.020951 1.814205 0.000000 
-1.077937 1.841840 0.000000 
-1.120258 1.870568 0.000000 
-1.171769 1.846307 0.000000 
0.332207 0.399698 0.000000 
0.333662 0.357963 0.000000 
0.321472 0.428315 0.000000 
0.302407 0.455128 0.000000 
0.214022 0.469790 0.000000 
0.194081 0.530814 0.000000 
0.186716 0.586327 0.000000 
0.189303 0.639099 0.000000 
0.360023 0.318282 0.000000 
0.405131 0.293148 0.000000 
0.201671 0.688345 0.000000 
0.218038 0.738606 0.000000 
0.236652 0.787540 0.000000 
0.256885 0.829474 0.000000 
0.278373 0.857968 0.000000 
0.284019 0.891366 0.000000 
0.276718 0.938113 0.000000 
0.278735 0.994926 0.000000 
0.296322 1.045194 0.000000 
-1.507867 1.798065 0.000000 
-1.548116 1.773423 0.000000 
-1.598023 1.746043 0.000000 
-1.467251 1.812839 0.000000 
-1.422160 1.820122 0.000000 
-1.373311 1.826839 0.000000 
-1.322903 1.834615 0.000000 
-1.275577 1.843861 0.000000 
-1.225048 1.842462 0.000000 
-1.662214 1.722374 0.000000 
-1.732600 1.702434 0.000000 
-1.794687 1.688059 0.000000 
-1.841773 1.658872 0.000000 
-2.078405 0.726144 0.000000 
-2.079214 0.804734 0.000000 
-2.097651 0.648544 0.000000 
-2.129318 0.576805 0.000000 
-2.096743 0.885296 0.000000 
-2.169699 0.521462 0.000000 
-1.991686 0.448462 0.000000 
-1.642187 0.374018 0.000000 
-1.989898 0.281237 0.000000 
-2.064526 0.209424 0.000000 
-1.914688 0.354771 0.000000 
-2.037969 1.137848 0.000000 
-2.021377 1.022163 0.000000 
-2.055796 1.267010 0.000000 
-2.102728 1.369663 0.000000 
-2.047875 1.511965 0.000000 
0.428030 0.258696 0.000000 
0.375625 0.237460 0.000000 
0.313454 0.250561 0.000000 
0.290352 0.396596 0.000000 
0.238487 1.107513 0.000000 
0.440631 0.220589 0.000000 
0.396678 0.180812 0.000000 
0.460488 0.154891 0.000000 
0.523747 1.331003 0.000000 
-2.262588 0.294258 0.000000 
-2.220468 0.350285 0.000000 
-2.218579 0.240747 0.000000 
-2.146376 0.292597 0.000000 
-2.206503 0.175676 0.000000 
0.473879 1.292391 0.000000 
0.446488 1.240060 0.000000 
0.440978 1.196041 0.000000 
0.409581 1.188186 0.000000 
0.629179 2.017081 0.000000 
0.593839 1.984608 0.000000 
0.550362 1.940404 0.000000 
0.483841 1.899981 0.000000 
0.202470 1.041149 0.000000 
0.241245 0.893373 0.000000 
0.205152 0.868573 0.000000 
0.175878 0.820432 0.000000 
0.153326 0.761926 0.000000 
0.132079 0.701476 0.000000 
0.113278 0.637020 0.000000 
0.106000 0.568697 0.000000 
0.109640 0.499500 0.000000 
0.121648 0.428822 0.000000 
0.032483 0.339208 0.000000 
0.246820 0.421887 0.000000 
0.099619 0.287573 0.000000 
0.373127 1.173304 0.000000 
-0.307911 2.036443 0.000000 
-0.360136 2.017974 0.000000 
-0.343252 1.963628 0.000000 
-0.270247 1.971773 0.000000 
0.168337 0.284092 0.000000 
0.242346 0.273754 0.000000 
0.270369 0.342791 0.000000 
0.505525 1.398764 0.000000 
-0.689828 0.226020 0.000000 
-0.729540 0.283424 0.000000 
-0.746154 0.357896 0.000000 
-0.657668 0.374460 0.000000 
-0.661195 0.290173 0.000000 
-0.924642 0.527136 0.000000 
-1.137284 1.790499 0.000000 
-1.072920 1.745905 0.000000 
-1.248127 1.802796 0.000000 
-1.304069 1.786474 0.000000 
-1.360197 1.778814 0.000000 
-1.411221 1.774674 0.000000 
-1.453165 1.771444 0.000000 
-1.486003 1.753982 0.000000 
-1.510814 1.710513 0.000000 
-1.558800 1.665844 0.000000 
-0.995058 1.719152 0.000000 
-0.919611 1.708676 0.000000 
-0.852227 1.715608 0.000000 
-0.796966 1.732127 0.000000 
-0.752732 1.751295 0.000000 
-1.635591 1.638511 0.000000 
-1.992480 0.913213 0.000000 
-1.965104 0.803433 0.000000 
-1.974377 0.700101 0.000000 
-2.014368 0.606479 0.000000 
-2.065453 0.523293 0.000000 
-2.071492 0.370226 0.000000 
-2.131272 0.453763 0.000000 
-1.712039 1.625188 0.000000 
-1.781280 1.625139 0.000000 
-1.884796 1.595082 0.000000 
0.516332 1.814745 0.000000 
0.538779 1.743616 0.000000 
0.517174 1.473150 0.000000 
0.552532 1.535086 0.000000 
0.576896 1.577013 0.000000 
0.583356 1.614039 0.000000 
0.576083 1.651043 0.000000 
0.562288 1.693404 0.000000 