# vtk DataFile Version 3.0 
vtk output 
ASCII 
DATASET UNSTRUCTURED_GRID 
POINTS 899 float 
-3.648847 2.336592 0.000000 
-3.619410 2.296040 0.000000 
-3.578536 2.260446 0.000000 
-3.540028 2.224795 0.000000 
-3.511690 2.192599 0.000000 
-3.481362 2.162741 0.000000 
-3.451569 2.122067 0.000000 
0.772356 2.239106 0.000000 
0.774615 2.212985 0.000000 
0.769962 2.184231 0.000000 
-3.399514 2.091792 0.000000 
0.413960 -0.553051 0.000000 
0.455573 -0.548748 0.000000 
-1.762619 -0.452946 0.000000 
-1.783389 -0.417550 0.000000 
-1.714437 -0.388760 0.000000 
0.732567 2.233431 0.000000 
0.698438 2.219595 0.000000 
0.491831 -0.534545 0.000000 
0.519501 -0.504140 0.000000 
0.530556 -0.463693 0.000000 
0.532354 -0.417889 0.000000 
0.531774 -0.367382 0.000000 
-3.460923 2.030059 0.000000 
0.663989 2.197648 0.000000 
0.631675 2.170254 0.000000 
0.601833 2.146198 0.000000 
0.569607 2.122940 0.000000 
0.534059 2.100863 0.000000 
0.492599 2.079723 0.000000 
0.444403 2.061058 0.000000 
0.762807 2.143257 0.000000 
-1.708694 -0.354378 0.000000 
-1.726386 -0.314114 0.000000 
-1.761257 -0.290094 0.000000 
-1.812853 -0.282245 0.000000 
-0.690422 -0.534581 0.000000 
-0.624256 -0.552508 0.000000 
-0.561079 -0.560690 0.000000 
-0.500739 -0.562146 0.000000 
-0.445387 -0.562208 0.000000 
0.532260 -0.308299 0.000000 
0.536647 -0.238965 0.000000 
-1.881389 -0.269745 0.000000 
-0.389303 -0.559933 0.000000 
-0.340338 -0.544648 0.000000 
-0.344339 -0.490513 0.000000 
-0.358558 -0.437973 0.000000 
-0.381750 -0.397062 0.000000 
-0.406193 -0.362887 0.000000 
-0.417316 -0.331389 0.000000 
-0.428320 -0.297133 0.000000 
-0.436973 -0.252868 0.000000 
-0.444212 -0.197325 0.000000 
-0.452662 -0.138467 0.000000 
-0.468602 -0.081568 0.000000 
0.553166 -0.174251 0.000000 
0.573193 -0.116580 0.000000 
0.574450 -0.064839 0.000000 
0.561087 -0.014519 0.000000 
0.550432 0.040804 0.000000 
0.748903 2.089939 0.000000 
0.730940 2.033446 0.000000 
0.715868 1.987287 0.000000 
0.699446 1.951159 0.000000 
0.684888 1.910170 0.000000 
0.675900 1.863965 0.000000 
0.669871 1.814405 0.000000 
0.664455 1.766548 0.000000 
0.668163 1.720129 0.000000 
0.672091 1.670295 0.000000 
0.674558 1.622272 0.000000 
0.673045 1.572193 0.000000 
0.386491 2.051378 0.000000 
0.664855 1.513454 0.000000 
0.652298 1.455376 0.000000 
0.638456 1.401726 0.000000 
0.623121 1.352216 0.000000 
0.616008 1.309189 0.000000 
0.600787 1.274247 0.000000 
0.571289 1.244798 0.000000 
0.539016 1.213636 0.000000 
0.513857 1.184737 0.000000 
0.493343 1.158502 0.000000 
0.469109 1.140690 0.000000 
0.444920 1.124245 0.000000 
0.415324 1.103279 0.000000 
0.383540 1.078527 0.000000 
0.356179 1.049195 0.000000 
0.343879 1.010295 0.000000 
0.337476 0.964775 0.000000 
0.332404 0.919488 0.000000 
0.328512 0.879799 0.000000 
0.319594 0.843719 0.000000 
0.304149 0.810308 0.000000 
0.290502 0.769917 0.000000 
0.275896 0.722055 0.000000 
0.261905 0.680086 0.000000 
0.250150 0.646491 0.000000 
0.250896 0.608686 0.000000 
0.259587 0.566082 0.000000 
0.284617 0.523309 0.000000 
0.315237 0.493648 0.000000 
0.340022 0.474211 0.000000 
0.354380 0.448362 0.000000 
0.368685 0.421220 0.000000 
0.385568 0.394823 0.000000 
0.415372 0.370026 0.000000 
0.447119 0.338314 0.000000 
0.477633 0.310397 0.000000 
0.503078 0.282461 0.000000 
0.518876 0.244407 0.000000 
0.527127 0.208438 0.000000 
0.534187 0.163893 0.000000 
0.543185 0.103113 0.000000 
0.322519 2.040322 0.000000 
0.263849 2.027205 0.000000 
0.208223 2.021786 0.000000 
0.150441 2.017957 0.000000 
-0.687392 -0.461513 0.000000 
-3.327058 2.065560 0.000000 
-3.276080 2.019138 0.000000 
-3.224941 1.985551 0.000000 
-3.181728 1.956393 0.000000 
-3.135074 1.919463 0.000000 
-3.078123 1.895170 0.000000 
-1.944260 -0.224866 0.000000 
0.083204 2.023113 0.000000 
0.005786 2.017760 0.000000 
-0.071812 2.026999 0.000000 
-0.135705 2.056540 0.000000 
-0.182391 2.098146 0.000000 
-1.999041 -0.153898 0.000000 
-1.843230 -0.428407 0.000000 
-0.491126 -0.017608 0.000000 
-0.512312 0.055635 0.000000 
-0.526535 0.118467 0.000000 
-0.527935 0.180589 0.000000 
-0.524207 0.247759 0.000000 
-0.505864 0.304891 0.000000 
-0.468875 0.354103 0.000000 
-0.410369 0.383348 0.000000 
-0.354013 0.404465 0.000000 
-0.301050 0.414410 0.000000 
-0.255730 0.415183 0.000000 
-0.695595 -0.383218 0.000000 
-0.726457 -0.306336 0.000000 
-0.747352 -0.236881 0.000000 
-3.396487 2.008424 0.000000 
-3.344056 1.929036 0.000000 
-3.294256 1.885636 0.000000 
-3.248246 1.847311 0.000000 
-3.196818 1.807958 0.000000 
-3.159669 1.756648 0.000000 
-3.113281 1.709943 0.000000 
-3.056061 1.690380 0.000000 
-2.996684 1.667755 0.000000 
-2.933161 1.638139 0.000000 
-2.879064 1.601996 0.000000 
-2.813006 1.577210 0.000000 
-2.751664 1.554160 0.000000 
-2.686782 1.524837 0.000000 
-1.922020 -0.425600 0.000000 
-1.999705 -0.427099 0.000000 
-2.060018 -0.405495 0.000000 
-2.032615 -0.070508 0.000000 
-2.048550 0.015215 0.000000 
-2.029059 0.081108 0.000000 
-2.105228 -0.348437 0.000000 
-2.154373 -0.280842 0.000000 
-2.203584 -0.226218 0.000000 
-2.237020 -0.164783 0.000000 
-2.250593 -0.099490 0.000000 
-2.270119 -0.027706 0.000000 
-2.297898 0.042604 0.000000 
-2.327118 0.104184 0.000000 
-2.346747 0.158154 0.000000 
-2.362840 0.211263 0.000000 
-2.374561 0.262308 0.000000 
-2.373128 0.314284 0.000000 
-2.334174 0.380874 0.000000 
-2.331842 0.421492 0.000000 
-2.284565 0.430251 0.000000 
-0.236368 2.147681 0.000000 
-0.299146 2.191508 0.000000 
-0.346614 2.211433 0.000000 
-0.382877 2.174930 0.000000 
-0.412447 2.145880 0.000000 
-0.433989 2.105593 0.000000 
-0.446472 2.062626 0.000000 
-0.451628 2.023308 0.000000 
-0.451047 1.984846 0.000000 
-0.449242 1.948842 0.000000 
-0.453345 1.916953 0.000000 
-0.460251 1.889259 0.000000 
-0.470304 1.860474 0.000000 
-0.475290 1.830984 0.000000 
-0.478341 1.801199 0.000000 
-0.479442 1.764463 0.000000 
-2.609147 1.511048 0.000000 
-2.517189 1.505550 0.000000 
-2.434013 1.505886 0.000000 
-2.352624 1.495855 0.000000 
-2.274410 1.476484 0.000000 
-2.204499 1.441835 0.000000 
-2.180326 1.372952 0.000000 
-2.178559 1.284416 0.000000 
-2.168273 1.194387 0.000000 
-2.159086 1.096323 0.000000 
-2.144575 1.007164 0.000000 
-2.163040 0.931947 0.000000 
-2.183612 0.857856 0.000000 
-2.172907 0.793298 0.000000 
-2.161614 0.730543 0.000000 
-2.169833 0.670431 0.000000 
-2.188987 0.608678 0.000000 
-2.218663 0.557432 0.000000 
-2.229021 0.501559 0.000000 
-2.997130 1.878373 0.000000 
-3.021908 1.780235 0.000000 
-2.902046 1.846866 0.000000 
-0.770600 -0.154288 0.000000 
-0.790096 -0.062629 0.000000 
-0.811857 0.018079 0.000000 
-0.835807 0.096643 0.000000 
-0.859157 0.166771 0.000000 
-0.881226 0.226822 0.000000 
-0.903169 0.286173 0.000000 
-0.928196 0.350217 0.000000 
-2.785442 1.814313 0.000000 
-2.944278 1.753571 0.000000 
-2.855014 1.716425 0.000000 
-2.796189 1.656345 0.000000 
-2.651235 1.799567 0.000000 
-2.517962 1.789219 0.000000 
-2.394240 1.780057 0.000000 
-2.275192 1.772060 0.000000 
-2.180847 1.747499 0.000000 
-2.099904 1.721020 0.000000 
-2.018420 1.689780 0.000000 
-1.945469 1.694077 0.000000 
-1.885190 1.727417 0.000000 
-1.829736 1.747986 0.000000 
-1.760875 1.773217 0.000000 
-1.680504 1.801642 0.000000 
-1.617798 1.819959 0.000000 
-1.570169 1.834482 0.000000 
-1.527149 1.848672 0.000000 
-1.482581 1.860801 0.000000 
-1.433927 1.867342 0.000000 
-1.386311 1.875257 0.000000 
-1.337319 1.883987 0.000000 
-1.286363 1.891067 0.000000 
-1.235962 1.891784 0.000000 
-1.188452 1.896597 0.000000 
-1.140860 1.906048 0.000000 
-1.091558 1.905358 0.000000 
-1.038962 1.894339 0.000000 
-0.982519 1.875341 0.000000 
-0.922315 1.858599 0.000000 
-0.869867 1.848274 0.000000 
-0.827747 1.841784 0.000000 
-0.785371 1.836873 0.000000 
-0.748025 1.827136 0.000000 
-0.712781 1.816868 0.000000 
-0.681690 1.802937 0.000000 
-0.657198 1.791802 0.000000 
-0.633895 1.785139 0.000000 
-0.612002 1.780684 0.000000 
-0.594184 1.773471 0.000000 
-0.577381 1.764021 0.000000 
-0.560109 1.748737 0.000000 
-0.540091 1.716283 0.000000 
-1.243914 0.077437 0.000000 
-1.232782 0.091154 0.000000 
-1.257376 0.063084 0.000000 
-1.224378 0.109854 0.000000 
-1.271472 0.043738 0.000000 
-1.215702 0.131851 0.000000 
-1.204660 0.157907 0.000000 
-1.290143 0.015996 0.000000 
-1.314447 -0.029044 0.000000 
-1.190204 0.188214 0.000000 
-1.318041 -0.082398 0.000000 
-1.171655 0.222370 0.000000 
-1.149359 0.258684 0.000000 
-1.123094 0.296933 0.000000 
-1.284246 -0.132377 0.000000 
-1.239750 -0.183104 0.000000 
-1.083297 0.340924 0.000000 
-1.028190 0.372595 0.000000 
-1.181630 -0.225460 0.000000 
-1.112789 -0.256888 0.000000 
-1.040643 -0.269058 0.000000 
-0.978118 -0.272145 0.000000 
-0.927392 -0.285170 0.000000 
-0.889718 -0.324305 0.000000 
-0.873564 -0.380855 0.000000 
-0.920771 -0.413049 0.000000 
-0.935346 -0.345780 0.000000 
-0.991249 -0.422625 0.000000 
-1.088918 -0.419897 0.000000 
-1.067426 -0.340245 0.000000 
-1.189474 -0.412333 0.000000 
-1.147229 -0.327578 0.000000 
-1.266509 -0.389043 0.000000 
-1.219913 -0.301400 0.000000 
-1.335307 -0.353216 0.000000 
-1.284456 -0.263401 0.000000 
-1.402357 -0.309313 0.000000 
-1.341444 -0.215600 0.000000 
-1.466758 -0.256637 0.000000 
-1.539152 -0.195838 0.000000 
-1.393011 -0.157669 0.000000 
-1.612839 -0.125567 0.000000 
-1.665320 -0.067988 0.000000 
-1.691220 -0.003162 0.000000 
-1.704696 0.082332 0.000000 
-1.850073 0.249201 0.000000 
-1.911042 0.193376 0.000000 
-1.969645 0.136539 0.000000 
-1.726970 0.188743 0.000000 
-0.222881 0.396572 0.000000 
-0.195707 0.368989 0.000000 
-0.164205 0.332042 0.000000 
-0.127520 0.299344 0.000000 
-0.095686 0.269853 0.000000 
-0.059027 0.241374 0.000000 
-0.018954 0.211391 0.000000 
0.030296 0.180120 0.000000 
0.086536 0.159594 0.000000 
0.141893 0.140863 0.000000 
0.202102 0.111583 0.000000 
0.263408 0.071666 0.000000 
0.311661 0.021679 0.000000 
0.333954 -0.037943 0.000000 
0.338621 -0.098393 0.000000 
0.341530 -0.152332 0.000000 
0.353165 -0.202521 0.000000 
0.365710 -0.260943 0.000000 
0.363543 -0.330472 0.000000 
[...]
POINT_DATA 899 
VECTORS X_GC float 
-3.648847 2.336592 0.000000 
-3.619410 2.296040 0.000000 
-3.578536 2.260446 0.000000 
-3.540028 2.224795 0.000000 
-3.511690 2.192599 0.000000 
-3.481362 2.162741 0.000000 
-3.451569 2.122067 0.000000 
0.772356 2.239106 0.000000 
0.774615 2.212985 0.000000 
0.769962 2.184231 0.000000 
-3.399514 2.091792 0.000000 
0.413960 -0.553051 0.000000 
0.455573 -0.548748 0.000000 
-1.762619 -0.452946 0.000000 
-1.783389 -0.417550 0.000000 
-1.714437 -0.388760 0.000000 
0.732567 2.233431 0.000000 
0.698438 2.219595 0.000000 
0.491831 -0.534545 0.000000 
0.519501 -0.504140 0.000000 
0.530556 -0.463693 0.000000 
0.532354 -0.417889 0.000000 
0.531774 -0.367382 0.000000 
-3.460923 2.030059 0.000000 
0.663989 2.197648 0.000000 
0.631675 2.170254 0.000000 
0.601833 2.146198 0.000000 
0.569607 2.122940 0.000000 
0.534059 2.100863 0.000000 
0.492599 2.079723 0.000000 
0.444403 2.061058 0.000000 
0.762807 2.143257 0.000000 
-1.708694 -0.354378 0.000000 
-1.726386 -0.314114 0.000000 
-1.761257 -0.290094 0.000000 
-1.812853 -0.282245 0.000000 
-0.690422 -0.534581 0.000000 
-0.624256 -0.552508 0.000000 
-0.561079 -0.560690 0.000000 
-0.500739 -0.562146 0.000000 
-0.445387 -0.562208 0.000000 
0.532260 -0.308299 0.000000 
0.536647 -0.238965 0.000000 
-1.881389 -0.269745 0.000000 
-0.389303 -0.559933 0.000000 
-0.340338 -0.544648 0.000000 
-0.344339 -0.490513 0.000000 
-0.358558 -0.437973 0.000000 
-0.381750 -0.397062 0.000000 
-0.406193 -0.362887 0.000000 
-0.417316 -0.331389 0.000000 
-0.428320 -0.297133 0.000000 
-0.436973 -0.252868 0.000000 
-0.444212 -0.197325 0.000000 
-0.452662 -0.138467 0.000000 
-0.468602 -0.081568 0.000000 
0.553166 -0.174251 0.000000 
0.573193 -0.116580 0.000000 
0.574450 -0.064839 0.000000 
0.561087 -0.014519 0.000000 
0.550432 0.040804 0.000000 
0.748903 2.089939 0.000000 
0.730940 2.033446 0.000000 
0.715868 1.987287 0.000000 
0.699446 1.951159 0.000000 
0.684888 1.910170 0.000000 
0.675900 1.863965 0.000000 
0.669871 1.814405 0.000000 
0.664455 1.766548 0.000000 
0.668163 1.720129 0.000000 
0.672091 1.670295 0.000000 
0.674558 1.622272 0.000000 
0.673045 1.572193 0.000000 
0.386491 2.051378 0.000000 
0.664855 1.513454 0.000000 
0.652298 1.455376 0.000000 
0.638456 1.401726 0.000000 
0.623121 1.352216 0.000000 
0.616008 1.309189 0.000000 
0.600787 1.274247 0.000000 
0.571289 1.244798 0.000000 
0.539016 1.213636 0.000000 
0.513857 1.184737 0.000000 
0.493343 1.158502 0.000000 
0.469109 1.140690 0.000000 
0.444920 1.124245 0.000000 
0.415324 1.103279 0.000000 
0.383540 1.078527 0.000000 
0.356179 1.049195 0.000000 
0.343879 1.010295 0.000000 
0.337476 0.964775 0.000000 
0.332404 0.919488 0.000000 
0.328512 0.879799 0.000000 
0.319594 0.843719 0.000000 
0.304149 0.810308 0.000000 
0.290502 0.769917 0.000000 
0.275896 0.722055 0.000000 
0.261905 0.680086 0.000000 
0.250150 0.646491 0.000000 
0.250896 0.608686 0.000000 
0.259587 0.566082 0.000000 
0.284617 0.523309 0.000000 
0.315237 0.493648 0.000000 
0.340022 0.474211 0.000000 
0.354380 0.448362 0.000000 
0.368685 0.421220 0.000000 
0.385568 0.394823 0.000000 
0.415372 0.370026 0.000000 
0.447119 0.338314 0.000000 
0.477633 0.310397 0.000000 
0.503078 0.282461 0.000000 
0.518876 0.244407 0.000000 
0.527127 0.208438 0.000000 
0.534187 0.163893 0.000000 
0.543185 0.103113 0.000000 
0.322519 2.040322 0.000000 
0.263849 2.027205 0.000000 
0.208223 2.021786 0.000000 
0.150441 2.017957 0.000000 
-0.687392 -0.461513 0.000000 
-3.327058 2.065560 0.000000 
-3.276080 2.019138 0.000000 
-3.224941 1.985551 0.000000 
-3.181728 1.956393 0.000000 
-3.135074 1.919463 0.000000 
-3.078123 1.895170 0.000000 
-1.944260 -0.224866 0.000000 
0.083204 2.023113 0.000000 
0.005786 2.017760 0.000000 
-0.071812 2.026999 0.000000 
-0.135705 2.056540 0.000000 
-0.182391 2.098146 0.000000 
-1.999041 -0.153898 0.000000 
-1.843230 -0.428407 0.000000 
-0.491126 -0.017608 0.000000 
-0.512312 0.055635 0.000000 
-0.526535 0.118467 0.000000 
-0.527935 0.180589 0.000000 
-0.524207 0.247759 0.000000 
-0.505864 0.304891 0.000000 
-0.468875 0.354103 0.000000 
-0.410369 0.383348 0.000000 
-0.354013 0.404465 0.000000 
-0.301050 0.414410 0.000000 
-0.255730 0.415183 0.000000 
-0.695595 -0.383218 0.000000 
-0.726457 -0.306336 0.000000 
-0.747352 -0.236881 0.000000 
-3.396487 2.008424 0.000000 
-3.344056 1.929036 0.000000 
-3.294256 1.885636 0.000000 
-3.248246 1.847311 0.000000 
-3.196818 1.807958 0.000000 
-3.159669 1.756648 0.000000 
-3.113281 1.709943 0.000000 
-3.056061 1.690380 0.000000 
-2.996684 1.667755 0.000000 
-2.933161 1.638139 0.000000 
-2.879064 1.601996 0.000000 
-2.813006 1.577210 0.000000 
-2.751664 1.554160 0.000000 
-2.686782 1.524837 0.000000 
-1.922020 -0.425600 0.000000 
-1.999705 -0.427099 0.000000 
-2.060018 -0.405495 0.000000 
-2.032615 -0.070508 0.000000 
-2.048550 0.015215 0.000000 
-2.029059 0.081108 0.000000 
-2.105228 -0.348437 0.000000 
-2.154373 -0.280842 0.000000 
-2.203584 -0.226218 0.000000 
-2.237020 -0.164783 0.000000 
-2.250593 -0.099490 0.000000 
-2.270119 -0.027706 0.000000 
-2.297898 0.042604 0.000000 
-2.327118 0.104184 0.000000 
-2.346747 0.158154 0.000000 
-2.362840 0.211263 0.000000 
-2.374561 0.262308 0.000000 
-2.373128 0.314284 0.000000 
-2.334174 0.380874 0.000000 
-2.331842 0.421492 0.000000 
-2.284565 0.430251 0.000000 
-0.236368 2.147681 0.000000 
-0.299146 2.191508 0.000000 
-0.346614 2.211433 0.000000 
-0.382877 2.174930 0.000000 
-0.412447 2.145880 0.000000 
-0.433989 2.105593 0.000000 
-0.446472 2.062626 0.000000 
-0.451628 2.023308 0.000000 
-0.451047 1.984846 0.000000 
-0.449242 1.948842 0.000000 
-0.453345 1.916953 0.000000 
-0.460251 1.889259 0.000000 
-0.470304 1.860474 0.000000 
-0.475290 1.830984 0.000000 
-0.478341 1.801199 0.000000 
-0.479442 1.764463 0.000000 
-2.609147 1.511048 0.000000 
-2.517189 1.505550 0.000000 
-2.434013 1.505886 0.000000 
-2.352624 1.495855 0.000000 
-2.274410 1.476484 0.000000 
-2.204499 1.441835 0.000000 
-2.180326 1.372952 0.000000 
-2.178559 1.284416 0.000000 
-2.168273 1.194387 0.000000 
-2.159086 1.096323 0.000000 
-2.144575 1.007164 0.000000 
-2.163040 0.931947 0.000000 
-2.183612 0.857856 0.000000 
-2.172907 0.793298 0.000000 
-2.161614 0.730543 0.000000 
-2.169833 0.670431 0.000000 
-2.188987 0.608678 0.000000 
-2.218663 0.557432 0.000000 
-2.229021 0.501559 0.000000 
-2.997130 1.878373 0.000000 
-3.021908 1.780235 0.000000 
-2.902046 1.846866 0.000000 
-0.770600 -0.154288 0.000000 
-0.790096 -0.062629 0.000000 
-0.811857 0.018079 0.000000 
-0.835807 0.096643 0.000000 
-0.859157 0.166771 0.000000 
-0.881226 0.226822 0.000000 
-0.903169 0.286173 0.000000 
-0.928196 0.350217 0.000000 
-2.785442 1.814313 0.000000 
-2.944278 1.753571 0.000000 
-2.855014 1.716425 0.000000 
-2.796189 1.656345 0.000000 
-2.651235 1.799567 0.000000 
-2.517962 1.789219 0.000000 
-2.394240 1.780057 0.000000 
-2.275192 1.772060 0.000000 
-2.180847 1.747499 0.000000 
-2.099904 1.721020 0.000000 
-2.018420 1.689780 0.000000 
-1.945469 1.694077 0.000000 
-1.885190 1.727417 0.000000 
-1.829736 1.747986 0.000000 
-1.760875 1.773217 0.000000 
-1.680504 1.801642 0.000000 
-1.617798 1.819959 0.000000 
-1.570169 1.834482 0.000000 
-1.527149 1.848672 0.000000 
-1.482581 1.860801 0.000000 
-1.433927 1.867342 0.000000 
-1.386311 1.875257 0.000000 
-1.337319 1.883987 0.000000 
-1.286363 1.891067 0.000000 
-1.235962 1.891784 0.000000 
-1.188452 1.896597 0.000000 
-1.140860 1.906048 0.000000 
-1.091558 1.905358 0.000000 
-1.038962 1.894339 0.000000 
-0.982519 1.875341 0.000000 
-0.922315 1.858599 0.000000 
-0.869867 1.848274 0.000000 
-0.827747 1.841784 0.000000 
-0.785371 1.836873 0.000000 
-0.748025 1.827136 0.000000 
-0.712781 1.816868 0.000000 
-0.681690 1.802937 0.000000 
-0.657198 1.791802 0.000000 
-0.633895 1.785139 0.000000 
-0.612002 1.780684 0.000000 
-0.594184 1.773471 0.000000 
-0.577381 1.764021 0.000000 
-0.560109 1.748737 0.000000 
-0.540091 1.716283 0.000000 
-1.243914 0.077437 0.000000 
-1.232782 0.091154 0.000000 
-1.257376 0.063084 0.000000 
-1.224378 0.109854 0.000000 
-1.271472 0.043738 0.000000 
-1.215702 0.131851 0.000000 
-1.204660 0.157907 0.000000 
-1.290143 0.015996 0.000000 
-1.314447 -0.029044 0.000000 
-1.190204 0.188214 0.000000 
-1.318041 -0.082398 0.000000 
-1.171655 0.222370 0.000000 
-1.149359 0.258684 0.000000 
-1.123094 0.296933 0.000000 
-1.284246 -0.132377 0.000000 
-1.239750 -0.183104 0.000000 
-1.083297 0.340924 0.000000 
-1.028190 0.372595 0.000000 
-1.181630 -0.225460 0.000000 
-1.112789 -0.256888 0.000000 
-1.040643 -0.269058 0.000000 
-0.978118 -0.272145 0.000000 
-0.927392 -0.285170 0.000000 
-0.889718 -0.324305 0.000000 
-0.873564 -0.380855 0.000000 
-0.920771 -0.413049 0.000000 
-0.935346 -0.345780 0.000000 
-0.991249 -0.422625 0.000000 
-1.088918 -0.419897 0.000000 
-1.067426 -0.340245 0.000000 
-1.189474 -0.412333 0.000000 
-1.147229 -0.327578 0.000000 
-1.266509 -0.389043 0.000000 
-1.219913 -0.301400 0.000000 
-1.335307 -0.353216 0.000000 
-1.284456 -0.263401 0.000000 
-1.402357 -0.309313 0.000000 
-1.341444 -0.215600 0.000000 
-1.466758 -0.256637 0.000000 
-1.539152 -0.195838 0.000000 
-1.393011 -0.157669 0.000000 
-1.612839 -0.125567 0.000000 
-1.665320 -0.067988 0.000000 
-1.691220 -0.003162 0.000000 
-1.704696 0.082332 0.000000 
-1.850073 0.249201 0.000000 
-1.911042 0.193376 0.000000 
-1.969645 0.136539 0.000000 
-1.726970 0.188743 0.000000 
-0.222881 0.396572 0.000000 
-0.195707 0.368989 0.000000 
-0.164205 0.332042 0.000000 
-0.127520 0.299344 0.000000 
-0.095686 0.269853 0.000000 
-0.059027 0.241374 0.000000 
-0.018954 0.211391 0.000000 
0.030296 0.180120 0.000000 
0.086536 0.159594 0.000000 
0.141893 0.140863 0.000000 
0.202102 0.111583 0.000000 
0.263408 0.071666 0.000000 
0.311661 0.021679 0.000000 
0.333954 -0.037943 0.000000 
0.338621 -0.098393 0.000000 
0.341530 -0.152332 0.000000 
0.353165 -0.202521 0.000000 
0.365710 -0.260943 0.000000 
0.363543 -0.330472 0.000000 
0.357353 -0.392587 0.000000 
0.351188 -0.443329 0.000000 
0.363842 -0.490357 0.000000 
-1.737069 -0.357008 0.000000 
-0.199590 0.449190 0.000000 
-0.156305 0.419274 0.000000 
-0.462327 1.685229 0.000000 
0.741313 2.207804 0.000000 
0.482415 -0.501128 0.000000 
0.446104 -0.509024 0.000000 
0.403556 -0.514678 0.000000 
-0.104001 0.391209 0.000000 
-0.514998 1.617284 0.000000 
-0.059937 0.356804 0.000000 
0.738519 2.182539 0.000000 
0.714572 2.194839 0.000000 
-0.249752 0.476013 0.000000 
-0.036232 0.313006 0.000000 
0.000772 0.285173 0.000000 
0.035161 0.259529 0.000000 
-1.776537 -0.356450 0.000000 
-1.836238 -0.352265 0.000000 
-0.309416 0.490113 0.000000 
-0.378944 0.487849 0.000000 
-2.292732 0.367437 0.000000 
-2.315166 0.317446 0.000000 
-2.314418 0.269889 0.000000 
-2.293418 0.223503 0.000000 
-2.279687 0.173624 0.000000 
-2.253462 0.126358 0.000000 
0.075120 0.231786 0.000000 
0.131113 0.219178 0.000000 
-0.977004 0.421161 0.000000 
-0.860050 0.410996 0.000000 
-1.912142 -0.344209 0.000000 
-1.989966 -0.352989 0.000000 
-2.023752 -0.285447 0.000000 
-2.082175 -0.214186 0.000000 
0.723889 2.151026 0.000000 
0.691466 2.169869 0.000000 
0.665980 2.137222 0.000000 
0.704783 2.109954 0.000000 
0.637970 2.099164 0.000000 
0.681732 2.062745 0.000000 
0.670916 2.016570 0.000000 
0.602858 2.067496 0.000000 
0.659584 1.976146 0.000000 
0.560783 2.041125 0.000000 
0.636111 1.940072 0.000000 
0.607495 1.890281 0.000000 
0.595324 1.826800 0.000000 
0.604052 1.762127 0.000000 
0.514160 2.011722 0.000000 
0.453857 1.984277 0.000000 
0.392525 1.982298 0.000000 
0.334098 1.980770 0.000000 
0.278675 1.962016 0.000000 
0.217273 1.943941 0.000000 
0.149449 1.926585 0.000000 
0.614128 1.709851 0.000000 
0.621313 1.662272 0.000000 
0.624262 1.617392 0.000000 
-2.197766 0.073170 0.000000 
-2.158682 -0.001754 0.000000 
-2.124695 0.132500 0.000000 
-2.150589 -0.167880 0.000000 
-2.141926 -0.090334 0.000000 
-0.393439 -0.506894 0.000000 
-0.412631 -0.462851 0.000000 
-0.436983 -0.422248 0.000000 
-0.445953 -0.378828 0.000000 
-0.458251 -0.346002 0.000000 
-0.479726 -0.311236 0.000000 
-0.496934 -0.262505 0.000000 
-0.509002 -0.207421 0.000000 
-0.517157 -0.153091 0.000000 
-0.545309 -0.101816 0.000000 
-0.442273 -0.504289 0.000000 
-0.496002 -0.494772 0.000000 
-0.557668 -0.496878 0.000000 
-0.618975 -0.481398 0.000000 
-0.334659 2.149620 0.000000 
-0.367985 2.119903 0.000000 
-0.385153 2.083477 0.000000 
-0.396797 2.049610 0.000000 
-0.406285 2.014088 0.000000 
-0.402558 1.974954 0.000000 
-0.406645 1.936511 0.000000 
-0.418378 1.904097 0.000000 
-0.428059 1.874971 0.000000 
-0.435849 1.845424 0.000000 
-0.442335 1.815389 0.000000 
-0.445406 1.782324 0.000000 
-0.444483 1.736608 0.000000 
0.619822 1.571660 0.000000 
-1.077870 0.468225 0.000000 
-1.149036 0.426267 0.000000 
-1.174735 0.351424 0.000000 
-1.192231 0.299701 0.000000 
-1.210811 0.257924 0.000000 
-1.228352 0.218585 0.000000 
-1.238869 0.180604 0.000000 
-1.244643 0.149107 0.000000 
-1.248534 0.124206 0.000000 
-1.252336 0.104918 0.000000 
-1.262323 0.091667 0.000000 
-1.280319 0.080751 0.000000 
-0.451814 0.465189 0.000000 
-0.526928 0.421667 0.000000 
0.194935 0.202186 0.000000 
0.069048 1.912485 0.000000 
-0.574175 0.350983 0.000000 
-0.593607 0.269880 0.000000 
-1.764101 0.309565 0.000000 
-2.210991 0.428421 0.000000 
-0.825996 0.325719 0.000000 
-0.799223 0.254639 0.000000 
-0.760911 0.188205 0.000000 
0.605964 1.520709 0.000000 
0.587834 1.463349 0.000000 
0.576354 1.403500 0.000000 
0.574971 1.348492 0.000000 
0.580375 1.305467 0.000000 
0.545179 1.283083 0.000000 
0.509957 1.250821 0.000000 
0.484198 1.214418 0.000000 
0.468721 1.183264 0.000000 
0.449386 1.164733 0.000000 
0.422962 1.152067 0.000000 
0.391379 1.132916 0.000000 
0.357154 1.108853 0.000000 
0.323730 1.080481 0.000000 
-0.582151 -0.040948 0.000000 
0.265957 0.175756 0.000000 
0.333763 0.129627 0.000000 
0.378371 0.062611 0.000000 
0.400918 -0.011784 0.000000 
0.401084 -0.074773 0.000000 
0.404345 -0.128874 0.000000 
0.432648 -0.179956 0.000000 
0.450030 -0.244397 0.000000 
0.529803 -0.091243 0.000000 
0.491947 -0.139381 0.000000 
0.453243 -0.089497 0.000000 
0.449550 -0.318721 0.000000 
0.498420 -0.045370 0.000000 
0.474171 0.014571 0.000000 
0.457863 0.089145 0.000000 
0.462195 -0.377375 0.000000 
0.478704 -0.423711 0.000000 
0.483460 -0.464677 0.000000 
0.412910 -0.403017 0.000000 
0.398390 -0.441730 0.000000 
0.404290 -0.476017 0.000000 
0.442452 -0.471459 0.000000 
0.436659 -0.436295 0.000000 
-0.727378 0.114072 0.000000 
-0.616071 0.196090 0.000000 
-0.623548 0.121810 0.000000 
-0.605779 0.040802 0.000000 
-0.706340 0.028354 0.000000 
-0.681483 -0.057908 0.000000 
-0.032304 1.906925 0.000000 
-0.128010 1.943074 0.000000 
-0.195732 2.010198 0.000000 
-0.243911 2.064112 0.000000 
-0.287859 2.111516 0.000000 
-0.335518 2.083820 0.000000 
-0.667608 -0.143289 0.000000 
-0.584906 -0.150057 0.000000 
-0.658169 -0.223297 0.000000 
-0.578442 -0.215427 0.000000 
-0.639050 -0.294740 0.000000 
-0.607982 -0.370257 0.000000 
-0.562541 -0.278126 0.000000 
-0.536184 -0.339150 0.000000 
-0.495978 -0.377111 0.000000 
-0.500680 -0.429506 0.000000 
-0.573051 -0.433959 0.000000 
-2.690892 1.680219 0.000000 
-2.684799 1.594206 0.000000 
-2.602920 1.592944 0.000000 
-2.574381 1.677937 0.000000 
-2.518122 1.612811 0.000000 
-2.424460 1.636709 0.000000 
-2.320006 1.627778 0.000000 
-2.229986 1.604160 0.000000 
-2.146342 1.562920 0.000000 
-1.455055 -0.098688 0.000000 
-1.387692 -0.018364 0.000000 
-1.339496 0.034964 0.000000 
-1.304977 0.063524 0.000000 
-1.531301 -0.033195 0.000000 
-1.604385 0.010917 0.000000 
-1.592423 0.111598 0.000000 
-1.608296 0.235561 0.000000 
-1.827918 0.434006 0.000000 
0.477873 0.202810 0.000000 
0.477147 0.237708 0.000000 
0.465631 0.271948 0.000000 
-0.587742 1.716158 0.000000 
-0.593403 1.740261 0.000000 
-0.604579 1.752917 0.000000 
-0.619289 1.758603 0.000000 
-0.639577 1.756430 0.000000 
-0.665912 1.758046 0.000000 
-0.697937 1.765033 0.000000 
-0.595692 1.662669 0.000000 
-0.726123 1.779844 0.000000 
-0.757398 1.790415 0.000000 
-0.794522 1.787839 0.000000 
-0.841416 1.785262 0.000000 
-0.894922 1.786622 0.000000 
-0.956071 1.795038 0.000000 
-1.020951 1.813959 0.000000 
-1.077937 1.841594 0.000000 
-1.120258 1.870322 0.000000 
-1.171769 1.846062 0.000000 
0.332207 0.399453 0.000000 
0.333662 0.357718 0.000000 
0.321472 0.428070 0.000000 
0.302407 0.454883 0.000000 
0.214022 0.469544 0.000000 
0.194081 0.530569 0.000000 
0.186716 0.586082 0.000000 
0.189303 0.638854 0.000000 
0.360023 0.318036 0.000000 
0.405131 0.292903 0.000000 
0.201671 0.688100 0.000000 
0.218038 0.738361 0.000000 
0.236652 0.787295 0.000000 
0.256885 0.829228 0.000000 
0.278373 0.857723 0.000000 
0.284019 0.891121 0.000000 
0.276718 0.937868 0.000000 
0.278735 0.994681 0.000000 
0.296322 1.044948 0.000000 
-1.507867 1.797820 0.000000 
-1.548116 1.773178 0.000000 
-1.598023 1.745798 0.000000 
-1.467251 1.812594 0.000000 
-1.422160 1.819877 0.000000 
-1.373311 1.826593 0.000000 
-1.322903 1.834370 0.000000 
-1.275577 1.843616 0.000000 
-1.225048 1.842216 0.000000 
-1.662214 1.722129 0.000000 
-1.732600 1.702189 0.000000 
-1.794687 1.687814 0.000000 
-1.841773 1.658626 0.000000 
-2.078405 0.725899 0.000000 
-2.079214 0.804488 0.000000 
-2.097651 0.648299 0.000000 
-2.129318 0.576560 0.000000 
-2.096743 0.885051 0.000000 
-2.169699 0.521217 0.000000 
-1.991686 0.448216 0.000000 
-1.642187 0.373772 0.000000 
-1.989898 0.280992 0.000000 
-2.064526 0.209179 0.000000 
-1.914688 0.354526 0.000000 
-2.037969 1.137603 0.000000 
-2.021377 1.021918 0.000000 
-2.055796 1.266764 0.000000 
-2.102728 1.369418 0.000000 
-2.047875 1.511720 0.000000 
0.428030 0.258451 0.000000 
0.375625 0.237215 0.000000 
0.313454 0.250316 0.000000 
0.290352 0.396350 0.000000 
0.238487 1.107268 0.000000 
0.440631 0.220343 0.000000 
0.396678 0.180566 0.000000 
0.460488 0.154646 0.000000 
0.523747 1.330758 0.000000 
-2.262588 0.294012 0.000000 
-2.220468 0.350040 0.000000 
-2.218579 0.240501 0.000000 
-2.146376 0.292351 0.000000 
-2.206503 0.175431 0.000000 
0.473879 1.292146 0.000000 
0.446488 1.239814 0.000000 
0.440978 1.195796 0.000000 
0.409581 1.187940 0.000000 
0.629179 2.016836 0.000000 
0.593839 1.984363 0.000000 
0.550362 1.940159 0.000000 
0.483841 1.899736 0.000000 
0.202470 1.040904 0.000000 
0.241245 0.893128 0.000000 
0.205152 0.868327 0.000000 
0.175878 0.820187 0.000000 
0.153326 0.761680 0.000000 
0.132079 0.701231 0.000000 
0.113278 0.636775 0.000000 
0.106000 0.568452 0.000000 
0.109640 0.499255 0.000000 
0.121648 0.428577 0.000000 
0.032483 0.338963 0.000000 
0.246820 0.421641 0.000000 
0.099619 0.287328 0.000000 
0.373127 1.173058 0.000000 
-0.307911 2.036198 0.000000 
-0.360136 2.017729 0.000000 
-0.343252 1.963383 0.000000 
-0.270247 1.971527 0.000000 
0.168337 0.283847 0.000000 
0.242346 0.273509 0.000000 
0.270369 0.342546 0.000000 
0.505525 1.398519 0.000000 
-0.689828 0.225774 0.000000 
-0.729540 0.283178 0.000000 
-0.746154 0.357651 0.000000 
-0.657668 0.374215 0.000000 
-0.661195 0.289928 0.000000 
-0.924642 0.526891 0.000000 
-1.137284 1.790254 0.000000 
-1.072920 1.745660 0.000000 
-1.248127 1.802551 0.000000 
-1.304069 1.786229 0.000000 
-1.360197 1.778568 0.000000 
-1.411221 1.774429 0.000000 
-1.453165 1.771199 0.000000 
-1.486003 1.753737 0.000000 
-1.510814 1.710268 0.000000 
-1.558800 1.665599 0.000000 
-0.995058 1.718907 0.000000 
-0.919611 1.708431 0.000000 
-0.852227 1.715363 0.000000 
-0.796966 1.731881 0.000000 
-0.752732 1.751050 0.000000 
-1.635591 1.638266 0.000000 
-1.992480 0.912968 0.000000 
-1.965104 0.803188 0.000000 
-1.974377 0.699855 0.000000 
-2.014368 0.606234 0.000000 
-2.065453 0.523048 0.000000 
-2.071492 0.369981 0.000000 
-2.131272 0.453517 0.000000 
-1.712039 1.624943 0.000000 
-1.781280 1.624894 0.000000 
-1.884796 1.594837 0.000000 
0.516332 1.814499 0.000000 
0.538779 1.743371 0.000000 
0.517174 1.472905 0.000000 
0.552532 1.534841 0.000000 
0.576896 1.576767 0.000000 
0.583356 1.613794 0.000000 
0.576083 1.650798 0.000000 
0.562288 1.693158 0.000000 