# vtk DataFile Version 3.0 
vtk output 
ASCII 
DATASET UNSTRUCTURED_GRID 
POINTS 899 float 
-3.648847 2.315177 0.000000 
-3.619410 2.274625 0.000000 
-3.578536 2.239030 0.000000 
-3.540028 2.203379 0.000000 
-3.511690 2.171184 0.000000 
-3.481362 2.141326 0.000000 
-3.451569 2.100652 0.000000 
0.772356 2.217691 0.000000 
0.774615 2.191570 0.000000 
0.769962 2.162816 0.000000 
-3.399514 2.070376 0.000000 
0.413960 -0.574466 0.000000 
0.455573 -0.570163 0.000000 
-1.762619 -0.474361 0.000000 
-1.783389 -0.438965 0.000000 
-1.714437 -0.410176 0.000000 
0.732567 2.212015 0.000000 
0.698438 2.198179 0.000000 
0.491831 -0.555960 0.000000 
0.519501 -0.525555 0.000000 
0.530556 -0.485109 0.000000 
0.532354 -0.439304 0.000000 
0.531774 -0.388798 0.000000 
-3.460923 2.008644 0.000000 
0.663989 2.176233 0.000000 
0.631675 2.148838 0.000000 
0.601833 2.124783 0.000000 
0.569607 2.101525 0.000000 
0.534059 2.079448 0.000000 
0.492599 2.058308 0.000000 
0.444403 2.039643 0.000000 
0.762807 2.121841 0.000000 
-1.708694 -0.375793 0.000000 
-1.726386 -0.335530 0.000000 
-1.761257 -0.311509 0.000000 
-1.812853 -0.303661 0.000000 
-0.690422 -0.555996 0.000000 
-0.624256 -0.573924 0.000000 
-0.561079 -0.582105 0.000000 
-0.500739 -0.583561 0.000000 
-0.445387 -0.583623 0.000000 
0.532260 -0.329714 0.000000 
0.536647 -0.260381 0.000000 
-1.881389 -0.291160 0.000000 
-0.389303 -0.581349 0.000000 
-0.340338 -0.566063 0.000000 
-0.344339 -0.511928 0.000000 
-0.358558 -0.459389 0.000000 
-0.381750 -0.418477 0.000000 
-0.406193 -0.384303 0.000000 
-0.417316 -0.352805 0.000000 
-0.428320 -0.318548 0.000000 
-0.436973 -0.274283 0.000000 
-0.444212 -0.218740 0.000000 
-0.452662 -0.159882 0.000000 
-0.468602 -0.102983 0.000000 
0.553166 -0.195666 0.000000 
0.573193 -0.137995 0.000000 
0.574450 -0.086254 0.000000 
0.561087 -0.035934 0.000000 
0.550432 0.019389 0.000000 
0.748903 2.068523 0.000000 
0.730940 2.012031 0.000000 
0.715868 1.965872 0.000000 
0.699446 1.929744 0.000000 
0.684888 1.888754 0.000000 
0.675900 1.842550 0.000000 
0.669871 1.792990 0.000000 
0.664455 1.745133 0.000000 
0.668163 1.698714 0.000000 
0.672091 1.648880 0.000000 
0.674558 1.600857 0.000000 
0.673045 1.550777 0.000000 
0.386491 2.029963 0.000000 
0.664855 1.492038 0.000000 
0.652298 1.433961 0.000000 
0.638456 1.380311 0.000000 
0.623121 1.330801 0.000000 
0.616008 1.287774 0.000000 
0.600787 1.252831 0.000000 
0.571289 1.223383 0.000000 
0.539016 1.192221 0.000000 
0.513857 1.163322 0.000000 
0.493343 1.137087 0.000000 
0.469109 1.119274 0.000000 
0.444920 1.102830 0.000000 
0.415324 1.081864 0.000000 
0.383540 1.057112 0.000000 
0.356179 1.027780 0.000000 
0.343879 0.988880 0.000000 
0.337476 0.943360 0.000000 
0.332404 0.898073 0.000000 
0.328512 0.858383 0.000000 
0.319594 0.822304 0.000000 
0.304149 0.788893 0.000000 
0.290502 0.748502 0.000000 
0.275896 0.700640 0.000000 
0.261905 0.658670 0.000000 
0.250150 0.625075 0.000000 
0.250896 0.587270 0.000000 
0.259587 0.544667 0.000000 
0.284617 0.501894 0.000000 
0.315237 0.472233 0.000000 
0.340022 0.452796 0.000000 
0.354380 0.426947 0.000000 
0.368685 0.399804 0.000000 
0.385568 0.373408 0.000000 
0.415372 0.348611 0.000000 
0.447119 0.316899 0.000000 
0.477633 0.288982 0.000000 
0.503078 0.261046 0.000000 
0.518876 0.222991 0.000000 
0.527127 0.187023 0.000000 
0.534187 0.142478 0.000000 
0.543185 0.081697 0.000000 
0.322519 2.018907 0.000000 
0.263849 2.005790 0.000000 
0.208223 2.000370 0.000000 
0.150441 1.996542 0.000000 
-0.687392 -0.482929 0.000000 
-3.327058 2.044144 0.000000 
-3.276080 1.997723 0.000000 
-3.224941 1.964136 0.000000 
-3.181728 1.934978 0.000000 
-3.135074 1.898048 0.000000 
-3.078123 1.873755 0.000000 
-1.944260 -0.246282 0.000000 
0.083204 2.001698 0.000000 
0.005786 1.996345 0.000000 
-0.071812 2.005583 0.000000 
-0.135705 2.035125 0.000000 
-0.182391 2.076731 0.000000 
-1.999041 -0.175313 0.000000 
-1.843230 -0.449822 0.000000 
-0.491126 -0.039023 0.000000 
-0.512312 0.034220 0.000000 
-0.526535 0.097052 0.000000 
-0.527935 0.159174 0.000000 
-0.524207 0.226344 0.000000 
-0.505864 0.283476 0.000000 
-0.468875 0.332688 0.000000 
-0.410369 0.361933 0.000000 
-0.354013 0.383050 0.000000 
-0.301050 0.392995 0.000000 
-0.255730 0.393768 0.000000 
-0.695595 -0.404633 0.000000 
-0.726457 -0.327752 0.000000 
-0.747352 -0.258296 0.000000 
-3.396487 1.987009 0.000000 
-3.344056 1.907621 0.000000 
-3.294256 1.864220 0.000000 
-3.248246 1.825896 0.000000 
-3.196818 1.786543 0.000000 
-3.159669 1.735232 0.000000 
-3.113281 1.688528 0.000000 
-3.056061 1.668964 0.000000 
-2.996684 1.646340 0.000000 
-2.933161 1.616723 0.000000 
-2.879064 1.580580 0.000000 
-2.813006 1.555795 0.000000 
-2.751664 1.532745 0.000000 
-2.686782 1.503422 0.000000 
-1.922020 -0.447015 0.000000 
-1.999705 -0.448514 0.000000 
-2.060018 -0.426910 0.000000 
-2.032615 -0.091923 0.000000 
-2.048550 -0.006201 0.000000 
-2.029059 0.059692 0.000000 
-2.105228 -0.369852 0.000000 
-2.154373 -0.302257 0.000000 
-2.203584 -0.247633 0.000000 
-2.237020 -0.186198 0.000000 
-2.250593 -0.120905 0.000000 
-2.270119 -0.049121 0.000000 
-2.297898 0.021189 0.000000 
-2.327118 0.082769 0.000000 
-2.346747 0.136739 0.000000 
-2.362840 0.189848 0.000000 
-2.374561 0.240893 0.000000 
-2.373128 0.292868 0.000000 
-2.334174 0.359459 0.000000 
-2.331842 0.400077 0.000000 
-2.284565 0.408835 0.000000 
-0.236368 2.126266 0.000000 
-0.299146 2.170093 0.000000 
-0.346614 2.190018 0.000000 
-0.382877 2.153515 0.000000 
-0.412447 2.124465 0.000000 
-0.433989 2.084177 0.000000 
-0.446472 2.041211 0.000000 
-0.451628 2.001893 0.000000 
-0.451047 1.963430 0.000000 
-0.449242 1.927427 0.000000 
-0.453345 1.895537 0.000000 
-0.460251 1.867844 0.000000 
-0.470304 1.839059 0.000000 
-0.475290 1.809569 0.000000 
-0.478341 1.779783 0.000000 
-0.479442 1.743047 0.000000 
-2.609147 1.489633 0.000000 
-2.517189 1.484134 0.000000 
-2.434013 1.484471 0.000000 
-2.352624 1.474439 0.000000 
-2.274410 1.455068 0.000000 
-2.204499 1.420420 0.000000 
-2.180326 1.351537 0.000000 
-2.178559 1.263001 0.000000 
-2.168273 1.172972 0.000000 
-2.159086 1.074908 0.000000 
-2.144575 0.985749 0.000000 
-2.163040 0.910532 0.000000 
-2.183612 0.836440 0.000000 
-2.172907 0.771883 0.000000 
-2.161614 0.709128 0.000000 
-2.169833 0.649016 0.000000 
-2.188987 0.587263 0.000000 
-2.218663 0.536017 0.000000 
-2.229021 0.480144 0.000000 
-2.997130 1.856958 0.000000 
-3.021908 1.758820 0.000000 
-2.902046 1.825451 0.000000 
-0.770600 -0.175703 0.000000 
-0.790096 -0.084044 0.000000 
-0.811857 -0.003336 0.000000 
-0.835807 0.075228 0.000000 
-0.859157 0.145356 0.000000 
-0.881226 0.205407 0.000000 
-0.903169 0.264758 0.000000 
-0.928196 0.328802 0.000000 
-2.785442 1.792897 0.000000 
-2.944278 1.732156 0.000000 
-2.855014 1.695010 0.000000 
-2.796189 1.634930 0.000000 
-2.651235 1.778151 0.000000 
-2.517962 1.767804 0.000000 
-2.394240 1.758641 0.000000 
-2.275192 1.750645 0.000000 
-2.180847 1.726084 0.000000 
-2.099904 1.699604 0.000000 
-2.018420 1.668365 0.000000 
-1.945469 1.672662 0.000000 
-1.885190 1.706002 0.000000 
-1.829736 1.726571 0.000000 
-1.760875 1.751802 0.000000 
-1.680504 1.780227 0.000000 
-1.617798 1.798544 0.000000 
-1.570169 1.813067 0.000000 
-1.527149 1.827257 0.000000 
-1.482581 1.839386 0.000000 
-1.433927 1.845927 0.000000 
-1.386311 1.853842 0.000000 
-1.337319 1.862572 0.000000 
-1.286363 1.869652 0.000000 
-1.235962 1.870369 0.000000 
-1.188452 1.875182 0.000000 
-1.140860 1.884633 0.000000 
-1.091558 1.883942 0.000000 
-1.038962 1.872924 0.000000 
-0.982519 1.853926 0.000000 
-0.922315 1.837184 0.000000 
-0.869867 1.826859 0.000000 
-0.827747 1.820369 0.000000 
-0.785371 1.815457 0.000000 
-0.748025 1.805720 0.000000 
-0.712781 1.795453 0.000000 
-0.681690 1.781521 0.000000 
-0.657198 1.770387 0.000000 
-0.633895 1.763724 0.000000 
-0.612002 1.759269 0.000000 
-0.594184 1.752056 0.000000 
-0.577381 1.742606 0.000000 
-0.560109 1.727322 0.000000 
-0.540091 1.694868 0.000000 
-1.243914 0.056022 0.000000 
-1.232782 0.069739 0.000000 
-1.257376 0.041668 0.000000 
-1.224378 0.088439 0.000000 
-1.271472 0.022323 0.000000 
-1.215702 0.110436 0.000000 
-1.204660 0.136492 0.000000 
-1.290143 -0.005419 0.000000 
-1.314447 -0.050459 0.000000 
-1.190204 0.166799 0.000000 
-1.318041 -0.103813 0.000000 
-1.171655 0.200955 0.000000 
-1.149359 0.237269 0.000000 
-1.123094 0.275518 0.000000 
-1.284246 -0.153793 0.000000 
-1.239750 -0.204519 0.000000 
-1.083297 0.319509 0.000000 
-1.028190 0.351180 0.000000 
-1.181630 -0.246875 0.000000 
-1.112789 -0.278303 0.000000 
-1.040643 -0.290473 0.000000 
-0.978118 -0.293560 0.000000 
-0.927392 -0.306585 0.000000 
-0.889718 -0.345720 0.000000 
-0.873564 -0.402270 0.000000 
-0.920771 -0.434464 0.000000 
-0.935346 -0.367196 0.000000 
-0.991249 -0.444040 0.000000 
-1.088918 -0.441312 0.000000 
-1.067426 -0.361660 0.000000 
-1.189474 -0.433748 0.000000 
-1.147229 -0.348993 0.000000 
-1.266509 -0.410459 0.000000 
-1.219913 -0.322815 0.000000 
-1.335307 -0.374632 0.000000 
-1.284456 -0.284816 0.000000 
-1.402357 -0.330728 0.000000 
-1.341444 -0.237016 0.000000 
-1.466758 -0.278053 0.000000 
-1.539152 -0.217253 0.000000 
-1.393011 -0.179085 0.000000 
-1.612839 -0.146982 0.000000 
-1.665320 -0.089404 0.000000 
-1.691220 -0.024577 0.000000 
-1.704696 0.060917 0.000000 
-1.850073 0.227786 0.000000 
-1.911042 0.171961 0.000000 
-1.969645 0.115124 0.000000 
-1.726970 0.167327 0.000000 
-0.222881 0.375157 0.000000 
-0.195707 0.347574 0.000000 
-0.164205 0.310627 0.000000 
-0.127520 0.277929 0.000000 
-0.095686 0.248437 0.000000 
-0.059027 0.219959 0.000000 
-0.018954 0.189976 0.000000 
0.030296 0.158705 0.000000 
0.086536 0.138179 0.000000 
0.141893 0.119448 0.000000 
0.202102 0.090168 0.000000 
0.263408 0.050251 0.000000 
0.311661 0.000264 0.000000 
0.333954 -0.059358 0.000000 
0.338621 -0.119809 0.000000 
0.341530 -0.173747 0.000000 
0.353165 -0.223936 0.000000 
0.365710 -0.282359 0.000000 
0.363543 -0.351887 0.000000 
[...]
POINT_DATA 899 
VECTORS X_GC float 
-3.648847 2.315177 0.000000 
-3.619410 2.274625 0.000000 
-3.578536 2.239030 0.000000 
-3.540028 2.203379 0.000000 
-3.511690 2.171184 0.000000 
-3.481362 2.141326 0.000000 
-3.451569 2.100652 0.000000 
0.772356 2.217691 0.000000 
0.774615 2.191570 0.000000 
0.769962 2.162816 0.000000 
-3.399514 2.070376 0.000000 
0.413960 -0.574466 0.000000 
0.455573 -0.570163 0.000000 
-1.762619 -0.474361 0.000000 
-1.783389 -0.438965 0.000000 
-1.714437 -0.410176 0.000000 
0.732567 2.212015 0.000000 
0.698438 2.198179 0.000000 
0.491831 -0.555960 0.000000 
0.519501 -0.525555 0.000000 
0.530556 -0.485109 0.000000 
0.532354 -0.439304 0.000000 
0.531774 -0.388798 0.000000 
-3.460923 2.008644 0.000000 
0.663989 2.176233 0.000000 
0.631675 2.148838 0.000000 
0.601833 2.124783 0.000000 
0.569607 2.101525 0.000000 
0.534059 2.079448 0.000000 
0.492599 2.058308 0.000000 
0.444403 2.039643 0.000000 
0.762807 2.121841 0.000000 
-1.708694 -0.375793 0.000000 
-1.726386 -0.335530 0.000000 
-1.761257 -0.311509 0.000000 
-1.812853 -0.303661 0.000000 
-0.690422 -0.555996 0.000000 
-0.624256 -0.573924 0.000000 
-0.561079 -0.582105 0.000000 
-0.500739 -0.583561 0.000000 
-0.445387 -0.583623 0.000000 
0.532260 -0.329714 0.000000 
0.536647 -0.260381 0.000000 
-1.881389 -0.291160 0.000000 
-0.389303 -0.581349 0.000000 
-0.340338 -0.566063 0.000000 
-0.344339 -0.511928 0.000000 
-0.358558 -0.459389 0.000000 
-0.381750 -0.418477 0.000000 
-0.406193 -0.384303 0.000000 
-0.417316 -0.352805 0.000000 
-0.428320 -0.318548 0.000000 
-0.436973 -0.274283 0.000000 
-0.444212 -0.218740 0.000000 
-0.452662 -0.159882 0.000000 
-0.468602 -0.102983 0.000000 
0.553166 -0.195666 0.000000 
0.573193 -0.137995 0.000000 
0.574450 -0.086254 0.000000 
0.561087 -0.035934 0.000000 
0.550432 0.019389 0.000000 
0.748903 2.068523 0.000000 
0.730940 2.012031 0.000000 
0.715868 1.965872 0.000000 
0.699446 1.929744 0.000000 
0.684888 1.888754 0.000000 
0.675900 1.842550 0.000000 
0.669871 1.792990 0.000000 
0.664455 1.745133 0.000000 
0.668163 1.698714 0.000000 
0.672091 1.648880 0.000000 
0.674558 1.600857 0.000000 
0.673045 1.550777 0.000000 
0.386491 2.029963 0.000000 
0.664855 1.492038 0.000000 
0.652298 1.433961 0.000000 
0.638456 1.380311 0.000000 
0.623121 1.330801 0.000000 
0.616008 1.287774 0.000000 
0.600787 1.252831 0.000000 
0.571289 1.223383 0.000000 
0.539016 1.192221 0.000000 
0.513857 1.163322 0.000000 
0.493343 1.137087 0.000000 
0.469109 1.119274 0.000000 
0.444920 1.102830 0.000000 
0.415324 1.081864 0.000000 
0.383540 1.057112 0.000000 
0.356179 1.027780 0.000000 
0.343879 0.988880 0.000000 
0.337476 0.943360 0.000000 
0.332404 0.898073 0.000000 
0.328512 0.858383 0.000000 
0.319594 0.822304 0.000000 
0.304149 0.788893 0.000000 
0.290502 0.748502 0.000000 
0.275896 0.700640 0.000000 
0.261905 0.658670 0.000000 
0.250150 0.625075 0.000000 
0.250896 0.587270 0.000000 
0.259587 0.544667 0.000000 
0.284617 0.501894 0.000000 
0.315237 0.472233 0.000000 
0.340022 0.452796 0.000000 
0.354380 0.426947 0.000000 
0.368685 0.399804 0.000000 
0.385568 0.373408 0.000000 
0.415372 0.348611 0.000000 
0.447119 0.316899 0.000000 
0.477633 0.288982 0.000000 
0.503078 0.261046 0.000000 
0.518876 0.222991 0.000000 
0.527127 0.187023 0.000000 
0.534187 0.142478 0.000000 
0.543185 0.081697 0.000000 
0.322519 2.018907 0.000000 
0.263849 2.005790 0.000000 
0.208223 2.000370 0.000000 
0.150441 1.996542 0.000000 
-0.687392 -0.482929 0.000000 
-3.327058 2.044144 0.000000 
-3.276080 1.997723 0.000000 
-3.224941 1.964136 0.000000 
-3.181728 1.934978 0.000000 
-3.135074 1.898048 0.000000 
-3.078123 1.873755 0.000000 
-1.944260 -0.246282 0.000000 
0.083204 2.001698 0.000000 
0.005786 1.996345 0.000000 
-0.071812 2.005583 0.000000 
-0.135705 2.035125 0.000000 
-0.182391 2.076731 0.000000 
-1.999041 -0.175313 0.000000 
-1.843230 -0.449822 0.000000 
-0.491126 -0.039023 0.000000 
-0.512312 0.034220 0.000000 
-0.526535 0.097052 0.000000 
-0.527935 0.159174 0.000000 
-0.524207 0.226344 0.000000 
-0.505864 0.283476 0.000000 
-0.468875 0.332688 0.000000 
-0.410369 0.361933 0.000000 
-0.354013 0.383050 0.000000 
-0.301050 0.392995 0.000000 
-0.255730 0.393768 0.000000 
-0.695595 -0.404633 0.000000 
-0.726457 -0.327752 0.000000 
-0.747352 -0.258296 0.000000 
-3.396487 1.987009 0.000000 
-3.344056 1.907621 0.000000 
-3.294256 1.864220 0.000000 
-3.248246 1.825896 0.000000 
-3.196818 1.786543 0.000000 
-3.159669 1.735232 0.000000 
-3.113281 1.688528 0.000000 
-3.056061 1.668964 0.000000 
-2.996684 1.646340 0.000000 
-2.933161 1.616723 0.000000 
-2.879064 1.580580 0.000000 
-2.813006 1.555795 0.000000 
-2.751664 1.532745 0.000000 
-2.686782 1.503422 0.000000 
-1.922020 -0.447015 0.000000 
-1.999705 -0.448514 0.000000 
-2.060018 -0.426910 0.000000 
-2.032615 -0.091923 0.000000 
-2.048550 -0.006201 0.000000 
-2.029059 0.059692 0.000000 
-2.105228 -0.369852 0.000000 
-2.154373 -0.302257 0.000000 
-2.203584 -0.247633 0.000000 
-2.237020 -0.186198 0.000000 
-2.250593 -0.120905 0.000000 
-2.270119 -0.049121 0.000000 
-2.297898 0.021189 0.000000 
-2.327118 0.082769 0.000000 
-2.346747 0.136739 0.000000 
-2.362840 0.189848 0.000000 
-2.374561 0.240893 0.000000 
-2.373128 0.292868 0.000000 
-2.334174 0.359459 0.000000 
-2.331842 0.400077 0.000000 
-2.284565 0.408835 0.000000 
-0.236368 2.126266 0.000000 
-0.299146 2.170093 0.000000 
-0.346614 2.190018 0.000000 
-0.382877 2.153515 0.000000 
-0.412447 2.124465 0.000000 
-0.433989 2.084177 0.000000 
-0.446472 2.041211 0.000000 
-0.451628 2.001893 0.000000 
-0.451047 1.963430 0.000000 
-0.449242 1.927427 0.000000 
-0.453345 1.895537 0.000000 
-0.460251 1.867844 0.000000 
-0.470304 1.839059 0.000000 
-0.475290 1.809569 0.000000 
-0.478341 1.779783 0.000000 
-0.479442 1.743047 0.000000 
-2.609147 1.489633 0.000000 
-2.517189 1.484134 0.000000 
-2.434013 1.484471 0.000000 
-2.352624 1.474439 0.000000 
-2.274410 1.455068 0.000000 
-2.204499 1.420420 0.000000 
-2.180326 1.351537 0.000000 
-2.178559 1.263001 0.000000 
-2.168273 1.172972 0.000000 
-2.159086 1.074908 0.000000 
-2.144575 0.985749 0.000000 
-2.163040 0.910532 0.000000 
-2.183612 0.836440 0.000000 
-2.172907 0.771883 0.000000 
-2.161614 0.709128 0.000000 
-2.169833 0.649016 0.000000 
-2.188987 0.587263 0.000000 
-2.218663 0.536017 0.000000 
-2.229021 0.480144 0.000000 
-2.997130 1.856958 0.000000 
-3.021908 1.758820 0.000000 
-2.902046 1.825451 0.000000 
-0.770600 -0.175703 0.000000 
-0.790096 -0.084044 0.000000 
-0.811857 -0.003336 0.000000 
-0.835807 0.075228 0.000000 
-0.859157 0.145356 0.000000 
-0.881226 0.205407 0.000000 
-0.903169 0.264758 0.000000 
-0.928196 0.328802 0.000000 
-2.785442 1.792897 0.000000 
-2.944278 1.732156 0.000000 
-2.855014 1.695010 0.000000 
-2.796189 1.634930 0.000000 
-2.651235 1.778151 0.000000 
-2.517962 1.767804 0.000000 
-2.394240 1.758641 0.000000 
-2.275192 1.750645 0.000000 
-2.180847 1.726084 0.000000 
-2.099904 1.699604 0.000000 
-2.018420 1.668365 0.000000 
-1.945469 1.672662 0.000000 
-1.885190 1.706002 0.000000 
-1.829736 1.726571 0.000000 
-1.760875 1.751802 0.000000 
-1.680504 1.780227 0.000000 
-1.617798 1.798544 0.000000 
-1.570169 1.813067 0.000000 
-1.527149 1.827257 0.000000 
-1.482581 1.839386 0.000000 
-1.433927 1.845927 0.000000 
-1.386311 1.853842 0.000000 
-1.337319 1.862572 0.000000 
-1.286363 1.869652 0.000000 
-1.235962 1.870369 0.000000 
-1.188452 1.875182 0.000000 
-1.140860 1.884633 0.000000 
-1.091558 1.883942 0.000000 
-1.038962 1.872924 0.000000 
-0.982519 1.853926 0.000000 
-0.922315 1.837184 0.000000 
-0.869867 1.826859 0.000000 
-0.827747 1.820369 0.000000 
-0.785371 1.815457 0.000000 
-0.748025 1.805720 0.000000 
-0.712781 1.795453 0.000000 
-0.681690 1.781521 0.000000 
-0.657198 1.770387 0.000000 
-0.633895 1.763724 0.000000 
-0.612002 1.759269 0.000000 
-0.594184 1.752056 0.000000 
-0.577381 1.742606 0.000000 
-0.560109 1.727322 0.000000 
-0.540091 1.694868 0.000000 
-1.243914 0.056022 0.000000 
-1.232782 0.069739 0.000000 
-1.257376 0.041668 0.000000 
-1.224378 0.088439 0.000000 
-1.271472 0.022323 0.000000 
-1.215702 0.110436 0.000000 
-1.204660 0.136492 0.000000 
-1.290143 -0.005419 0.000000 
-1.314447 -0.050459 0.000000 
-1.190204 0.166799 0.000000 
-1.318041 -0.103813 0.000000 
-1.171655 0.200955 0.000000 
-1.149359 0.237269 0.000000 
-1.123094 0.275518 0.000000 
-1.284246 -0.153793 0.000000 
-1.239750 -0.204519 0.000000 
-1.083297 0.319509 0.000000 
-1.028190 0.351180 0.000000 
-1.181630 -0.246875 0.000000 
-1.112789 -0.278303 0.000000 
-1.040643 -0.290473 0.000000 
-0.978118 -0.293560 0.000000 
-0.927392 -0.306585 0.000000 
-0.889718 -0.345720 0.000000 
-0.873564 -0.402270 0.000000 
-0.920771 -0.434464 0.000000 
-0.935346 -0.367196 0.000000 
-0.991249 -0.444040 0.000000 
-1.088918 -0.441312 0.000000 
-1.067426 -0.361660 0.000000 
-1.189474 -0.433748 0.000000 
-1.147229 -0.348993 0.000000 
-1.266509 -0.410459 0.000000 
-1.219913 -0.322815 0.000000 
-1.335307 -0.374632 0.000000 
-1.284456 -0.284816 0.000000 
-1.402357 -0.330728 0.000000 
-1.341444 -0.237016 0.000000 
-1.466758 -0.278053 0.000000 
-1.539152 -0.217253 0.000000 
-1.393011 -0.179085 0.000000 
-1.612839 -0.146982 0.000000 
-1.665320 -0.089404 0.000000 
-1.691220 -0.024577 0.000000 
-1.704696 0.060917 0.000000 
-1.850073 0.227786 0.000000 
-1.911042 0.171961 0.000000 
-1.969645 0.115124 0.000000 
-1.726970 0.167327 0.000000 
-0.222881 0.375157 0.000000 
-0.195707 0.347574 0.000000 
-0.164205 0.310627 0.000000 
-0.127520 0.277929 0.000000 
-0.095686 0.248437 0.000000 
-0.059027 0.219959 0.000000 
-0.018954 0.189976 0.000000 
0.030296 0.158705 0.000000 
0.086536 0.138179 0.000000 
0.141893 0.119448 0.000000 
0.202102 0.090168 0.000000 
0.263408 0.050251 0.000000 
0.311661 0.000264 0.000000 
0.333954 -0.059358 0.000000 
0.338621 -0.119809 0.000000 
0.341530 -0.173747 0.000000 
0.353165 -0.223936 0.000000 
0.365710 -0.282359 0.000000 
0.363543 -0.351887 0.000000 
0.357353 -0.414002 0.000000 
0.351188 -0.464744 0.000000 
0.363842 -0.511772 0.000000 
-1.737069 -0.378423 0.000000 
-0.199590 0.427774 0.000000 
-0.156305 0.397858 0.000000 
-0.462327 1.663814 0.000000 
0.741313 2.186389 0.000000 
0.482415 -0.522543 0.000000 
0.446104 -0.530439 0.000000 
0.403556 -0.536093 0.000000 
-0.104001 0.369793 0.000000 
-0.514998 1.595869 0.000000 
-0.059937 0.335389 0.000000 
0.738519 2.161124 0.000000 
0.714572 2.173424 0.000000 
-0.249752 0.454598 0.000000 
-0.036232 0.291590 0.000000 
0.000772 0.263758 0.000000 
0.035161 0.238113 0.000000 
-1.776537 -0.377865 0.000000 
-1.836238 -0.373680 0.000000 
-0.309416 0.468698 0.000000 
-0.378944 0.466434 0.000000 
-2.292732 0.346022 0.000000 
-2.315166 0.296031 0.000000 
-2.314418 0.248474 0.000000 
-2.293418 0.202088 0.000000 
-2.279687 0.152209 0.000000 
-2.253462 0.104943 0.000000 
0.075120 0.210371 0.000000 
0.131113 0.197763 0.000000 
-0.977004 0.399746 0.000000 
-0.860050 0.389581 0.000000 
-1.912142 -0.365624 0.000000 
-1.989966 -0.374404 0.000000 
-2.023752 -0.306862 0.000000 
-2.082175 -0.235601 0.000000 
0.723889 2.129611 0.000000 
0.691466 2.148453 0.000000 
0.665980 2.115807 0.000000 
0.704783 2.088538 0.000000 
0.637970 2.077749 0.000000 
0.681732 2.041330 0.000000 
0.670916 1.995155 0.000000 
0.602858 2.046081 0.000000 
0.659584 1.954731 0.000000 
0.560783 2.019710 0.000000 
0.636111 1.918656 0.000000 
0.607495 1.868866 0.000000 
0.595324 1.805385 0.000000 
0.604052 1.740712 0.000000 
0.514160 1.990306 0.000000 
0.453857 1.962861 0.000000 
0.392525 1.960883 0.000000 
0.334098 1.959354 0.000000 
0.278675 1.940601 0.000000 
0.217273 1.922525 0.000000 
0.149449 1.905170 0.000000 
0.614128 1.688436 0.000000 
0.621313 1.640857 0.000000 
0.624262 1.595977 0.000000 
-2.197766 0.051755 0.000000 
-2.158682 -0.023169 0.000000 
-2.124695 0.111085 0.000000 
-2.150589 -0.189295 0.000000 
-2.141926 -0.111750 0.000000 
-0.393439 -0.528310 0.000000 
-0.412631 -0.484266 0.000000 
-0.436983 -0.443663 0.000000 
-0.445953 -0.400243 0.000000 
-0.458251 -0.367418 0.000000 
-0.479726 -0.332651 0.000000 
-0.496934 -0.283920 0.000000 
-0.509002 -0.228837 0.000000 
-0.517157 -0.174506 0.000000 
-0.545309 -0.123231 0.000000 
-0.442273 -0.525704 0.000000 
-0.496002 -0.516187 0.000000 
-0.557668 -0.518294 0.000000 
-0.618975 -0.502813 0.000000 
-0.334659 2.128205 0.000000 
-0.367985 2.098488 0.000000 
-0.385153 2.062062 0.000000 
-0.396797 2.028195 0.000000 
-0.406285 1.992672 0.000000 
-0.402558 1.953539 0.000000 
-0.406645 1.915096 0.000000 
-0.418378 1.882682 0.000000 
-0.428059 1.853556 0.000000 
-0.435849 1.824009 0.000000 
-0.442335 1.793974 0.000000 
-0.445406 1.760909 0.000000 
-0.444483 1.715192 0.000000 
0.619822 1.550245 0.000000 
-1.077870 0.446810 0.000000 
-1.149036 0.404851 0.000000 
-1.174735 0.330009 0.000000 
-1.192231 0.278286 0.000000 
-1.210811 0.236509 0.000000 
-1.228352 0.197169 0.000000 
-1.238869 0.159189 0.000000 
-1.244643 0.127692 0.000000 
-1.248534 0.102791 0.000000 
-1.252336 0.083503 0.000000 
-1.262323 0.070252 0.000000 
-1.280319 0.059336 0.000000 
-0.451814 0.443774 0.000000 
-0.526928 0.400252 0.000000 
0.194935 0.180771 0.000000 
0.069048 1.891070 0.000000 
-0.574175 0.329568 0.000000 
-0.593607 0.248465 0.000000 
-1.764101 0.288149 0.000000 
-2.210991 0.407006 0.000000 
-0.825996 0.304304 0.000000 
-0.799223 0.233223 0.000000 
-0.760911 0.166790 0.000000 
0.605964 1.499293 0.000000 
0.587834 1.441933 0.000000 
0.576354 1.382085 0.000000 
0.574971 1.327076 0.000000 
0.580375 1.284052 0.000000 
0.545179 1.261668 0.000000 
0.509957 1.229405 0.000000 
0.484198 1.193003 0.000000 
0.468721 1.161849 0.000000 
0.449386 1.143317 0.000000 
0.422962 1.130652 0.000000 
0.391379 1.111501 0.000000 
0.357154 1.087438 0.000000 
0.323730 1.059065 0.000000 
-0.582151 -0.062363 0.000000 
0.265957 0.154341 0.000000 
0.333763 0.108211 0.000000 
0.378371 0.041196 0.000000 
0.400918 -0.033199 0.000000 
0.401084 -0.096188 0.000000 
0.404345 -0.150289 0.000000 
0.432648 -0.201371 0.000000 
0.450030 -0.265812 0.000000 
0.529803 -0.112659 0.000000 
0.491947 -0.160796 0.000000 
0.453243 -0.110913 0.000000 
0.449550 -0.340136 0.000000 
0.498420 -0.066785 0.000000 
0.474171 -0.006844 0.000000 
0.457863 0.067729 0.000000 
0.462195 -0.398790 0.000000 
0.478704 -0.445126 0.000000 
0.483460 -0.486092 0.000000 
0.412910 -0.424432 0.000000 
0.398390 -0.463145 0.000000 
0.404290 -0.497433 0.000000 
0.442452 -0.492874 0.000000 
0.436659 -0.457710 0.000000 
-0.727378 0.092657 0.000000 
-0.616071 0.174675 0.000000 
-0.623548 0.100395 0.000000 
-0.605779 0.019387 0.000000 
-0.706340 0.006939 0.000000 
-0.681483 -0.079323 0.000000 
-0.032304 1.885509 0.000000 
-0.128010 1.921659 0.000000 
-0.195732 1.988783 0.000000 
-0.243911 2.042697 0.000000 
-0.287859 2.090100 0.000000 
-0.335518 2.062405 0.000000 
-0.667608 -0.164704 0.000000 
-0.584906 -0.171472 0.000000 
-0.658169 -0.244713 0.000000 
-0.578442 -0.236842 0.000000 
-0.639050 -0.316155 0.000000 
-0.607982 -0.391672 0.000000 
-0.562541 -0.299542 0.000000 
-0.536184 -0.360565 0.000000 
-0.495978 -0.398527 0.000000 
-0.500680 -0.450921 0.000000 
-0.573051 -0.455374 0.000000 
-2.690892 1.658804 0.000000 
-2.684799 1.572791 0.000000 
-2.602920 1.571529 0.000000 
-2.574381 1.656522 0.000000 
-2.518122 1.591396 0.000000 
-2.424460 1.615294 0.000000 
-2.320006 1.606363 0.000000 
-2.229986 1.582745 0.000000 
-2.146342 1.541505 0.000000 
-1.455055 -0.120103 0.000000 
-1.387692 -0.039780 0.000000 
-1.339496 0.013548 0.000000 
-1.304977 0.042108 0.000000 
-1.531301 -0.054610 0.000000 
-1.604385 -0.010498 0.000000 
-1.592423 0.090183 0.000000 
-1.608296 0.214146 0.000000 
-1.827918 0.412591 0.000000 
0.477873 0.181394 0.000000 
0.477147 0.216293 0.000000 
0.465631 0.250533 0.000000 
-0.587742 1.694742 0.000000 
-0.593403 1.718846 0.000000 
-0.604579 1.731502 0.000000 
-0.619289 1.737188 0.000000 
-0.639577 1.735015 0.000000 
-0.665912 1.736631 0.000000 
-0.697937 1.743617 0.000000 
-0.595692 1.641254 0.000000 
-0.726123 1.758429 0.000000 
-0.757398 1.769000 0.000000 
-0.794522 1.766424 0.000000 
-0.841416 1.763846 0.000000 
-0.894922 1.765207 0.000000 
-0.956071 1.773623 0.000000 
-1.020951 1.792544 0.000000 
-1.077937 1.820179 0.000000 
-1.120258 1.848907 0.000000 
-1.171769 1.824647 0.000000 
0.332207 0.378038 0.000000 
0.333662 0.336303 0.000000 
0.321472 0.406655 0.000000 
0.302407 0.433467 0.000000 
0.214022 0.448129 0.000000 
0.194081 0.509154 0.000000 
0.186716 0.564667 0.000000 
0.189303 0.617439 0.000000 
0.360023 0.296621 0.000000 
0.405131 0.271488 0.000000 
0.201671 0.666685 0.000000 
0.218038 0.716946 0.000000 
0.236652 0.765879 0.000000 
0.256885 0.807813 0.000000 
0.278373 0.836307 0.000000 
0.284019 0.869705 0.000000 
0.276718 0.916453 0.000000 
0.278735 0.973266 0.000000 
0.296322 1.023533 0.000000 
-1.507867 1.776405 0.000000 
-1.548116 1.751762 0.000000 
-1.598023 1.724383 0.000000 
-1.467251 1.791178 0.000000 
-1.422160 1.798462 0.000000 
-1.373311 1.805178 0.000000 
-1.322903 1.812955 0.000000 
-1.275577 1.822201 0.000000 
-1.225048 1.820801 0.000000 
-1.662214 1.700714 0.000000 
-1.732600 1.680774 0.000000 
-1.794687 1.666398 0.000000 
-1.841773 1.637211 0.000000 
-2.078405 0.704484 0.000000 
-2.079214 0.783073 0.000000 
-2.097651 0.626884 0.000000 
-2.129318 0.555145 0.000000 
-2.096743 0.863635 0.000000 
-2.169699 0.499801 0.000000 
-1.991686 0.426801 0.000000 
-1.642187 0.352357 0.000000 
-1.989898 0.259576 0.000000 
-2.064526 0.187764 0.000000 
-1.914688 0.333111 0.000000 
-2.037969 1.116187 0.000000 
-2.021377 1.000503 0.000000 
-2.055796 1.245349 0.000000 
-2.102728 1.348002 0.000000 
-2.047875 1.490305 0.000000 
0.428030 0.237035 0.000000 
0.375625 0.215800 0.000000 
0.313454 0.228900 0.000000 
0.290352 0.374935 0.000000 
0.238487 1.085853 0.000000 
0.440631 0.198928 0.000000 
0.396678 0.159151 0.000000 
0.460488 0.133230 0.000000 
0.523747 1.309343 0.000000 
-2.262588 0.272597 0.000000 
-2.220468 0.328625 0.000000 
-2.218579 0.219086 0.000000 
-2.146376 0.270936 0.000000 
-2.206503 0.154016 0.000000 
0.473879 1.270731 0.000000 
0.446488 1.218399 0.000000 
0.440978 1.174380 0.000000 
0.409581 1.166525 0.000000 
0.629179 1.995421 0.000000 
0.593839 1.962947 0.000000 
0.550362 1.918743 0.000000 
0.483841 1.878321 0.000000 
0.202470 1.019488 0.000000 
0.241245 0.871713 0.000000 
0.205152 0.846912 0.000000 
0.175878 0.798772 0.000000 
0.153326 0.740265 0.000000 
0.132079 0.679815 0.000000 
0.113278 0.615359 0.000000 
0.106000 0.547036 0.000000 
0.109640 0.477840 0.000000 
0.121648 0.407162 0.000000 
0.032483 0.317547 0.000000 
0.246820 0.400226 0.000000 
0.099619 0.265913 0.000000 
0.373127 1.151643 0.000000 
-0.307911 2.014783 0.000000 
-0.360136 1.996313 0.000000 
-0.343252 1.941968 0.000000 
-0.270247 1.950112 0.000000 
0.168337 0.262431 0.000000 
0.242346 0.252094 0.000000 
0.270369 0.321131 0.000000 
0.505525 1.377104 0.000000 
-0.689828 0.204359 0.000000 
-0.729540 0.261763 0.000000 
-0.746154 0.336235 0.000000 
-0.657668 0.352800 0.000000 
-0.661195 0.268513 0.000000 
-0.924642 0.505475 0.000000 
-1.137284 1.768839 0.000000 
-1.072920 1.724245 0.000000 
-1.248127 1.781136 0.000000 
-1.304069 1.764813 0.000000 
-1.360197 1.757153 0.000000 
-1.411221 1.753014 0.000000 
-1.453165 1.749784 0.000000 
-1.486003 1.732322 0.000000 
-1.510814 1.688853 0.000000 
-1.558800 1.644184 0.000000 
-0.995058 1.697492 0.000000 
-0.919611 1.687015 0.000000 
-0.852227 1.693947 0.000000 
-0.796966 1.710466 0.000000 
-0.752732 1.729635 0.000000 
-1.635591 1.616851 0.000000 
-1.992480 0.891552 0.000000 
-1.965104 0.781773 0.000000 
-1.974377 0.678440 0.000000 
-2.014368 0.584818 0.000000 
-2.065453 0.501632 0.000000 
-2.071492 0.348565 0.000000 
-2.131272 0.432102 0.000000 
-1.712039 1.603528 0.000000 
-1.781280 1.603478 0.000000 
-1.884796 1.573421 0.000000 
0.516332 1.793084 0.000000 
0.538779 1.721956 0.000000 
0.517174 1.451489 0.000000 
0.552532 1.513426 0.000000 
0.576896 1.555352 0.000000 
0.583356 1.592378 0.000000 
0.576083 1.629383 0.000000 
0.562288 1.671743 0.000000 