# vtk DataFile Version 3.0 
vtk output 
ASCII 
DATASET UNSTRUCTURED_GRID 
POINTS 899 float 
-3.648847 2.248135 0.000000 
-3.619410 2.207583 0.000000 
-3.578536 2.171989 0.000000 
-3.540028 2.136338 0.000000 
-3.511690 2.104142 0.000000 
-3.481362 2.074284 0.000000 
-3.451569 2.033611 0.000000 
0.772356 2.150649 0.000000 
0.774615 2.124528 0.000000 
0.769962 2.095774 0.000000 
-3.399514 2.003335 0.000000 
0.413960 -0.641507 0.000000 
0.455573 -0.637205 0.000000 
-1.762619 -0.541403 0.000000 
-1.783389 -0.506007 0.000000 
-1.714437 -0.477217 0.000000 
0.732567 2.144974 0.000000 
0.698438 2.131138 0.000000 
0.491831 -0.623002 0.000000 
0.519501 -0.592597 0.000000 
0.530556 -0.552150 0.000000 
0.532354 -0.506346 0.000000 
0.531774 -0.455839 0.000000 
-3.460923 1.941602 0.000000 
0.663989 2.109191 0.000000 
0.631675 2.081797 0.000000 
0.601833 2.057741 0.000000 
0.569607 2.034484 0.000000 
0.534059 2.012406 0.000000 
0.492599 1.991266 0.000000 
0.444403 1.972601 0.000000 
0.762807 2.054800 0.000000 
-1.708694 -0.442835 0.000000 
-1.726386 -0.402571 0.000000 
-1.761257 -0.378551 0.000000 
-1.812853 -0.370702 0.000000 
-0.690422 -0.623037 0.000000 
-0.624256 -0.640965 0.000000 
-0.561079 -0.649147 0.000000 
-0.500739 -0.650602 0.000000 
-0.445387 -0.650665 0.000000 
0.532260 -0.396756 0.000000 
0.536647 -0.327422 0.000000 
-1.881389 -0.358201 0.000000 
-0.389303 -0.648390 0.000000 
-0.340338 -0.633105 0.000000 
-0.344339 -0.578970 0.000000 
-0.358558 -0.526430 0.000000 
-0.381750 -0.485519 0.000000 
-0.406193 -0.451344 0.000000 
-0.417316 -0.419846 0.000000 
-0.428320 -0.385589 0.000000 
-0.436973 -0.341325 0.000000 
-0.444212 -0.285782 0.000000 
-0.452662 -0.226924 0.000000 
-0.468602 -0.170025 0.000000 
0.553166 -0.262707 0.000000 
0.573193 -0.205036 0.000000 
0.574450 -0.153296 0.000000 
0.561087 -0.102976 0.000000 
0.550432 -0.047653 0.000000 
0.748903 2.001482 0.000000 
0.730940 1.944989 0.000000 
0.715868 1.898830 0.000000 
0.699446 1.862702 0.000000 
0.684888 1.821713 0.000000 
0.675900 1.775508 0.000000 
0.669871 1.725949 0.000000 
0.664455 1.678091 0.000000 
0.668163 1.631672 0.000000 
0.672091 1.581839 0.000000 
0.674558 1.533815 0.000000 
0.673045 1.483736 0.000000 
0.386491 1.962921 0.000000 
0.664855 1.424997 0.000000 
0.652298 1.366919 0.000000 
0.638456 1.313269 0.000000 
0.623121 1.263759 0.000000 
0.616008 1.220732 0.000000 
0.600787 1.185790 0.000000 
0.571289 1.156341 0.000000 
0.539016 1.125180 0.000000 
0.513857 1.096281 0.000000 
0.493343 1.070045 0.000000 
0.469109 1.052233 0.000000 
0.444920 1.035789 0.000000 
0.415324 1.014823 0.000000 
0.383540 0.990070 0.000000 
0.356179 0.960738 0.000000 
0.343879 0.921838 0.000000 
0.337476 0.876318 0.000000 
0.332404 0.831032 0.000000 
0.328512 0.791342 0.000000 
0.319594 0.755262 0.000000 
0.304149 0.721851 0.000000 
0.290502 0.681460 0.000000 
0.275896 0.633598 0.000000 
0.261905 0.591629 0.000000 
0.250150 0.558034 0.000000 
0.250896 0.520229 0.000000 
0.259587 0.477625 0.000000 
0.284617 0.434852 0.000000 
0.315237 0.405191 0.000000 
0.340022 0.385754 0.000000 
0.354380 0.359906 0.000000 
0.368685 0.332763 0.000000 
0.385568 0.306367 0.000000 
0.415372 0.281570 0.000000 
0.447119 0.249857 0.000000 
0.477633 0.221941 0.000000 
0.503078 0.194004 0.000000 
0.518876 0.155950 0.000000 
0.527127 0.119981 0.000000 
0.534187 0.075436 0.000000 
0.543185 0.014656 0.000000 
0.322519 1.951865 0.000000 
0.263849 1.938749 0.000000 
0.208223 1.933329 0.000000 
0.150441 1.929500 0.000000 
-0.687392 -0.549970 0.000000 
-3.327058 1.977103 0.000000 
-3.276080 1.930681 0.000000 
-3.224941 1.897095 0.000000 
-3.181728 1.867936 0.000000 
-3.135074 1.831006 0.000000 
-3.078123 1.806713 0.000000 
-1.944260 -0.313323 0.000000 
0.083204 1.934656 0.000000 
0.005786 1.929303 0.000000 
-0.071812 1.938542 0.000000 
-0.135705 1.968083 0.000000 
-0.182391 2.009689 0.000000 
-1.999041 -0.242355 0.000000 
-1.843230 -0.516863 0.000000 
-0.491126 -0.106065 0.000000 
-0.512312 -0.032822 0.000000 
-0.526535 0.030011 0.000000 
-0.527935 0.092132 0.000000 
-0.524207 0.159302 0.000000 
-0.505864 0.216434 0.000000 
-0.468875 0.265646 0.000000 
-0.410369 0.294891 0.000000 
-0.354013 0.316008 0.000000 
-0.301050 0.325954 0.000000 
-0.255730 0.326726 0.000000 
-0.695595 -0.471675 0.000000 
-0.726457 -0.394793 0.000000 
-0.747352 -0.325338 0.000000 
-3.396487 1.919968 0.000000 
-3.344056 1.840580 0.000000 
-3.294256 1.797179 0.000000 
-3.248246 1.758855 0.000000 
-3.196818 1.719501 0.000000 
-3.159669 1.668191 0.000000 
-3.113281 1.621486 0.000000 
-3.056061 1.601923 0.000000 
-2.996684 1.579298 0.000000 
-2.933161 1.549682 0.000000 
-2.879064 1.513539 0.000000 
-2.813006 1.488754 0.000000 
-2.751664 1.465703 0.000000 
-2.686782 1.436380 0.000000 
-1.922020 -0.514057 0.000000 
-1.999705 -0.515555 0.000000 
-2.060018 -0.493952 0.000000 
-2.032615 -0.158964 0.000000 
-2.048550 -0.073242 0.000000 
-2.029059 -0.007349 0.000000 
-2.105228 -0.436893 0.000000 
-2.154373 -0.369299 0.000000 
-2.203584 -0.314675 0.000000 
-2.237020 -0.253240 0.000000 
-2.250593 -0.187947 0.000000 
-2.270119 -0.116163 0.000000 
-2.297898 -0.045852 0.000000 
-2.327118 0.015727 0.000000 
-2.346747 0.069697 0.000000 
-2.362840 0.122807 0.000000 
-2.374561 0.173851 0.000000 
-2.373128 0.225827 0.000000 
-2.334174 0.292417 0.000000 
-2.331842 0.333035 0.000000 
-2.284565 0.341794 0.000000 
-0.236368 2.059224 0.000000 
-0.299146 2.103051 0.000000 
-0.346614 2.122976 0.000000 
-0.382877 2.086473 0.000000 
-0.412447 2.057424 0.000000 
-0.433989 2.017136 0.000000 
-0.446472 1.974170 0.000000 
-0.451628 1.934851 0.000000 
-0.451047 1.896389 0.000000 
-0.449242 1.860385 0.000000 
-0.453345 1.828496 0.000000 
-0.460251 1.800803 0.000000 
-0.470304 1.772017 0.000000 
-0.475290 1.742527 0.000000 
-0.478341 1.712742 0.000000 
-0.479442 1.676006 0.000000 
-2.609147 1.422591 0.000000 
-2.517189 1.417093 0.000000 
-2.434013 1.417429 0.000000 
-2.352624 1.407398 0.000000 
-2.274410 1.388027 0.000000 
-2.204499 1.353378 0.000000 
-2.180326 1.284496 0.000000 
-2.178559 1.195959 0.000000 
-2.168273 1.105930 0.000000 
-2.159086 1.007866 0.000000 
-2.144575 0.918708 0.000000 
-2.163040 0.843491 0.000000 
-2.183612 0.769399 0.000000 
-2.172907 0.704841 0.000000 
-2.161614 0.642086 0.000000 
-2.169833 0.581974 0.000000 
-2.188987 0.520221 0.000000 
-2.218663 0.468975 0.000000 
-2.229021 0.413102 0.000000 
-2.997130 1.789916 0.000000 
-3.021908 1.691779 0.000000 
-2.902046 1.758409 0.000000 
-0.770600 -0.242744 0.000000 
-0.790096 -0.151085 0.000000 
-0.811857 -0.070378 0.000000 
-0.835807 0.008186 0.000000 
-0.859157 0.078314 0.000000 
-0.881226 0.138366 0.000000 
-0.903169 0.197716 0.000000 
-0.928196 0.261760 0.000000 
-2.785442 1.725856 0.000000 
-2.944278 1.665114 0.000000 
-2.855014 1.627968 0.000000 
-2.796189 1.567888 0.000000 
-2.651235 1.711110 0.000000 
-2.517962 1.700763 0.000000 
-2.394240 1.691600 0.000000 
-2.275192 1.683603 0.000000 
-2.180847 1.659042 0.000000 
-2.099904 1.632563 0.000000 
-2.018420 1.601323 0.000000 
-1.945469 1.605621 0.000000 
-1.885190 1.638961 0.000000 
-1.829736 1.659529 0.000000 
-1.760875 1.684761 0.000000 
-1.680504 1.713185 0.000000 
-1.617798 1.731502 0.000000 
-1.570169 1.746026 0.000000 
-1.527149 1.760216 0.000000 
-1.482581 1.772345 0.000000 
-1.433927 1.778885 0.000000 
-1.386311 1.786800 0.000000 
-1.337319 1.795530 0.000000 
-1.286363 1.802610 0.000000 
-1.235962 1.803328 0.000000 
-1.188452 1.808141 0.000000 
-1.140860 1.817592 0.000000 
-1.091558 1.816901 0.000000 
-1.038962 1.805882 0.000000 
-0.982519 1.786884 0.000000 
-0.922315 1.770142 0.000000 
-0.869867 1.759817 0.000000 
-0.827747 1.753328 0.000000 
-0.785371 1.748416 0.000000 
-0.748025 1.738679 0.000000 
-0.712781 1.728412 0.000000 
-0.681690 1.714480 0.000000 
-0.657198 1.703346 0.000000 
-0.633895 1.696682 0.000000 
-0.612002 1.692227 0.000000 
-0.594184 1.685014 0.000000 
-0.577381 1.675564 0.000000 
-0.560109 1.660281 0.000000 
-0.540091 1.627826 0.000000 
-1.243914 -0.011019 0.000000 
-1.232782 0.002698 0.000000 
-1.257376 -0.025373 0.000000 
-1.224378 0.021397 0.000000 
-1.271472 -0.044719 0.000000 
-1.215702 0.043394 0.000000 
-1.204660 0.069451 0.000000 
-1.290143 -0.072460 0.000000 
-1.314447 -0.117500 0.000000 
-1.190204 0.099757 0.000000 
-1.318041 -0.170855 0.000000 
-1.171655 0.133913 0.000000 
-1.149359 0.170228 0.000000 
-1.123094 0.208476 0.000000 
-1.284246 -0.220834 0.000000 
-1.239750 -0.271560 0.000000 
-1.083297 0.252467 0.000000 
-1.028190 0.284139 0.000000 
-1.181630 -0.313917 0.000000 
-1.112789 -0.345344 0.000000 
-1.040643 -0.357515 0.000000 
-0.978118 -0.360601 0.000000 
-0.927392 -0.373627 0.000000 
-0.889718 -0.412761 0.000000 
-0.873564 -0.469312 0.000000 
-0.920771 -0.501506 0.000000 
-0.935346 -0.434237 0.000000 
-0.991249 -0.511081 0.000000 
-1.088918 -0.508353 0.000000 
-1.067426 -0.428701 0.000000 
-1.189474 -0.500790 0.000000 
-1.147229 -0.416034 0.000000 
-1.266509 -0.477500 0.000000 
-1.219913 -0.389857 0.000000 
-1.335307 -0.441673 0.000000 
-1.284456 -0.351858 0.000000 
-1.402357 -0.397769 0.000000 
-1.341444 -0.304057 0.000000 
-1.466758 -0.345094 0.000000 
-1.539152 -0.284295 0.000000 
-1.393011 -0.246126 0.000000 
-1.612839 -0.214023 0.000000 
-1.665320 -0.156445 0.000000 
-1.691220 -0.091619 0.000000 
-1.704696 -0.006125 0.000000 
-1.850073 0.160744 0.000000 
-1.911042 0.104919 0.000000 
-1.969645 0.048083 0.000000 
-1.726970 0.100286 0.000000 
-0.222881 0.308116 0.000000 
-0.195707 0.280532 0.000000 
-0.164205 0.243585 0.000000 
-0.127520 0.210887 0.000000 
-0.095686 0.181396 0.000000 
-0.059027 0.152918 0.000000 
-0.018954 0.122934 0.000000 
0.030296 0.091663 0.000000 
0.086536 0.071138 0.000000 
0.141893 0.052406 0.000000 
0.202102 0.023126 0.000000 
0.263408 -0.016790 0.000000 
0.311661 -0.066777 0.000000 
0.333954 -0.126400 0.000000 
0.338621 -0.186850 0.000000 
0.341530 -0.240789 0.000000 
0.353165 -0.290977 0.000000 
0.365710 -0.349400 0.000000 
0.363543 -0.418929 0.000000 
[...]
POINT_DATA 899 
VECTORS X_GC float 
-3.648847 2.248135 0.000000 
-3.619410 2.207583 0.000000 
-3.578536 2.171989 0.000000 
-3.540028 2.136338 0.000000 
-3.511690 2.104142 0.000000 
-3.481362 2.074284 0.000000 
-3.451569 2.033611 0.000000 
0.772356 2.150649 0.000000 
0.774615 2.124528 0.000000 
0.769962 2.095774 0.000000 
-3.399514 2.003335 0.000000 
0.413960 -0.641507 0.000000 
0.455573 -0.637205 0.000000 
-1.762619 -0.541403 0.000000 
-1.783389 -0.506007 0.000000 
-1.714437 -0.477217 0.000000 
0.732567 2.144974 0.000000 
0.698438 2.131138 0.000000 
0.491831 -0.623002 0.000000 
0.519501 -0.592597 0.000000 
0.530556 -0.552150 0.000000 
0.532354 -0.506346 0.000000 
0.531774 -0.455839 0.000000 
-3.460923 1.941602 0.000000 
0.663989 2.109191 0.000000 
0.631675 2.081797 0.000000 
0.601833 2.057741 0.000000 
0.569607 2.034484 0.000000 
0.534059 2.012406 0.000000 
0.492599 1.991266 0.000000 
0.444403 1.972601 0.000000 
0.762807 2.054800 0.000000 
-1.708694 -0.442835 0.000000 
-1.726386 -0.402571 0.000000 
-1.761257 -0.378551 0.000000 
-1.812853 -0.370702 0.000000 
-0.690422 -0.623037 0.000000 
-0.624256 -0.640965 0.000000 
-0.561079 -0.649147 0.000000 
-0.500739 -0.650602 0.000000 
-0.445387 -0.650665 0.000000 
0.532260 -0.396756 0.000000 
0.536647 -0.327422 0.000000 
-1.881389 -0.358201 0.000000 
-0.389303 -0.648390 0.000000 
-0.340338 -0.633105 0.000000 
-0.344339 -0.578970 0.000000 
-0.358558 -0.526430 0.000000 
-0.381750 -0.485519 0.000000 
-0.406193 -0.451344 0.000000 
-0.417316 -0.419846 0.000000 
-0.428320 -0.385589 0.000000 
-0.436973 -0.341325 0.000000 
-0.444212 -0.285782 0.000000 
-0.452662 -0.226924 0.000000 
-0.468602 -0.170025 0.000000 
0.553166 -0.262707 0.000000 
0.573193 -0.205036 0.000000 
0.574450 -0.153296 0.000000 
0.561087 -0.102976 0.000000 
0.550432 -0.047653 0.000000 
0.748903 2.001482 0.000000 
0.730940 1.944989 0.000000 
0.715868 1.898830 0.000000 
0.699446 1.862702 0.000000 
0.684888 1.821713 0.000000 
0.675900 1.775508 0.000000 
0.669871 1.725949 0.000000 
0.664455 1.678091 0.000000 
0.668163 1.631672 0.000000 
0.672091 1.581839 0.000000 
0.674558 1.533815 0.000000 
0.673045 1.483736 0.000000 
0.386491 1.962921 0.000000 
0.664855 1.424997 0.000000 
0.652298 1.366919 0.000000 
0.638456 1.313269 0.000000 
0.623121 1.263759 0.000000 
0.616008 1.220732 0.000000 
0.600787 1.185790 0.000000 
0.571289 1.156341 0.000000 
0.539016 1.125180 0.000000 
0.513857 1.096281 0.000000 
0.493343 1.070045 0.000000 
0.469109 1.052233 0.000000 
0.444920 1.035789 0.000000 
0.415324 1.014823 0.000000 
0.383540 0.990070 0.000000 
0.356179 0.960738 0.000000 
0.343879 0.921838 0.000000 
0.337476 0.876318 0.000000 
0.332404 0.831032 0.000000 
0.328512 0.791342 0.000000 
0.319594 0.755262 0.000000 
0.304149 0.721851 0.000000 
0.290502 0.681460 0.000000 
0.275896 0.633598 0.000000 
0.261905 0.591629 0.000000 
0.250150 0.558034 0.000000 
0.250896 0.520229 0.000000 
0.259587 0.477625 0.000000 
0.284617 0.434852 0.000000 
0.315237 0.405191 0.000000 
0.340022 0.385754 0.000000 
0.354380 0.359906 0.000000 
0.368685 0.332763 0.000000 
0.385568 0.306367 0.000000 
0.415372 0.281570 0.000000 
0.447119 0.249857 0.000000 
0.477633 0.221941 0.000000 
0.503078 0.194004 0.000000 
0.518876 0.155950 0.000000 
0.527127 0.119981 0.000000 
0.534187 0.075436 0.000000 
0.543185 0.014656 0.000000 
0.322519 1.951865 0.000000 
0.263849 1.938749 0.000000 
0.208223 1.933329 0.000000 
0.150441 1.929500 0.000000 
-0.687392 -0.549970 0.000000 
-3.327058 1.977103 0.000000 
-3.276080 1.930681 0.000000 
-3.224941 1.897095 0.000000 
-3.181728 1.867936 0.000000 
-3.135074 1.831006 0.000000 
-3.078123 1.806713 0.000000 
-1.944260 -0.313323 0.000000 
0.083204 1.934656 0.000000 
0.005786 1.929303 0.000000 
-0.071812 1.938542 0.000000 
-0.135705 1.968083 0.000000 
-0.182391 2.009689 0.000000 
-1.999041 -0.242355 0.000000 
-1.843230 -0.516863 0.000000 
-0.491126 -0.106065 0.000000 
-0.512312 -0.032822 0.000000 
-0.526535 0.030011 0.000000 
-0.527935 0.092132 0.000000 
-0.524207 0.159302 0.000000 
-0.505864 0.216434 0.000000 
-0.468875 0.265646 0.000000 
-0.410369 0.294891 0.000000 
-0.354013 0.316008 0.000000 
-0.301050 0.325954 0.000000 
-0.255730 0.326726 0.000000 
-0.695595 -0.471675 0.000000 
-0.726457 -0.394793 0.000000 
-0.747352 -0.325338 0.000000 
-3.396487 1.919968 0.000000 
-3.344056 1.840580 0.000000 
-3.294256 1.797179 0.000000 
-3.248246 1.758855 0.000000 
-3.196818 1.719501 0.000000 
-3.159669 1.668191 0.000000 
-3.113281 1.621486 0.000000 
-3.056061 1.601923 0.000000 
-2.996684 1.579298 0.000000 
-2.933161 1.549682 0.000000 
-2.879064 1.513539 0.000000 
-2.813006 1.488754 0.000000 
-2.751664 1.465703 0.000000 
-2.686782 1.436380 0.000000 
-1.922020 -0.514057 0.000000 
-1.999705 -0.515555 0.000000 
-2.060018 -0.493952 0.000000 
-2.032615 -0.158964 0.000000 
-2.048550 -0.073242 0.000000 
-2.029059 -0.007349 0.000000 
-2.105228 -0.436893 0.000000 
-2.154373 -0.369299 0.000000 
-2.203584 -0.314675 0.000000 
-2.237020 -0.253240 0.000000 
-2.250593 -0.187947 0.000000 
-2.270119 -0.116163 0.000000 
-2.297898 -0.045852 0.000000 
-2.327118 0.015727 0.000000 
-2.346747 0.069697 0.000000 
-2.362840 0.122807 0.000000 
-2.374561 0.173851 0.000000 
-2.373128 0.225827 0.000000 
-2.334174 0.292417 0.000000 
-2.331842 0.333035 0.000000 
-2.284565 0.341794 0.000000 
-0.236368 2.059224 0.000000 
-0.299146 2.103051 0.000000 
-0.346614 2.122976 0.000000 
-0.382877 2.086473 0.000000 
-0.412447 2.057424 0.000000 
-0.433989 2.017136 0.000000 
-0.446472 1.974170 0.000000 
-0.451628 1.934851 0.000000 
-0.451047 1.896389 0.000000 
-0.449242 1.860385 0.000000 
-0.453345 1.828496 0.000000 
-0.460251 1.800803 0.000000 
-0.470304 1.772017 0.000000 
-0.475290 1.742527 0.000000 
-0.478341 1.712742 0.000000 
-0.479442 1.676006 0.000000 
-2.609147 1.422591 0.000000 
-2.517189 1.417093 0.000000 
-2.434013 1.417429 0.000000 
-2.352624 1.407398 0.000000 
-2.274410 1.388027 0.000000 
-2.204499 1.353378 0.000000 
-2.180326 1.284496 0.000000 
-2.178559 1.195959 0.000000 
-2.168273 1.105930 0.000000 
-2.159086 1.007866 0.000000 
-2.144575 0.918708 0.000000 
-2.163040 0.843491 0.000000 
-2.183612 0.769399 0.000000 
-2.172907 0.704841 0.000000 
-2.161614 0.642086 0.000000 
-2.169833 0.581974 0.000000 
-2.188987 0.520221 0.000000 
-2.218663 0.468975 0.000000 
-2.229021 0.413102 0.000000 
-2.997130 1.789916 0.000000 
-3.021908 1.691779 0.000000 
-2.902046 1.758409 0.000000 
-0.770600 -0.242744 0.000000 
-0.790096 -0.151085 0.000000 
-0.811857 -0.070378 0.000000 
-0.835807 0.008186 0.000000 
-0.859157 0.078314 0.000000 
-0.881226 0.138366 0.000000 
-0.903169 0.197716 0.000000 
-0.928196 0.261760 0.000000 
-2.785442 1.725856 0.000000 
-2.944278 1.665114 0.000000 
-2.855014 1.627968 0.000000 
-2.796189 1.567888 0.000000 
-2.651235 1.711110 0.000000 
-2.517962 1.700763 0.000000 
-2.394240 1.691600 0.000000 
-2.275192 1.683603 0.000000 
-2.180847 1.659042 0.000000 
-2.099904 1.632563 0.000000 
-2.018420 1.601323 0.000000 
-1.945469 1.605621 0.000000 
-1.885190 1.638961 0.000000 
-1.829736 1.659529 0.000000 
-1.760875 1.684761 0.000000 
-1.680504 1.713185 0.000000 
-1.617798 1.731502 0.000000 
-1.570169 1.746026 0.000000 
-1.527149 1.760216 0.000000 
-1.482581 1.772345 0.000000 
-1.433927 1.778885 0.000000 
-1.386311 1.786800 0.000000 
-1.337319 1.795530 0.000000 
-1.286363 1.802610 0.000000 
-1.235962 1.803328 0.000000 
-1.188452 1.808141 0.000000 
-1.140860 1.817592 0.000000 
-1.091558 1.816901 0.000000 
-1.038962 1.805882 0.000000 
-0.982519 1.786884 0.000000 
-0.922315 1.770142 0.000000 
-0.869867 1.759817 0.000000 
-0.827747 1.753328 0.000000 
-0.785371 1.748416 0.000000 
-0.748025 1.738679 0.000000 
-0.712781 1.728412 0.000000 
-0.681690 1.714480 0.000000 
-0.657198 1.703346 0.000000 
-0.633895 1.696682 0.000000 
-0.612002 1.692227 0.000000 
-0.594184 1.685014 0.000000 
-0.577381 1.675564 0.000000 
-0.560109 1.660281 0.000000 
-0.540091 1.627826 0.000000 
-1.243914 -0.011019 0.000000 
-1.232782 0.002698 0.000000 
-1.257376 -0.025373 0.000000 
-1.224378 0.021397 0.000000 
-1.271472 -0.044719 0.000000 
-1.215702 0.043394 0.000000 
-1.204660 0.069451 0.000000 
-1.290143 -0.072460 0.000000 
-1.314447 -0.117500 0.000000 
-1.190204 0.099757 0.000000 
-1.318041 -0.170855 0.000000 
-1.171655 0.133913 0.000000 
-1.149359 0.170228 0.000000 
-1.123094 0.208476 0.000000 
-1.284246 -0.220834 0.000000 
-1.239750 -0.271560 0.000000 
-1.083297 0.252467 0.000000 
-1.028190 0.284139 0.000000 
-1.181630 -0.313917 0.000000 
-1.112789 -0.345344 0.000000 
-1.040643 -0.357515 0.000000 
-0.978118 -0.360601 0.000000 
-0.927392 -0.373627 0.000000 
-0.889718 -0.412761 0.000000 
-0.873564 -0.469312 0.000000 
-0.920771 -0.501506 0.000000 
-0.935346 -0.434237 0.000000 
-0.991249 -0.511081 0.000000 
-1.088918 -0.508353 0.000000 
-1.067426 -0.428701 0.000000 
-1.189474 -0.500790 0.000000 
-1.147229 -0.416034 0.000000 
-1.266509 -0.477500 0.000000 
-1.219913 -0.389857 0.000000 
-1.335307 -0.441673 0.000000 
-1.284456 -0.351858 0.000000 
-1.402357 -0.397769 0.000000 
-1.341444 -0.304057 0.000000 
-1.466758 -0.345094 0.000000 
-1.539152 -0.284295 0.000000 
-1.393011 -0.246126 0.000000 
-1.612839 -0.214023 0.000000 
-1.665320 -0.156445 0.000000 
-1.691220 -0.091619 0.000000 
-1.704696 -0.006125 0.000000 
-1.850073 0.160744 0.000000 
-1.911042 0.104919 0.000000 
-1.969645 0.048083 0.000000 
-1.726970 0.100286 0.000000 
-0.222881 0.308116 0.000000 
-0.195707 0.280532 0.000000 
-0.164205 0.243585 0.000000 
-0.127520 0.210887 0.000000 
-0.095686 0.181396 0.000000 
-0.059027 0.152918 0.000000 
-0.018954 0.122934 0.000000 
0.030296 0.091663 0.000000 
0.086536 0.071138 0.000000 
0.141893 0.052406 0.000000 
0.202102 0.023126 0.000000 
0.263408 -0.016790 0.000000 
0.311661 -0.066777 0.000000 
0.333954 -0.126400 0.000000 
0.338621 -0.186850 0.000000 
0.341530 -0.240789 0.000000 
0.353165 -0.290977 0.000000 
0.365710 -0.349400 0.000000 
0.363543 -0.418929 0.000000 
0.357353 -0.481043 0.000000 
0.351188 -0.531786 0.000000 
0.363842 -0.578814 0.000000 
-1.737069 -0.445465 0.000000 
-0.199590 0.360733 0.000000 
-0.156305 0.330817 0.000000 
-0.462327 1.596773 0.000000 
0.741313 2.119347 0.000000 
0.482415 -0.589585 0.000000 
0.446104 -0.597481 0.000000 
0.403556 -0.603135 0.000000 
-0.104001 0.302752 0.000000 
-0.514998 1.528827 0.000000 
-0.059937 0.268347 0.000000 
0.738519 2.094082 0.000000 
0.714572 2.106382 0.000000 
-0.249752 0.387556 0.000000 
-0.036232 0.224549 0.000000 
0.000772 0.196717 0.000000 
0.035161 0.171072 0.000000 
-1.776537 -0.444906 0.000000 
-1.836238 -0.440722 0.000000 
-0.309416 0.401656 0.000000 
-0.378944 0.399392 0.000000 
-2.292732 0.278980 0.000000 
-2.315166 0.228989 0.000000 
-2.314418 0.181433 0.000000 
-2.293418 0.135046 0.000000 
-2.279687 0.085167 0.000000 
-2.253462 0.037902 0.000000 
0.075120 0.143329 0.000000 
0.131113 0.130721 0.000000 
-0.977004 0.332705 0.000000 
-0.860050 0.322539 0.000000 
-1.912142 -0.432665 0.000000 
-1.989966 -0.441446 0.000000 
-2.023752 -0.373904 0.000000 
-2.082175 -0.302643 0.000000 
0.723889 2.062569 0.000000 
0.691466 2.081412 0.000000 
0.665980 2.048765 0.000000 
0.704783 2.021497 0.000000 
0.637970 2.010707 0.000000 
0.681732 1.974289 0.000000 
0.670916 1.928113 0.000000 
0.602858 1.979039 0.000000 
0.659584 1.887689 0.000000 
0.560783 1.952668 0.000000 
0.636111 1.851615 0.000000 
0.607495 1.801824 0.000000 
0.595324 1.738344 0.000000 
0.604052 1.673670 0.000000 
0.514160 1.923265 0.000000 
0.453857 1.895820 0.000000 
0.392525 1.893841 0.000000 
0.334098 1.892313 0.000000 
0.278675 1.873559 0.000000 
0.217273 1.855484 0.000000 
0.149449 1.838128 0.000000 
0.614128 1.621395 0.000000 
0.621313 1.573815 0.000000 
0.624262 1.528936 0.000000 
-2.197766 -0.015287 0.000000 
-2.158682 -0.090211 0.000000 
-2.124695 0.044043 0.000000 
-2.150589 -0.256337 0.000000 
-2.141926 -0.178791 0.000000 
-0.393439 -0.595351 0.000000 
-0.412631 -0.551308 0.000000 
-0.436983 -0.510704 0.000000 
-0.445953 -0.467285 0.000000 
-0.458251 -0.434459 0.000000 
-0.479726 -0.399693 0.000000 
-0.496934 -0.350962 0.000000 
-0.509002 -0.295878 0.000000 
-0.517157 -0.241548 0.000000 
-0.545309 -0.190272 0.000000 
-0.442273 -0.592746 0.000000 
-0.496002 -0.583228 0.000000 
-0.557668 -0.585335 0.000000 
-0.618975 -0.569855 0.000000 
-0.334659 2.061163 0.000000 
-0.367985 2.031446 0.000000 
-0.385153 1.995020 0.000000 
-0.396797 1.961153 0.000000 
-0.406285 1.925631 0.000000 
-0.402558 1.886498 0.000000 
-0.406645 1.848054 0.000000 
-0.418378 1.815640 0.000000 
-0.428059 1.786515 0.000000 
-0.435849 1.756967 0.000000 
-0.442335 1.726932 0.000000 
-0.445406 1.693867 0.000000 
-0.444483 1.648151 0.000000 
0.619822 1.483204 0.000000 
-1.077870 0.379769 0.000000 
-1.149036 0.337810 0.000000 
-1.174735 0.262967 0.000000 
-1.192231 0.211244 0.000000 
-1.210811 0.169467 0.000000 
-1.228352 0.130128 0.000000 
-1.238869 0.092148 0.000000 
-1.244643 0.060651 0.000000 
-1.248534 0.035749 0.000000 
-1.252336 0.016462 0.000000 
-1.262323 0.003210 0.000000 
-1.280319 -0.007706 0.000000 
-0.451814 0.376732 0.000000 
-0.526928 0.333210 0.000000 
0.194935 0.113729 0.000000 
0.069048 1.824029 0.000000 
-0.574175 0.262526 0.000000 
-0.593607 0.181423 0.000000 
-1.764101 0.221108 0.000000 
-2.210991 0.339964 0.000000 
-0.825996 0.237262 0.000000 
-0.799223 0.166182 0.000000 
-0.760911 0.099749 0.000000 
0.605964 1.432252 0.000000 
0.587834 1.374892 0.000000 
0.576354 1.315043 0.000000 
0.574971 1.260035 0.000000 
0.580375 1.217010 0.000000 
0.545179 1.194626 0.000000 
0.509957 1.162364 0.000000 
0.484198 1.125961 0.000000 
0.468721 1.094807 0.000000 
0.449386 1.076276 0.000000 
0.422962 1.063611 0.000000 
0.391379 1.044460 0.000000 
0.357154 1.020396 0.000000 
0.323730 0.992024 0.000000 
-0.582151 -0.129405 0.000000 
0.265957 0.087299 0.000000 
0.333763 0.041170 0.000000 
0.378371 -0.025846 0.000000 
0.400918 -0.100241 0.000000 
0.401084 -0.163230 0.000000 
0.404345 -0.217330 0.000000 
0.432648 -0.268412 0.000000 
0.450030 -0.332854 0.000000 
0.529803 -0.179700 0.000000 
0.491947 -0.227838 0.000000 
0.453243 -0.177954 0.000000 
0.449550 -0.407178 0.000000 
0.498420 -0.133827 0.000000 
0.474171 -0.073885 0.000000 
0.457863 0.000688 0.000000 
0.462195 -0.465832 0.000000 
0.478704 -0.512168 0.000000 
0.483460 -0.553134 0.000000 
0.412910 -0.491473 0.000000 
0.398390 -0.530187 0.000000 
0.404290 -0.564474 0.000000 
0.442452 -0.559916 0.000000 
0.436659 -0.524751 0.000000 
-0.727378 0.025615 0.000000 
-0.616071 0.107634 0.000000 
-0.623548 0.033353 0.000000 
-0.605779 -0.047655 0.000000 
-0.706340 -0.060103 0.000000 
-0.681483 -0.146365 0.000000 
-0.032304 1.818468 0.000000 
-0.128010 1.854617 0.000000 
-0.195732 1.921741 0.000000 
-0.243911 1.975655 0.000000 
-0.287859 2.023059 0.000000 
-0.335518 1.995363 0.000000 
-0.667608 -0.231745 0.000000 
-0.584906 -0.238513 0.000000 
-0.658169 -0.311754 0.000000 
-0.578442 -0.303884 0.000000 
-0.639050 -0.383197 0.000000 
-0.607982 -0.458714 0.000000 
-0.562541 -0.366583 0.000000 
-0.536184 -0.427606 0.000000 
-0.495978 -0.465568 0.000000 
-0.500680 -0.517962 0.000000 
-0.573051 -0.522416 0.000000 
-2.690892 1.591762 0.000000 
-2.684799 1.505750 0.000000 
-2.602920 1.504488 0.000000 
-2.574381 1.589481 0.000000 
-2.518122 1.524355 0.000000 
-2.424460 1.548253 0.000000 
-2.320006 1.539322 0.000000 
-2.229986 1.515704 0.000000 
-2.146342 1.474464 0.000000 
-1.455055 -0.187145 0.000000 
-1.387692 -0.106821 0.000000 
-1.339496 -0.053493 0.000000 
-1.304977 -0.024933 0.000000 
-1.531301 -0.121652 0.000000 
-1.604385 -0.077539 0.000000 
-1.592423 0.023141 0.000000 
-1.608296 0.147104 0.000000 
-1.827918 0.345550 0.000000 
0.477873 0.114353 0.000000 
0.477147 0.149251 0.000000 
0.465631 0.183492 0.000000 
-0.587742 1.627701 0.000000 
-0.593403 1.651804 0.000000 
-0.604579 1.664460 0.000000 
-0.619289 1.670146 0.000000 
-0.639577 1.667973 0.000000 
-0.665912 1.669589 0.000000 
-0.697937 1.676576 0.000000 
-0.595692 1.574212 0.000000 
-0.726123 1.691387 0.000000 
-0.757398 1.701958 0.000000 
-0.794522 1.699383 0.000000 
-0.841416 1.696805 0.000000 
-0.894922 1.698166 0.000000 
-0.956071 1.706581 0.000000 
-1.020951 1.725503 0.000000 
-1.077937 1.753138 0.000000 
-1.120258 1.781866 0.000000 
-1.171769 1.757605 0.000000 
0.332207 0.310996 0.000000 
0.333662 0.269261 0.000000 
0.321472 0.339613 0.000000 
0.302407 0.366426 0.000000 
0.214022 0.381088 0.000000 
0.194081 0.442112 0.000000 
0.186716 0.497625 0.000000 
0.189303 0.550397 0.000000 
0.360023 0.229580 0.000000 
0.405131 0.204446 0.000000 
0.201671 0.599643 0.000000 
0.218038 0.649904 0.000000 
0.236652 0.698838 0.000000 
0.256885 0.740772 0.000000 
0.278373 0.769266 0.000000 
0.284019 0.802664 0.000000 
0.276718 0.849411 0.000000 
0.278735 0.906224 0.000000 
0.296322 0.956492 0.000000 
-1.507867 1.709363 0.000000 
-1.548116 1.684721 0.000000 
-1.598023 1.657341 0.000000 
-1.467251 1.724137 0.000000 
-1.422160 1.731420 0.000000 
-1.373311 1.738137 0.000000 
-1.322903 1.745913 0.000000 
-1.275577 1.755159 0.000000 
-1.225048 1.753760 0.000000 
-1.662214 1.633672 0.000000 
-1.732600 1.613732 0.000000 
-1.794687 1.599357 0.000000 
-1.841773 1.570170 0.000000 
-2.078405 0.637442 0.000000 
-2.079214 0.716032 0.000000 
-2.097651 0.559842 0.000000 
-2.129318 0.488103 0.000000 
-2.096743 0.796594 0.000000 
-2.169699 0.432760 0.000000 
-1.991686 0.359760 0.000000 
-1.642187 0.285316 0.000000 
-1.989898 0.192535 0.000000 
-2.064526 0.120722 0.000000 
-1.914688 0.266069 0.000000 
-2.037969 1.049146 0.000000 
-2.021377 0.933461 0.000000 
-2.055796 1.178308 0.000000 
-2.102728 1.280961 0.000000 
-2.047875 1.423263 0.000000 
0.428030 0.169994 0.000000 
0.375625 0.148758 0.000000 
0.313454 0.161859 0.000000 
0.290352 0.307894 0.000000 
0.238487 1.018811 0.000000 
0.440631 0.131886 0.000000 
0.396678 0.092109 0.000000 
0.460488 0.066189 0.000000 
0.523747 1.242301 0.000000 
-2.262588 0.205556 0.000000 
-2.220468 0.261583 0.000000 
-2.218579 0.152045 0.000000 
-2.146376 0.203895 0.000000 
-2.206503 0.086974 0.000000 
0.473879 1.203689 0.000000 
0.446488 1.151358 0.000000 
0.440978 1.107339 0.000000 
0.409581 1.099484 0.000000 
0.629179 1.928379 0.000000 
0.593839 1.895906 0.000000 
0.550362 1.851702 0.000000 
0.483841 1.811279 0.000000 
0.202470 0.952447 0.000000 
0.241245 0.804671 0.000000 
0.205152 0.779871 0.000000 
0.175878 0.731730 0.000000 
0.153326 0.673224 0.000000 
0.132079 0.612774 0.000000 
0.113278 0.548318 0.000000 
0.106000 0.479995 0.000000 
0.109640 0.410798 0.000000 
0.121648 0.340120 0.000000 
0.032483 0.250506 0.000000 
0.246820 0.333185 0.000000 
0.099619 0.198871 0.000000 
0.373127 1.084601 0.000000 
-0.307911 1.947741 0.000000 
-0.360136 1.929272 0.000000 
-0.343252 1.874926 0.000000 
-0.270247 1.883071 0.000000 
0.168337 0.195390 0.000000 
0.242346 0.185052 0.000000 
0.270369 0.254089 0.000000 
0.505525 1.310062 0.000000 
-0.689828 0.137318 0.000000 
-0.729540 0.194722 0.000000 
-0.746154 0.269194 0.000000 
-0.657668 0.285758 0.000000 
-0.661195 0.201471 0.000000 
-0.924642 0.438434 0.000000 
-1.137284 1.701797 0.000000 
-1.072920 1.657203 0.000000 
-1.248127 1.714094 0.000000 
-1.304069 1.697772 0.000000 
-1.360197 1.690112 0.000000 
-1.411221 1.685972 0.000000 
-1.453165 1.682742 0.000000 
-1.486003 1.665280 0.000000 
-1.510814 1.621811 0.000000 
-1.558800 1.577142 0.000000 
-0.995058 1.630450 0.000000 
-0.919611 1.619974 0.000000 
-0.852227 1.626906 0.000000 
-0.796966 1.643425 0.000000 
-0.752732 1.662593 0.000000 
-1.635591 1.549809 0.000000 
-1.992480 0.824511 0.000000 
-1.965104 0.714731 0.000000 
-1.974377 0.611399 0.000000 
-2.014368 0.517777 0.000000 
-2.065453 0.434591 0.000000 
-2.071492 0.281524 0.000000 
-2.131272 0.365060 0.000000 
-1.712039 1.536486 0.000000 
-1.781280 1.536437 0.000000 
-1.884796 1.506380 0.000000 
0.516332 1.726043 0.000000 
0.538779 1.654914 0.000000 
0.517174 1.384448 0.000000 
0.552532 1.446384 0.000000 
0.576896 1.488311 0.000000 
0.583356 1.525337 0.000000 
0.576083 1.562341 0.000000 