# vtk DataFile Version 3.0 
vtk output 
ASCII 
DATASET UNSTRUCTURED_GRID 
POINTS 899 float 
-3.648847 2.300168 0.000000 
-3.619410 2.259616 0.000000 
-3.578536 2.224021 0.000000 
-3.540028 2.188370 0.000000 
-3.511690 2.156175 0.000000 
-3.481362 2.126316 0.000000 
-3.451569 2.085643 0.000000 
0.772356 2.202682 0.000000 
0.774615 2.176560 0.000000 
0.769962 2.147806 0.000000 
-3.399514 2.055367 0.000000 
0.413960 -0.589475 0.000000 
0.455573 -0.585172 0.000000 
-1.762619 -0.489371 0.000000 
-1.783389 -0.453974 0.000000 
-1.714437 -0.425185 0.000000 
0.732567 2.197006 0.000000 
0.698438 2.183170 0.000000 
0.491831 -0.570970 0.000000 
0.519501 -0.540565 0.000000 
0.530556 -0.500118 0.000000 
0.532354 -0.454314 0.000000 
0.531774 -0.403807 0.000000 
-3.460923 1.993634 0.000000 
0.663989 2.161224 0.000000 
0.631675 2.133829 0.000000 
0.601833 2.109773 0.000000 
0.569607 2.086516 0.000000 
0.534059 2.064438 0.000000 
0.492599 2.043299 0.000000 
0.444403 2.024634 0.000000 
0.762807 2.106832 0.000000 
-1.708694 -0.390803 0.000000 
-1.726386 -0.350539 0.000000 
-1.761257 -0.326518 0.000000 
-1.812853 -0.318670 0.000000 
-0.690422 -0.571005 0.000000 
-0.624256 -0.588933 0.000000 
-0.561079 -0.597115 0.000000 
-0.500739 -0.598570 0.000000 
-0.445387 -0.598632 0.000000 
0.532260 -0.344723 0.000000 
0.536647 -0.275390 0.000000 
-1.881389 -0.306169 0.000000 
-0.389303 -0.596358 0.000000 
-0.340338 -0.581073 0.000000 
-0.344339 -0.526938 0.000000 
-0.358558 -0.474398 0.000000 
-0.381750 -0.433487 0.000000 
-0.406193 -0.399312 0.000000 
-0.417316 -0.367814 0.000000 
-0.428320 -0.333557 0.000000 
-0.436973 -0.289293 0.000000 
-0.444212 -0.233750 0.000000 
-0.452662 -0.174892 0.000000 
-0.468602 -0.117993 0.000000 
0.553166 -0.210675 0.000000 
0.573193 -0.153004 0.000000 
0.574450 -0.101264 0.000000 
0.561087 -0.050944 0.000000 
0.550432 0.004379 0.000000 
0.748903 2.053514 0.000000 
0.730940 1.997022 0.000000 
0.715868 1.950862 0.000000 
0.699446 1.914735 0.000000 
0.684888 1.873745 0.000000 
0.675900 1.827541 0.000000 
0.669871 1.777981 0.000000 
0.664455 1.730124 0.000000 
0.668163 1.683704 0.000000 
0.672091 1.633871 0.000000 
0.674558 1.585847 0.000000 
0.673045 1.535768 0.000000 
0.386491 2.014953 0.000000 
0.664855 1.477029 0.000000 
0.652298 1.418951 0.000000 
0.638456 1.365302 0.000000 
0.623121 1.315791 0.000000 
0.616008 1.272764 0.000000 
0.600787 1.237822 0.000000 
0.571289 1.208373 0.000000 
0.539016 1.177212 0.000000 
0.513857 1.148313 0.000000 
0.493343 1.122078 0.000000 
0.469109 1.104265 0.000000 
0.444920 1.087821 0.000000 
0.415324 1.066855 0.000000 
0.383540 1.042103 0.000000 
0.356179 1.012770 0.000000 
0.343879 0.973871 0.000000 
0.337476 0.928350 0.000000 
0.332404 0.883064 0.000000 
0.328512 0.843374 0.000000 
0.319594 0.807294 0.000000 
0.304149 0.773884 0.000000 
0.290502 0.733493 0.000000 
0.275896 0.685630 0.000000 
0.261905 0.643661 0.000000 
0.250150 0.610066 0.000000 
0.250896 0.572261 0.000000 
0.259587 0.529658 0.000000 
0.284617 0.486885 0.000000 
0.315237 0.457223 0.000000 
0.340022 0.437787 0.000000 
0.354380 0.411938 0.000000 
0.368685 0.384795 0.000000 
0.385568 0.358399 0.000000 
0.415372 0.333602 0.000000 
0.447119 0.301889 0.000000 
0.477633 0.273973 0.000000 
0.503078 0.246036 0.000000 
0.518876 0.207982 0.000000 
0.527127 0.172014 0.000000 
0.534187 0.127468 0.000000 
0.543185 0.066688 0.000000 
0.322519 2.003898 0.000000 
0.263849 1.990781 0.000000 
0.208223 1.985361 0.000000 
0.150441 1.981532 0.000000 
-0.687392 -0.497938 0.000000 
-3.327058 2.029135 0.000000 
-3.276080 1.982714 0.000000 
-3.224941 1.949127 0.000000 
-3.181728 1.919968 0.000000 
-3.135074 1.883039 0.000000 
-3.078123 1.858746 0.000000 
-1.944260 -0.261291 0.000000 
0.083204 1.986689 0.000000 
0.005786 1.981336 0.000000 
-0.071812 1.990574 0.000000 
-0.135705 2.020116 0.000000 
-0.182391 2.061721 0.000000 
-1.999041 -0.190322 0.000000 
-1.843230 -0.464831 0.000000 
-0.491126 -0.054033 0.000000 
-0.512312 0.019210 0.000000 
-0.526535 0.082043 0.000000 
-0.527935 0.144165 0.000000 
-0.524207 0.211334 0.000000 
-0.505864 0.268466 0.000000 
-0.468875 0.317678 0.000000 
-0.410369 0.346923 0.000000 
-0.354013 0.368040 0.000000 
-0.301050 0.377986 0.000000 
-0.255730 0.378759 0.000000 
-0.695595 -0.419643 0.000000 
-0.726457 -0.342761 0.000000 
-0.747352 -0.273306 0.000000 
-3.396487 1.972000 0.000000 
-3.344056 1.892612 0.000000 
-3.294256 1.849211 0.000000 
-3.248246 1.810887 0.000000 
-3.196818 1.771533 0.000000 
-3.159669 1.720223 0.000000 
-3.113281 1.673518 0.000000 
-3.056061 1.653955 0.000000 
-2.996684 1.631330 0.000000 
-2.933161 1.601714 0.000000 
-2.879064 1.565571 0.000000 
-2.813006 1.540786 0.000000 
-2.751664 1.517736 0.000000 
-2.686782 1.488413 0.000000 
-1.922020 -0.462024 0.000000 
-1.999705 -0.463523 0.000000 
-2.060018 -0.441919 0.000000 
-2.032615 -0.106932 0.000000 
-2.048550 -0.021210 0.000000 
-2.029059 0.044683 0.000000 
-2.105228 -0.384861 0.000000 
-2.154373 -0.317266 0.000000 
-2.203584 -0.262643 0.000000 
-2.237020 -0.201207 0.000000 
-2.250593 -0.135915 0.000000 
-2.270119 -0.064131 0.000000 
-2.297898 0.006180 0.000000 
-2.327118 0.067760 0.000000 
-2.346747 0.121730 0.000000 
-2.362840 0.174839 0.000000 
-2.374561 0.225884 0.000000 
-2.373128 0.277859 0.000000 
-2.334174 0.344449 0.000000 
-2.331842 0.385068 0.000000 
-2.284565 0.393826 0.000000 
-0.236368 2.111257 0.000000 
-0.299146 2.155083 0.000000 
-0.346614 2.175009 0.000000 
-0.382877 2.138505 0.000000 
-0.412447 2.109456 0.000000 
-0.433989 2.069168 0.000000 
-0.446472 2.026202 0.000000 
-0.451628 1.986883 0.000000 
-0.451047 1.948421 0.000000 
-0.449242 1.912418 0.000000 
-0.453345 1.880528 0.000000 
-0.460251 1.852835 0.000000 
-0.470304 1.824050 0.000000 
-0.475290 1.794560 0.000000 
-0.478341 1.764774 0.000000 
-0.479442 1.728038 0.000000 
-2.609147 1.474623 0.000000 
-2.517189 1.469125 0.000000 
-2.434013 1.469462 0.000000 
-2.352624 1.459430 0.000000 
-2.274410 1.440059 0.000000 
-2.204499 1.405411 0.000000 
-2.180326 1.336528 0.000000 
-2.178559 1.247992 0.000000 
-2.168273 1.157963 0.000000 
-2.159086 1.059899 0.000000 
-2.144575 0.970740 0.000000 
-2.163040 0.895523 0.000000 
-2.183612 0.821431 0.000000 
-2.172907 0.756874 0.000000 
-2.161614 0.694119 0.000000 
-2.169833 0.634007 0.000000 
-2.188987 0.572253 0.000000 
-2.218663 0.521008 0.000000 
-2.229021 0.465134 0.000000 
-2.997130 1.841949 0.000000 
-3.021908 1.743811 0.000000 
-2.902046 1.810441 0.000000 
-0.770600 -0.190712 0.000000 
-0.790096 -0.099053 0.000000 
-0.811857 -0.018346 0.000000 
-0.835807 0.060218 0.000000 
-0.859157 0.130346 0.000000 
-0.881226 0.190398 0.000000 
-0.903169 0.249748 0.000000 
-0.928196 0.313792 0.000000 
-2.785442 1.777888 0.000000 
-2.944278 1.717146 0.000000 
-2.855014 1.680000 0.000000 
-2.796189 1.619920 0.000000 
-2.651235 1.763142 0.000000 
-2.517962 1.752795 0.000000 
-2.394240 1.743632 0.000000 
-2.275192 1.735636 0.000000 
-2.180847 1.711075 0.000000 
-2.099904 1.684595 0.000000 
-2.018420 1.653355 0.000000 
-1.945469 1.657653 0.000000 
-1.885190 1.690993 0.000000 
-1.829736 1.711561 0.000000 
-1.760875 1.736793 0.000000 
-1.680504 1.765217 0.000000 
-1.617798 1.783534 0.000000 
-1.570169 1.798058 0.000000 
-1.527149 1.812248 0.000000 
-1.482581 1.824377 0.000000 
-1.433927 1.830917 0.000000 
-1.386311 1.838832 0.000000 
-1.337319 1.847563 0.000000 
-1.286363 1.854642 0.000000 
-1.235962 1.855360 0.000000 
-1.188452 1.860173 0.000000 
-1.140860 1.869624 0.000000 
-1.091558 1.868933 0.000000 
-1.038962 1.857914 0.000000 
-0.982519 1.838916 0.000000 
-0.922315 1.822174 0.000000 
-0.869867 1.811850 0.000000 
-0.827747 1.805360 0.000000 
-0.785371 1.800448 0.000000 
-0.748025 1.790711 0.000000 
-0.712781 1.780444 0.000000 
-0.681690 1.766512 0.000000 
-0.657198 1.755378 0.000000 
-0.633895 1.748714 0.000000 
-0.612002 1.744259 0.000000 
-0.594184 1.737046 0.000000 
-0.577381 1.727596 0.000000 
-0.560109 1.712313 0.000000 
-0.540091 1.679858 0.000000 
-1.243914 0.041013 0.000000 
-1.232782 0.054730 0.000000 
-1.257376 0.026659 0.000000 
-1.224378 0.073429 0.000000 
-1.271472 0.007314 0.000000 
-1.215702 0.095426 0.000000 
-1.204660 0.121483 0.000000 
-1.290143 -0.020428 0.000000 
-1.314447 -0.065468 0.000000 
-1.190204 0.151789 0.000000 
-1.318041 -0.118822 0.000000 
-1.171655 0.185945 0.000000 
-1.149359 0.222260 0.000000 
-1.123094 0.260508 0.000000 
-1.284246 -0.168802 0.000000 
-1.239750 -0.219528 0.000000 
-1.083297 0.304500 0.000000 
-1.028190 0.336171 0.000000 
-1.181630 -0.261885 0.000000 
-1.112789 -0.293312 0.000000 
-1.040643 -0.305482 0.000000 
-0.978118 -0.308569 0.000000 
-0.927392 -0.321595 0.000000 
-0.889718 -0.360729 0.000000 
-0.873564 -0.417279 0.000000 
-0.920771 -0.449473 0.000000 
-0.935346 -0.382205 0.000000 
-0.991249 -0.459049 0.000000 
-1.088918 -0.456321 0.000000 
-1.067426 -0.376669 0.000000 
-1.189474 -0.448758 0.000000 
-1.147229 -0.364002 0.000000 
-1.266509 -0.425468 0.000000 
-1.219913 -0.337825 0.000000 
-1.335307 -0.389641 0.000000 
-1.284456 -0.299826 0.000000 
-1.402357 -0.345737 0.000000 
-1.341444 -0.252025 0.000000 
-1.466758 -0.293062 0.000000 
-1.539152 -0.232263 0.000000 
-1.393011 -0.194094 0.000000 
-1.612839 -0.161991 0.000000 
-1.665320 -0.104413 0.000000 
-1.691220 -0.039586 0.000000 
-1.704696 0.045907 0.000000 
-1.850073 0.212777 0.000000 
-1.911042 0.156952 0.000000 
-1.969645 0.100115 0.000000 
-1.726970 0.152318 0.000000 
-0.222881 0.360148 0.000000 
-0.195707 0.332565 0.000000 
-0.164205 0.295617 0.000000 
-0.127520 0.262919 0.000000 
-0.095686 0.233428 0.000000 
-0.059027 0.204950 0.000000 
-0.018954 0.174966 0.000000 
0.030296 0.143696 0.000000 
0.086536 0.123170 0.000000 
0.141893 0.104438 0.000000 
0.202102 0.075159 0.000000 
0.263408 0.035242 0.000000 
0.311661 -0.014745 0.000000 
0.333954 -0.074368 0.000000 
0.338621 -0.134818 0.000000 
0.341530 -0.188756 0.000000 
0.353165 -0.238945 0.000000 
0.365710 -0.297368 0.000000 
0.363543 -0.366896 0.000000 
[...]
POINT_DATA 899 
VECTORS X_GC float 
-3.648847 2.300168 0.000000 
-3.619410 2.259616 0.000000 
-3.578536 2.224021 0.000000 
-3.540028 2.188370 0.000000 
-3.511690 2.156175 0.000000 
-3.481362 2.126316 0.000000 
-3.451569 2.085643 0.000000 
0.772356 2.202682 0.000000 
0.774615 2.176560 0.000000 
0.769962 2.147806 0.000000 
-3.399514 2.055367 0.000000 
0.413960 -0.589475 0.000000 
0.455573 -0.585172 0.000000 
-1.762619 -0.489371 0.000000 
-1.783389 -0.453974 0.000000 
-1.714437 -0.425185 0.000000 
0.732567 2.197006 0.000000 
0.698438 2.183170 0.000000 
0.491831 -0.570970 0.000000 
0.519501 -0.540565 0.000000 
0.530556 -0.500118 0.000000 
0.532354 -0.454314 0.000000 
0.531774 -0.403807 0.000000 
-3.460923 1.993634 0.000000 
0.663989 2.161224 0.000000 
0.631675 2.133829 0.000000 
0.601833 2.109773 0.000000 
0.569607 2.086516 0.000000 
0.534059 2.064438 0.000000 
0.492599 2.043299 0.000000 
0.444403 2.024634 0.000000 
0.762807 2.106832 0.000000 
-1.708694 -0.390803 0.000000 
-1.726386 -0.350539 0.000000 
-1.761257 -0.326518 0.000000 
-1.812853 -0.318670 0.000000 
-0.690422 -0.571005 0.000000 
-0.624256 -0.588933 0.000000 
-0.561079 -0.597115 0.000000 
-0.500739 -0.598570 0.000000 
-0.445387 -0.598632 0.000000 
0.532260 -0.344723 0.000000 
0.536647 -0.275390 0.000000 
-1.881389 -0.306169 0.000000 
-0.389303 -0.596358 0.000000 
-0.340338 -0.581073 0.000000 
-0.344339 -0.526938 0.000000 
-0.358558 -0.474398 0.000000 
-0.381750 -0.433487 0.000000 
-0.406193 -0.399312 0.000000 
-0.417316 -0.367814 0.000000 
-0.428320 -0.333557 0.000000 
-0.436973 -0.289293 0.000000 
-0.444212 -0.233750 0.000000 
-0.452662 -0.174892 0.000000 
-0.468602 -0.117993 0.000000 
0.553166 -0.210675 0.000000 
0.573193 -0.153004 0.000000 
0.574450 -0.101264 0.000000 
0.561087 -0.050944 0.000000 
0.550432 0.004379 0.000000 
0.748903 2.053514 0.000000 
0.730940 1.997022 0.000000 
0.715868 1.950862 0.000000 
0.699446 1.914735 0.000000 
0.684888 1.873745 0.000000 
0.675900 1.827541 0.000000 
0.669871 1.777981 0.000000 
0.664455 1.730124 0.000000 
0.668163 1.683704 0.000000 
0.672091 1.633871 0.000000 
0.674558 1.585847 0.000000 
0.673045 1.535768 0.000000 
0.386491 2.014953 0.000000 
0.664855 1.477029 0.000000 
0.652298 1.418951 0.000000 
0.638456 1.365302 0.000000 
0.623121 1.315791 0.000000 
0.616008 1.272764 0.000000 
0.600787 1.237822 0.000000 
0.571289 1.208373 0.000000 
0.539016 1.177212 0.000000 
0.513857 1.148313 0.000000 
0.493343 1.122078 0.000000 
0.469109 1.104265 0.000000 
0.444920 1.087821 0.000000 
0.415324 1.066855 0.000000 
0.383540 1.042103 0.000000 
0.356179 1.012770 0.000000 
0.343879 0.973871 0.000000 
0.337476 0.928350 0.000000 
0.332404 0.883064 0.000000 
0.328512 0.843374 0.000000 
0.319594 0.807294 0.000000 
0.304149 0.773884 0.000000 
0.290502 0.733493 0.000000 
0.275896 0.685630 0.000000 
0.261905 0.643661 0.000000 
0.250150 0.610066 0.000000 
0.250896 0.572261 0.000000 
0.259587 0.529658 0.000000 
0.284617 0.486885 0.000000 
0.315237 0.457223 0.000000 
0.340022 0.437787 0.000000 
0.354380 0.411938 0.000000 
0.368685 0.384795 0.000000 
0.385568 0.358399 0.000000 
0.415372 0.333602 0.000000 
0.447119 0.301889 0.000000 
0.477633 0.273973 0.000000 
0.503078 0.246036 0.000000 
0.518876 0.207982 0.000000 
0.527127 0.172014 0.000000 
0.534187 0.127468 0.000000 
0.543185 0.066688 0.000000 
0.322519 2.003898 0.000000 
0.263849 1.990781 0.000000 
0.208223 1.985361 0.000000 
0.150441 1.981532 0.000000 
-0.687392 -0.497938 0.000000 
-3.327058 2.029135 0.000000 
-3.276080 1.982714 0.000000 
-3.224941 1.949127 0.000000 
-3.181728 1.919968 0.000000 
-3.135074 1.883039 0.000000 
-3.078123 1.858746 0.000000 
-1.944260 -0.261291 0.000000 
0.083204 1.986689 0.000000 
0.005786 1.981336 0.000000 
-0.071812 1.990574 0.000000 
-0.135705 2.020116 0.000000 
-0.182391 2.061721 0.000000 
-1.999041 -0.190322 0.000000 
-1.843230 -0.464831 0.000000 
-0.491126 -0.054033 0.000000 
-0.512312 0.019210 0.000000 
-0.526535 0.082043 0.000000 
-0.527935 0.144165 0.000000 
-0.524207 0.211334 0.000000 
-0.505864 0.268466 0.000000 
-0.468875 0.317678 0.000000 
-0.410369 0.346923 0.000000 
-0.354013 0.368040 0.000000 
-0.301050 0.377986 0.000000 
-0.255730 0.378759 0.000000 
-0.695595 -0.419643 0.000000 
-0.726457 -0.342761 0.000000 
-0.747352 -0.273306 0.000000 
-3.396487 1.972000 0.000000 
-3.344056 1.892612 0.000000 
-3.294256 1.849211 0.000000 
-3.248246 1.810887 0.000000 
-3.196818 1.771533 0.000000 
-3.159669 1.720223 0.000000 
-3.113281 1.673518 0.000000 
-3.056061 1.653955 0.000000 
-2.996684 1.631330 0.000000 
-2.933161 1.601714 0.000000 
-2.879064 1.565571 0.000000 
-2.813006 1.540786 0.000000 
-2.751664 1.517736 0.000000 
-2.686782 1.488413 0.000000 
-1.922020 -0.462024 0.000000 
-1.999705 -0.463523 0.000000 
-2.060018 -0.441919 0.000000 
-2.032615 -0.106932 0.000000 
-2.048550 -0.021210 0.000000 
-2.029059 0.044683 0.000000 
-2.105228 -0.384861 0.000000 
-2.154373 -0.317266 0.000000 
-2.203584 -0.262643 0.000000 
-2.237020 -0.201207 0.000000 
-2.250593 -0.135915 0.000000 
-2.270119 -0.064131 0.000000 
-2.297898 0.006180 0.000000 
-2.327118 0.067760 0.000000 
-2.346747 0.121730 0.000000 
-2.362840 0.174839 0.000000 
-2.374561 0.225884 0.000000 
-2.373128 0.277859 0.000000 
-2.334174 0.344449 0.000000 
-2.331842 0.385068 0.000000 
-2.284565 0.393826 0.000000 
-0.236368 2.111257 0.000000 
-0.299146 2.155083 0.000000 
-0.346614 2.175009 0.000000 
-0.382877 2.138505 0.000000 
-0.412447 2.109456 0.000000 
-0.433989 2.069168 0.000000 
-0.446472 2.026202 0.000000 
-0.451628 1.986883 0.000000 
-0.451047 1.948421 0.000000 
-0.449242 1.912418 0.000000 
-0.453345 1.880528 0.000000 
-0.460251 1.852835 0.000000 
-0.470304 1.824050 0.000000 
-0.475290 1.794560 0.000000 
-0.478341 1.764774 0.000000 
-0.479442 1.728038 0.000000 
-2.609147 1.474623 0.000000 
-2.517189 1.469125 0.000000 
-2.434013 1.469462 0.000000 
-2.352624 1.459430 0.000000 
-2.274410 1.440059 0.000000 
-2.204499 1.405411 0.000000 
-2.180326 1.336528 0.000000 
-2.178559 1.247992 0.000000 
-2.168273 1.157963 0.000000 
-2.159086 1.059899 0.000000 
-2.144575 0.970740 0.000000 
-2.163040 0.895523 0.000000 
-2.183612 0.821431 0.000000 
-2.172907 0.756874 0.000000 
-2.161614 0.694119 0.000000 
-2.169833 0.634007 0.000000 
-2.188987 0.572253 0.000000 
-2.218663 0.521008 0.000000 
-2.229021 0.465134 0.000000 
-2.997130 1.841949 0.000000 
-3.021908 1.743811 0.000000 
-2.902046 1.810441 0.000000 
-0.770600 -0.190712 0.000000 
-0.790096 -0.099053 0.000000 
-0.811857 -0.018346 0.000000 
-0.835807 0.060218 0.000000 
-0.859157 0.130346 0.000000 
-0.881226 0.190398 0.000000 
-0.903169 0.249748 0.000000 
-0.928196 0.313792 0.000000 
-2.785442 1.777888 0.000000 
-2.944278 1.717146 0.000000 
-2.855014 1.680000 0.000000 
-2.796189 1.619920 0.000000 
-2.651235 1.763142 0.000000 
-2.517962 1.752795 0.000000 
-2.394240 1.743632 0.000000 
-2.275192 1.735636 0.000000 
-2.180847 1.711075 0.000000 
-2.099904 1.684595 0.000000 
-2.018420 1.653355 0.000000 
-1.945469 1.657653 0.000000 
-1.885190 1.690993 0.000000 
-1.829736 1.711561 0.000000 
-1.760875 1.736793 0.000000 
-1.680504 1.765217 0.000000 
-1.617798 1.783534 0.000000 
-1.570169 1.798058 0.000000 
-1.527149 1.812248 0.000000 
-1.482581 1.824377 0.000000 
-1.433927 1.830917 0.000000 
-1.386311 1.838832 0.000000 
-1.337319 1.847563 0.000000 
-1.286363 1.854642 0.000000 
-1.235962 1.855360 0.000000 
-1.188452 1.860173 0.000000 
-1.140860 1.869624 0.000000 
-1.091558 1.868933 0.000000 
-1.038962 1.857914 0.000000 
-0.982519 1.838916 0.000000 
-0.922315 1.822174 0.000000 
-0.869867 1.811850 0.000000 
-0.827747 1.805360 0.000000 
-0.785371 1.800448 0.000000 
-0.748025 1.790711 0.000000 
-0.712781 1.780444 0.000000 
-0.681690 1.766512 0.000000 
-0.657198 1.755378 0.000000 
-0.633895 1.748714 0.000000 
-0.612002 1.744259 0.000000 
-0.594184 1.737046 0.000000 
-0.577381 1.727596 0.000000 
-0.560109 1.712313 0.000000 
-0.540091 1.679858 0.000000 
-1.243914 0.041013 0.000000 
-1.232782 0.054730 0.000000 
-1.257376 0.026659 0.000000 
-1.224378 0.073429 0.000000 
-1.271472 0.007314 0.000000 
-1.215702 0.095426 0.000000 
-1.204660 0.121483 0.000000 
-1.290143 -0.020428 0.000000 
-1.314447 -0.065468 0.000000 
-1.190204 0.151789 0.000000 
-1.318041 -0.118822 0.000000 
-1.171655 0.185945 0.000000 
-1.149359 0.222260 0.000000 
-1.123094 0.260508 0.000000 
-1.284246 -0.168802 0.000000 
-1.239750 -0.219528 0.000000 
-1.083297 0.304500 0.000000 
-1.028190 0.336171 0.000000 
-1.181630 -0.261885 0.000000 
-1.112789 -0.293312 0.000000 
-1.040643 -0.305482 0.000000 
-0.978118 -0.308569 0.000000 
-0.927392 -0.321595 0.000000 
-0.889718 -0.360729 0.000000 
-0.873564 -0.417279 0.000000 
-0.920771 -0.449473 0.000000 
-0.935346 -0.382205 0.000000 
-0.991249 -0.459049 0.000000 
-1.088918 -0.456321 0.000000 
-1.067426 -0.376669 0.000000 
-1.189474 -0.448758 0.000000 
-1.147229 -0.364002 0.000000 
-1.266509 -0.425468 0.000000 
-1.219913 -0.337825 0.000000 
-1.335307 -0.389641 0.000000 
-1.284456 -0.299826 0.000000 
-1.402357 -0.345737 0.000000 
-1.341444 -0.252025 0.000000 
-1.466758 -0.293062 0.000000 
-1.539152 -0.232263 0.000000 
-1.393011 -0.194094 0.000000 
-1.612839 -0.161991 0.000000 
-1.665320 -0.104413 0.000000 
-1.691220 -0.039586 0.000000 
-1.704696 0.045907 0.000000 
-1.850073 0.212777 0.000000 
-1.911042 0.156952 0.000000 
-1.969645 0.100115 0.000000 
-1.726970 0.152318 0.000000 
-0.222881 0.360148 0.000000 
-0.195707 0.332565 0.000000 
-0.164205 0.295617 0.000000 
-0.127520 0.262919 0.000000 
-0.095686 0.233428 0.000000 
-0.059027 0.204950 0.000000 
-0.018954 0.174966 0.000000 
0.030296 0.143696 0.000000 
0.086536 0.123170 0.000000 
0.141893 0.104438 0.000000 
0.202102 0.075159 0.000000 
0.263408 0.035242 0.000000 
0.311661 -0.014745 0.000000 
0.333954 -0.074368 0.000000 
0.338621 -0.134818 0.000000 
0.341530 -0.188756 0.000000 
0.353165 -0.238945 0.000000 
0.365710 -0.297368 0.000000 
0.363543 -0.366896 0.000000 
0.357353 -0.429011 0.000000 
0.351188 -0.479753 0.000000 
0.363842 -0.526782 0.000000 
-1.737069 -0.393433 0.000000 
-0.199590 0.412765 0.000000 
-0.156305 0.382849 0.000000 
-0.462327 1.648805 0.000000 
0.741313 2.171379 0.000000 
0.482415 -0.537552 0.000000 
0.446104 -0.545448 0.000000 
0.403556 -0.551103 0.000000 
-0.104001 0.354784 0.000000 
-0.514998 1.580859 0.000000 
-0.059937 0.320379 0.000000 
0.738519 2.146114 0.000000 
0.714572 2.158415 0.000000 
-0.249752 0.439589 0.000000 
-0.036232 0.276581 0.000000 
0.000772 0.248749 0.000000 
0.035161 0.223104 0.000000 
-1.776537 -0.392874 0.000000 
-1.836238 -0.388690 0.000000 
-0.309416 0.453689 0.000000 
-0.378944 0.451425 0.000000 
-2.292732 0.331013 0.000000 
-2.315166 0.281022 0.000000 
-2.314418 0.233465 0.000000 
-2.293418 0.187079 0.000000 
-2.279687 0.137199 0.000000 
-2.253462 0.089934 0.000000 
0.075120 0.195361 0.000000 
0.131113 0.182754 0.000000 
-0.977004 0.384737 0.000000 
-0.860050 0.374572 0.000000 
-1.912142 -0.380633 0.000000 
-1.989966 -0.389414 0.000000 
-2.023752 -0.321872 0.000000 
-2.082175 -0.250611 0.000000 
0.723889 2.114601 0.000000 
0.691466 2.133444 0.000000 
0.665980 2.100797 0.000000 
0.704783 2.073529 0.000000 
0.637970 2.062739 0.000000 
0.681732 2.026321 0.000000 
0.670916 1.980146 0.000000 
0.602858 2.031071 0.000000 
0.659584 1.939722 0.000000 
0.560783 2.004700 0.000000 
0.636111 1.903647 0.000000 
0.607495 1.853856 0.000000 
0.595324 1.790376 0.000000 
0.604052 1.725703 0.000000 
0.514160 1.975297 0.000000 
0.453857 1.947852 0.000000 
0.392525 1.945874 0.000000 
0.334098 1.944345 0.000000 
0.278675 1.925591 0.000000 
0.217273 1.907516 0.000000 
0.149449 1.890161 0.000000 
0.614128 1.673427 0.000000 
0.621313 1.625848 0.000000 
0.624262 1.580968 0.000000 
-2.197766 0.036745 0.000000 
-2.158682 -0.038178 0.000000 
-2.124695 0.096076 0.000000 
-2.150589 -0.204305 0.000000 
-2.141926 -0.126759 0.000000 
-0.393439 -0.543319 0.000000 
-0.412631 -0.499276 0.000000 
-0.436983 -0.458672 0.000000 
-0.445953 -0.415253 0.000000 
-0.458251 -0.382427 0.000000 
-0.479726 -0.347660 0.000000 
-0.496934 -0.298930 0.000000 
-0.509002 -0.243846 0.000000 
-0.517157 -0.189515 0.000000 
-0.545309 -0.138240 0.000000 
-0.442273 -0.540713 0.000000 
-0.496002 -0.531196 0.000000 
-0.557668 -0.533303 0.000000 
-0.618975 -0.517823 0.000000 
-0.334659 2.113196 0.000000 
-0.367985 2.083478 0.000000 
-0.385153 2.047053 0.000000 
-0.396797 2.013185 0.000000 
-0.406285 1.977663 0.000000 
-0.402558 1.938530 0.000000 
-0.406645 1.900087 0.000000 
-0.418378 1.867672 0.000000 
-0.428059 1.838547 0.000000 
-0.435849 1.808999 0.000000 
-0.442335 1.778965 0.000000 
-0.445406 1.745899 0.000000 
-0.444483 1.700183 0.000000 
0.619822 1.535236 0.000000 
-1.077870 0.431801 0.000000 
-1.149036 0.389842 0.000000 
-1.174735 0.315000 0.000000 
-1.192231 0.263276 0.000000 
-1.210811 0.221500 0.000000 
-1.228352 0.182160 0.000000 
-1.238869 0.144180 0.000000 
-1.244643 0.112683 0.000000 
-1.248534 0.087782 0.000000 
-1.252336 0.068494 0.000000 
-1.262323 0.055242 0.000000 
-1.280319 0.044326 0.000000 
-0.451814 0.428764 0.000000 
-0.526928 0.385243 0.000000 
0.194935 0.165761 0.000000 
0.069048 1.876061 0.000000 
-0.574175 0.314558 0.000000 
-0.593607 0.233455 0.000000 
-1.764101 0.273140 0.000000 
-2.210991 0.391997 0.000000 
-0.825996 0.289295 0.000000 
-0.799223 0.218214 0.000000 
-0.760911 0.151781 0.000000 
0.605964 1.484284 0.000000 
0.587834 1.426924 0.000000 
0.576354 1.367076 0.000000 
0.574971 1.312067 0.000000 
0.580375 1.269043 0.000000 
0.545179 1.246659 0.000000 
0.509957 1.214396 0.000000 
0.484198 1.177994 0.000000 
0.468721 1.146839 0.000000 
0.449386 1.128308 0.000000 
0.422962 1.115643 0.000000 
0.391379 1.096492 0.000000 
0.357154 1.072428 0.000000 
0.323730 1.044056 0.000000 
-0.582151 -0.077372 0.000000 
0.265957 0.139332 0.000000 
0.333763 0.093202 0.000000 
0.378371 0.026186 0.000000 
0.400918 -0.048209 0.000000 
0.401084 -0.111197 0.000000 
0.404345 -0.165298 0.000000 
0.432648 -0.216380 0.000000 
0.450030 -0.280821 0.000000 
0.529803 -0.127668 0.000000 
0.491947 -0.175805 0.000000 
0.453243 -0.125922 0.000000 
0.449550 -0.355145 0.000000 
0.498420 -0.081795 0.000000 
0.474171 -0.021853 0.000000 
0.457863 0.052720 0.000000 
0.462195 -0.413800 0.000000 
0.478704 -0.460135 0.000000 
0.483460 -0.501101 0.000000 
0.412910 -0.439441 0.000000 
0.398390 -0.478154 0.000000 
0.404290 -0.512442 0.000000 
0.442452 -0.507884 0.000000 
0.436659 -0.472719 0.000000 
-0.727378 0.077648 0.000000 
-0.616071 0.159666 0.000000 
-0.623548 0.085385 0.000000 
-0.605779 0.004378 0.000000 
-0.706340 -0.008071 0.000000 
-0.681483 -0.094332 0.000000 
-0.032304 1.870500 0.000000 
-0.128010 1.906650 0.000000 
-0.195732 1.973774 0.000000 
-0.243911 2.027688 0.000000 
-0.287859 2.075091 0.000000 
-0.335518 2.047395 0.000000 
-0.667608 -0.179713 0.000000 
-0.584906 -0.186481 0.000000 
-0.658169 -0.259722 0.000000 
-0.578442 -0.251852 0.000000 
-0.639050 -0.331164 0.000000 
-0.607982 -0.406681 0.000000 
-0.562541 -0.314551 0.000000 
-0.536184 -0.375574 0.000000 
-0.495978 -0.413536 0.000000 
-0.500680 -0.465930 0.000000 
-0.573051 -0.470383 0.000000 
-2.690892 1.643794 0.000000 
-2.684799 1.557782 0.000000 
-2.602920 1.556520 0.000000 
-2.574381 1.641513 0.000000 
-2.518122 1.576387 0.000000 
-2.424460 1.600285 0.000000 
-2.320006 1.591354 0.000000 
-2.229986 1.567736 0.000000 
-2.146342 1.526496 0.000000 
-1.455055 -0.135113 0.000000 
-1.387692 -0.054789 0.000000 
-1.339496 -0.001461 0.000000 
-1.304977 0.027099 0.000000 
-1.531301 -0.069620 0.000000 
-1.604385 -0.025507 0.000000 
-1.592423 0.075173 0.000000 
-1.608296 0.199136 0.000000 
-1.827918 0.397582 0.000000 
0.477873 0.166385 0.000000 
0.477147 0.201284 0.000000 
0.465631 0.235524 0.000000 
-0.587742 1.679733 0.000000 
-0.593403 1.703837 0.000000 
-0.604579 1.716493 0.000000 
-0.619289 1.722179 0.000000 
-0.639577 1.720005 0.000000 
-0.665912 1.721621 0.000000 
-0.697937 1.728608 0.000000 
-0.595692 1.626245 0.000000 
-0.726123 1.743420 0.000000 
-0.757398 1.753990 0.000000 
-0.794522 1.751415 0.000000 
-0.841416 1.748837 0.000000 
-0.894922 1.750198 0.000000 
-0.956071 1.758614 0.000000 
-1.020951 1.777535 0.000000 
-1.077937 1.805170 0.000000 
-1.120258 1.833898 0.000000 
-1.171769 1.809638 0.000000 
0.332207 0.363029 0.000000 
0.333662 0.321293 0.000000 
0.321472 0.391645 0.000000 
0.302407 0.418458 0.000000 
0.214022 0.433120 0.000000 
0.194081 0.494145 0.000000 
0.186716 0.549657 0.000000 
0.189303 0.602430 0.000000 
0.360023 0.281612 0.000000 
0.405131 0.256479 0.000000 
0.201671 0.651675 0.000000 
0.218038 0.701936 0.000000 
0.236652 0.750870 0.000000 
0.256885 0.792804 0.000000 
0.278373 0.821298 0.000000 
0.284019 0.854696 0.000000 
0.276718 0.901443 0.000000 
0.278735 0.958256 0.000000 
0.296322 1.008524 0.000000 
-1.507867 1.761395 0.000000 
-1.548116 1.736753 0.000000 
-1.598023 1.709374 0.000000 
-1.467251 1.776169 0.000000 
-1.422160 1.783453 0.000000 
-1.373311 1.790169 0.000000 
-1.322903 1.797946 0.000000 
-1.275577 1.807191 0.000000 
-1.225048 1.805792 0.000000 
-1.662214 1.685704 0.000000 
-1.732600 1.665765 0.000000 
-1.794687 1.651389 0.000000 
-1.841773 1.622202 0.000000 
-2.078405 0.689475 0.000000 
-2.079214 0.768064 0.000000 
-2.097651 0.611874 0.000000 
-2.129318 0.540136 0.000000 
-2.096743 0.848626 0.000000 
-2.169699 0.484792 0.000000 
-1.991686 0.411792 0.000000 
-1.642187 0.337348 0.000000 
-1.989898 0.244567 0.000000 
-2.064526 0.172755 0.000000 
-1.914688 0.318102 0.000000 
-2.037969 1.101178 0.000000 
-2.021377 0.985494 0.000000 
-2.055796 1.230340 0.000000 
-2.102728 1.332993 0.000000 
-2.047875 1.475295 0.000000 
0.428030 0.222026 0.000000 
0.375625 0.200790 0.000000 
0.313454 0.213891 0.000000 
0.290352 0.359926 0.000000 
0.238487 1.070843 0.000000 
0.440631 0.183919 0.000000 
0.396678 0.144142 0.000000 
0.460488 0.118221 0.000000 
0.523747 1.294333 0.000000 
-2.262588 0.257588 0.000000 
-2.220468 0.313615 0.000000 
-2.218579 0.204077 0.000000 
-2.146376 0.255927 0.000000 
-2.206503 0.139006 0.000000 
0.473879 1.255721 0.000000 
0.446488 1.203390 0.000000 
0.440978 1.159371 0.000000 
0.409581 1.151516 0.000000 
0.629179 1.980411 0.000000 
0.593839 1.947938 0.000000 
0.550362 1.903734 0.000000 
0.483841 1.863311 0.000000 
0.202470 1.004479 0.000000 
0.241245 0.856703 0.000000 
0.205152 0.831903 0.000000 
0.175878 0.783762 0.000000 
0.153326 0.725256 0.000000 
0.132079 0.664806 0.000000 
0.113278 0.600350 0.000000 
0.106000 0.532027 0.000000 
0.109640 0.462830 0.000000 
0.121648 0.392152 0.000000 
0.032483 0.302538 0.000000 
0.246820 0.385217 0.000000 
0.099619 0.250904 0.000000 
0.373127 1.136634 0.000000 
-0.307911 1.999774 0.000000 
-0.360136 1.981304 0.000000 
-0.343252 1.926959 0.000000 
-0.270247 1.935103 0.000000 
0.168337 0.247422 0.000000 
0.242346 0.237085 0.000000 
0.270369 0.306121 0.000000 
0.505525 1.362095 0.000000 
-0.689828 0.189350 0.000000 
-0.729540 0.246754 0.000000 
-0.746154 0.321226 0.000000 
-0.657668 0.337790 0.000000 
-0.661195 0.253504 0.000000 
-0.924642 0.490466 0.000000 
-1.137284 1.753829 0.000000 
-1.072920 1.709235 0.000000 
-1.248127 1.766126 0.000000 
-1.304069 1.749804 0.000000 
-1.360197 1.742144 0.000000 
-1.411221 1.738004 0.000000 
-1.453165 1.734775 0.000000 
-1.486003 1.717313 0.000000 
-1.510814 1.673843 0.000000 
-1.558800 1.629175 0.000000 
-0.995058 1.682482 0.000000 
-0.919611 1.672006 0.000000 
-0.852227 1.678938 0.000000 
-0.796966 1.695457 0.000000 
-0.752732 1.714625 0.000000 
-1.635591 1.601842 0.000000 
-1.992480 0.876543 0.000000 
-1.965104 0.766764 0.000000 
-1.974377 0.663431 0.000000 
-2.014368 0.569809 0.000000 
-2.065453 0.486623 0.000000 
-2.071492 0.333556 0.000000 
-2.131272 0.417093 0.000000 
-1.712039 1.588519 0.000000 
-1.781280 1.588469 0.000000 
-1.884796 1.558412 0.000000 
0.516332 1.778075 0.000000 
0.538779 1.706947 0.000000 
0.517174 1.436480 0.000000 
0.552532 1.498416 0.000000 
0.576896 1.540343 0.000000 
0.583356 1.577369 0.000000 
0.576083 1.614374 0.000000 
0.562288 1.656734 0.000000 