# vtk DataFile Version 3.0 
vtk output 
ASCII 
DATASET UNSTRUCTURED_GRID 
POINTS 899 float 
-3.648847 2.318914 0.000000 
-3.619410 2.278362 0.000000 
-3.578536 2.242768 0.000000 
-3.540028 2.207117 0.000000 
-3.511690 2.174922 0.000000 
-3.481362 2.145063 0.000000 
-3.451569 2.104390 0.000000 
0.772356 2.221428 0.000000 
0.774615 2.195307 0.000000 
0.769962 2.166553 0.000000 
-3.399514 2.074114 0.000000 
0.413960 -0.570728 0.000000 
0.455573 -0.566425 0.000000 
-1.762619 -0.470624 0.000000 
-1.783389 -0.435227 0.000000 
-1.714437 -0.406438 0.000000 
0.732567 2.215753 0.000000 
0.698438 2.201917 0.000000 
0.491831 -0.552223 0.000000 
0.519501 -0.521818 0.000000 
0.530556 -0.481371 0.000000 
0.532354 -0.435567 0.000000 
0.531774 -0.385060 0.000000 
-3.460923 2.012381 0.000000 
0.663989 2.179971 0.000000 
0.631675 2.152576 0.000000 
0.601833 2.128520 0.000000 
0.569607 2.105263 0.000000 
0.534059 2.083185 0.000000 
0.492599 2.062045 0.000000 
0.444403 2.043381 0.000000 
0.762807 2.125579 0.000000 
-1.708694 -0.372056 0.000000 
-1.726386 -0.331792 0.000000 
-1.761257 -0.307771 0.000000 
-1.812853 -0.299923 0.000000 
-0.690422 -0.552258 0.000000 
-0.624256 -0.570186 0.000000 
-0.561079 -0.578368 0.000000 
-0.500739 -0.579823 0.000000 
-0.445387 -0.579885 0.000000 
0.532260 -0.325976 0.000000 
0.536647 -0.256643 0.000000 
-1.881389 -0.287422 0.000000 
-0.389303 -0.577611 0.000000 
-0.340338 -0.562326 0.000000 
-0.344339 -0.508191 0.000000 
-0.358558 -0.455651 0.000000 
-0.381750 -0.414740 0.000000 
-0.406193 -0.380565 0.000000 
-0.417316 -0.349067 0.000000 
-0.428320 -0.314810 0.000000 
-0.436973 -0.270546 0.000000 
-0.444212 -0.215003 0.000000 
-0.452662 -0.156145 0.000000 
-0.468602 -0.099246 0.000000 
0.553166 -0.191928 0.000000 
0.573193 -0.134257 0.000000 
0.574450 -0.082517 0.000000 
0.561087 -0.032197 0.000000 
0.550432 0.023126 0.000000 
0.748903 2.072261 0.000000 
0.730940 2.015769 0.000000 
0.715868 1.969609 0.000000 
0.699446 1.933481 0.000000 
0.684888 1.892492 0.000000 
0.675900 1.846287 0.000000 
0.669871 1.796728 0.000000 
0.664455 1.748871 0.000000 
0.668163 1.702451 0.000000 
0.672091 1.652618 0.000000 
0.674558 1.604594 0.000000 
0.673045 1.554515 0.000000 
0.386491 2.033700 0.000000 
0.664855 1.495776 0.000000 
0.652298 1.437698 0.000000 
0.638456 1.384048 0.000000 
0.623121 1.334538 0.000000 
0.616008 1.291511 0.000000 
0.600787 1.256569 0.000000 
0.571289 1.227120 0.000000 
0.539016 1.195959 0.000000 
0.513857 1.167060 0.000000 
0.493343 1.140825 0.000000 
0.469109 1.123012 0.000000 
0.444920 1.106568 0.000000 
0.415324 1.085602 0.000000 
0.383540 1.060850 0.000000 
0.356179 1.031517 0.000000 
0.343879 0.992618 0.000000 
0.337476 0.947097 0.000000 
0.332404 0.901811 0.000000 
0.328512 0.862121 0.000000 
0.319594 0.826041 0.000000 
0.304149 0.792631 0.000000 
0.290502 0.752240 0.000000 
0.275896 0.704377 0.000000 
0.261905 0.662408 0.000000 
0.250150 0.628813 0.000000 
0.250896 0.591008 0.000000 
0.259587 0.548405 0.000000 
0.284617 0.505632 0.000000 
0.315237 0.475970 0.000000 
0.340022 0.456534 0.000000 
0.354380 0.430685 0.000000 
0.368685 0.403542 0.000000 
0.385568 0.377146 0.000000 
0.415372 0.352349 0.000000 
0.447119 0.320636 0.000000 
0.477633 0.292720 0.000000 
0.503078 0.264783 0.000000 
0.518876 0.226729 0.000000 
0.527127 0.190761 0.000000 
0.534187 0.146215 0.000000 
0.543185 0.085435 0.000000 
0.322519 2.022644 0.000000 
0.263849 2.009528 0.000000 
0.208223 2.004108 0.000000 
0.150441 2.000279 0.000000 
-0.687392 -0.479191 0.000000 
-3.327058 2.047882 0.000000 
-3.276080 2.001461 0.000000 
-3.224941 1.967874 0.000000 
-3.181728 1.938715 0.000000 
-3.135074 1.901785 0.000000 
-3.078123 1.877492 0.000000 
-1.944260 -0.242544 0.000000 
0.083204 2.005436 0.000000 
0.005786 2.000083 0.000000 
-0.071812 2.009321 0.000000 
-0.135705 2.038863 0.000000 
-0.182391 2.080468 0.000000 
-1.999041 -0.171576 0.000000 
-1.843230 -0.446084 0.000000 
-0.491126 -0.035286 0.000000 
-0.512312 0.037957 0.000000 
-0.526535 0.100790 0.000000 
-0.527935 0.162912 0.000000 
-0.524207 0.230081 0.000000 
-0.505864 0.287213 0.000000 
-0.468875 0.336425 0.000000 
-0.410369 0.365670 0.000000 
-0.354013 0.386787 0.000000 
-0.301050 0.396733 0.000000 
-0.255730 0.397505 0.000000 
-0.695595 -0.400896 0.000000 
-0.726457 -0.324014 0.000000 
-0.747352 -0.254559 0.000000 
-3.396487 1.990747 0.000000 
-3.344056 1.911359 0.000000 
-3.294256 1.867958 0.000000 
-3.248246 1.829634 0.000000 
-3.196818 1.790280 0.000000 
-3.159669 1.738970 0.000000 
-3.113281 1.692265 0.000000 
-3.056061 1.672702 0.000000 
-2.996684 1.650077 0.000000 
-2.933161 1.620461 0.000000 
-2.879064 1.584318 0.000000 
-2.813006 1.559533 0.000000 
-2.751664 1.536483 0.000000 
-2.686782 1.507160 0.000000 
-1.922020 -0.443277 0.000000 
-1.999705 -0.444776 0.000000 
-2.060018 -0.423172 0.000000 
-2.032615 -0.088185 0.000000 
-2.048550 -0.002463 0.000000 
-2.029059 0.063430 0.000000 
-2.105228 -0.366114 0.000000 
-2.154373 -0.298520 0.000000 
-2.203584 -0.243896 0.000000 
-2.237020 -0.182460 0.000000 
-2.250593 -0.117168 0.000000 
-2.270119 -0.045384 0.000000 
-2.297898 0.024927 0.000000 
-2.327118 0.086506 0.000000 
-2.346747 0.140476 0.000000 
-2.362840 0.193586 0.000000 
-2.374561 0.244631 0.000000 
-2.373128 0.296606 0.000000 
-2.334174 0.363196 0.000000 
-2.331842 0.403814 0.000000 
-2.284565 0.412573 0.000000 
-0.236368 2.130004 0.000000 
-0.299146 2.173830 0.000000 
-0.346614 2.193755 0.000000 
-0.382877 2.157252 0.000000 
-0.412447 2.128203 0.000000 
-0.433989 2.087915 0.000000 
-0.446472 2.044949 0.000000 
-0.451628 2.005630 0.000000 
-0.451047 1.967168 0.000000 
-0.449242 1.931165 0.000000 
-0.453345 1.899275 0.000000 
-0.460251 1.871582 0.000000 
-0.470304 1.842796 0.000000 
-0.475290 1.813306 0.000000 
-0.478341 1.783521 0.000000 
-0.479442 1.746785 0.000000 
-2.609147 1.493370 0.000000 
-2.517189 1.487872 0.000000 
-2.434013 1.488209 0.000000 
-2.352624 1.478177 0.000000 
-2.274410 1.458806 0.000000 
-2.204499 1.424158 0.000000 
-2.180326 1.355275 0.000000 
-2.178559 1.266739 0.000000 
-2.168273 1.176710 0.000000 
-2.159086 1.078646 0.000000 
-2.144575 0.989487 0.000000 
-2.163040 0.914270 0.000000 
-2.183612 0.840178 0.000000 
-2.172907 0.775620 0.000000 
-2.161614 0.712865 0.000000 
-2.169833 0.652753 0.000000 
-2.188987 0.591000 0.000000 
-2.218663 0.539755 0.000000 
-2.229021 0.483881 0.000000 
-2.997130 1.860696 0.000000 
-3.021908 1.762558 0.000000 
-2.902046 1.829188 0.000000 
-0.770600 -0.171965 0.000000 
-0.790096 -0.080306 0.000000 
-0.811857 0.000401 0.000000 
-0.835807 0.078965 0.000000 
-0.859157 0.149093 0.000000 
-0.881226 0.209145 0.000000 
-0.903169 0.268495 0.000000 
-0.928196 0.332539 0.000000 
-2.785442 1.796635 0.000000 
-2.944278 1.735893 0.000000 
-2.855014 1.698747 0.000000 
-2.796189 1.638667 0.000000 
-2.651235 1.781889 0.000000 
-2.517962 1.771542 0.000000 
-2.394240 1.762379 0.000000 
-2.275192 1.754383 0.000000 
-2.180847 1.729821 0.000000 
-2.099904 1.703342 0.000000 
-2.018420 1.672102 0.000000 
-1.945469 1.676400 0.000000 
-1.885190 1.709740 0.000000 
-1.829736 1.730308 0.000000 
-1.760875 1.755540 0.000000 
-1.680504 1.783964 0.000000 
-1.617798 1.802281 0.000000 
-1.570169 1.816805 0.000000 
-1.527149 1.830995 0.000000 
-1.482581 1.843124 0.000000 
-1.433927 1.849664 0.000000 
-1.386311 1.857579 0.000000 
-1.337319 1.866310 0.000000 
-1.286363 1.873389 0.000000 
-1.235962 1.874107 0.000000 
-1.188452 1.878920 0.000000 
-1.140860 1.888371 0.000000 
-1.091558 1.887680 0.000000 
-1.038962 1.876661 0.000000 
-0.982519 1.857663 0.000000 
-0.922315 1.840921 0.000000 
-0.869867 1.830596 0.000000 
-0.827747 1.824107 0.000000 
-0.785371 1.819195 0.000000 
-0.748025 1.809458 0.000000 
-0.712781 1.799191 0.000000 
-0.681690 1.785259 0.000000 
-0.657198 1.774125 0.000000 
-0.633895 1.767461 0.000000 
-0.612002 1.763006 0.000000 
-0.594184 1.755793 0.000000 
-0.577381 1.746343 0.000000 
-0.560109 1.731060 0.000000 
-0.540091 1.698605 0.000000 
-1.243914 0.059760 0.000000 
-1.232782 0.073477 0.000000 
-1.257376 0.045406 0.000000 
-1.224378 0.092176 0.000000 
-1.271472 0.026060 0.000000 
-1.215702 0.114173 0.000000 
-1.204660 0.140230 0.000000 
-1.290143 -0.001681 0.000000 
-1.314447 -0.046721 0.000000 
-1.190204 0.170536 0.000000 
-1.318041 -0.100075 0.000000 
-1.171655 0.204692 0.000000 
-1.149359 0.241007 0.000000 
-1.123094 0.279255 0.000000 
-1.284246 -0.150055 0.000000 
-1.239750 -0.200781 0.000000 
-1.083297 0.323247 0.000000 
-1.028190 0.354918 0.000000 
-1.181630 -0.243138 0.000000 
-1.112789 -0.274565 0.000000 
-1.040643 -0.286735 0.000000 
-0.978118 -0.289822 0.000000 
-0.927392 -0.302848 0.000000 
-0.889718 -0.341982 0.000000 
-0.873564 -0.398533 0.000000 
-0.920771 -0.430727 0.000000 
-0.935346 -0.363458 0.000000 
-0.991249 -0.440302 0.000000 
-1.088918 -0.437574 0.000000 
-1.067426 -0.357922 0.000000 
-1.189474 -0.430011 0.000000 
-1.147229 -0.345255 0.000000 
-1.266509 -0.406721 0.000000 
-1.219913 -0.319078 0.000000 
-1.335307 -0.370894 0.000000 
-1.284456 -0.281079 0.000000 
-1.402357 -0.326990 0.000000 
-1.341444 -0.233278 0.000000 
-1.466758 -0.274315 0.000000 
-1.539152 -0.213516 0.000000 
-1.393011 -0.175347 0.000000 
-1.612839 -0.143244 0.000000 
-1.665320 -0.085666 0.000000 
-1.691220 -0.020839 0.000000 
-1.704696 0.064654 0.000000 
-1.850073 0.231523 0.000000 
-1.911042 0.175699 0.000000 
-1.969645 0.118862 0.000000 
-1.726970 0.171065 0.000000 
-0.222881 0.378895 0.000000 
-0.195707 0.351312 0.000000 
-0.164205 0.314364 0.000000 
-0.127520 0.281666 0.000000 
-0.095686 0.252175 0.000000 
-0.059027 0.223697 0.000000 
-0.018954 0.193713 0.000000 
0.030296 0.162443 0.000000 
0.086536 0.141917 0.000000 
0.141893 0.123185 0.000000 
0.202102 0.093906 0.000000 
0.263408 0.053989 0.000000 
0.311661 0.004002 0.000000 
0.333954 -0.055621 0.000000 
0.338621 -0.116071 0.000000 
0.341530 -0.170009 0.000000 
0.353165 -0.220198 0.000000 
0.365710 -0.278621 0.000000 
0.363543 -0.348149 0.000000 
[...]
POINT_DATA 899 
VECTORS X_GC float 
-3.648847 2.318914 0.000000 
-3.619410 2.278362 0.000000 
-3.578536 2.242768 0.000000 
-3.540028 2.207117 0.000000 
-3.511690 2.174922 0.000000 
-3.481362 2.145063 0.000000 
-3.451569 2.104390 0.000000 
0.772356 2.221428 0.000000 
0.774615 2.195307 0.000000 
0.769962 2.166553 0.000000 
-3.399514 2.074114 0.000000 
0.413960 -0.570728 0.000000 
0.455573 -0.566425 0.000000 
-1.762619 -0.470624 0.000000 
-1.783389 -0.435227 0.000000 
-1.714437 -0.406438 0.000000 
0.732567 2.215753 0.000000 
0.698438 2.201917 0.000000 
0.491831 -0.552223 0.000000 
0.519501 -0.521818 0.000000 
0.530556 -0.481371 0.000000 
0.532354 -0.435567 0.000000 
0.531774 -0.385060 0.000000 
-3.460923 2.012381 0.000000 
0.663989 2.179971 0.000000 
0.631675 2.152576 0.000000 
0.601833 2.128520 0.000000 
0.569607 2.105263 0.000000 
0.534059 2.083185 0.000000 
0.492599 2.062045 0.000000 
0.444403 2.043381 0.000000 
0.762807 2.125579 0.000000 
-1.708694 -0.372056 0.000000 
-1.726386 -0.331792 0.000000 
-1.761257 -0.307771 0.000000 
-1.812853 -0.299923 0.000000 
-0.690422 -0.552258 0.000000 
-0.624256 -0.570186 0.000000 
-0.561079 -0.578368 0.000000 
-0.500739 -0.579823 0.000000 
-0.445387 -0.579885 0.000000 
0.532260 -0.325976 0.000000 
0.536647 -0.256643 0.000000 
-1.881389 -0.287422 0.000000 
-0.389303 -0.577611 0.000000 
-0.340338 -0.562326 0.000000 
-0.344339 -0.508191 0.000000 
-0.358558 -0.455651 0.000000 
-0.381750 -0.414740 0.000000 
-0.406193 -0.380565 0.000000 
-0.417316 -0.349067 0.000000 
-0.428320 -0.314810 0.000000 
-0.436973 -0.270546 0.000000 
-0.444212 -0.215003 0.000000 
-0.452662 -0.156145 0.000000 
-0.468602 -0.099246 0.000000 
0.553166 -0.191928 0.000000 
0.573193 -0.134257 0.000000 
0.574450 -0.082517 0.000000 
0.561087 -0.032197 0.000000 
0.550432 0.023126 0.000000 
0.748903 2.072261 0.000000 
0.730940 2.015769 0.000000 
0.715868 1.969609 0.000000 
0.699446 1.933481 0.000000 
0.684888 1.892492 0.000000 
0.675900 1.846287 0.000000 
0.669871 1.796728 0.000000 
0.664455 1.748871 0.000000 
0.668163 1.702451 0.000000 
0.672091 1.652618 0.000000 
0.674558 1.604594 0.000000 
0.673045 1.554515 0.000000 
0.386491 2.033700 0.000000 
0.664855 1.495776 0.000000 
0.652298 1.437698 0.000000 
0.638456 1.384048 0.000000 
0.623121 1.334538 0.000000 
0.616008 1.291511 0.000000 
0.600787 1.256569 0.000000 
0.571289 1.227120 0.000000 
0.539016 1.195959 0.000000 
0.513857 1.167060 0.000000 
0.493343 1.140825 0.000000 
0.469109 1.123012 0.000000 
0.444920 1.106568 0.000000 
0.415324 1.085602 0.000000 
0.383540 1.060850 0.000000 
0.356179 1.031517 0.000000 
0.343879 0.992618 0.000000 
0.337476 0.947097 0.000000 
0.332404 0.901811 0.000000 
0.328512 0.862121 0.000000 
0.319594 0.826041 0.000000 
0.304149 0.792631 0.000000 
0.290502 0.752240 0.000000 
0.275896 0.704377 0.000000 
0.261905 0.662408 0.000000 
0.250150 0.628813 0.000000 
0.250896 0.591008 0.000000 
0.259587 0.548405 0.000000 
0.284617 0.505632 0.000000 
0.315237 0.475970 0.000000 
0.340022 0.456534 0.000000 
0.354380 0.430685 0.000000 
0.368685 0.403542 0.000000 
0.385568 0.377146 0.000000 
0.415372 0.352349 0.000000 
0.447119 0.320636 0.000000 
0.477633 0.292720 0.000000 
0.503078 0.264783 0.000000 
0.518876 0.226729 0.000000 
0.527127 0.190761 0.000000 
0.534187 0.146215 0.000000 
0.543185 0.085435 0.000000 
0.322519 2.022644 0.000000 
0.263849 2.009528 0.000000 
0.208223 2.004108 0.000000 
0.150441 2.000279 0.000000 
-0.687392 -0.479191 0.000000 
-3.327058 2.047882 0.000000 
-3.276080 2.001461 0.000000 
-3.224941 1.967874 0.000000 
-3.181728 1.938715 0.000000 
-3.135074 1.901785 0.000000 
-3.078123 1.877492 0.000000 
-1.944260 -0.242544 0.000000 
0.083204 2.005436 0.000000 
0.005786 2.000083 0.000000 
-0.071812 2.009321 0.000000 
-0.135705 2.038863 0.000000 
-0.182391 2.080468 0.000000 
-1.999041 -0.171576 0.000000 
-1.843230 -0.446084 0.000000 
-0.491126 -0.035286 0.000000 
-0.512312 0.037957 0.000000 
-0.526535 0.100790 0.000000 
-0.527935 0.162912 0.000000 
-0.524207 0.230081 0.000000 
-0.505864 0.287213 0.000000 
-0.468875 0.336425 0.000000 
-0.410369 0.365670 0.000000 
-0.354013 0.386787 0.000000 
-0.301050 0.396733 0.000000 
-0.255730 0.397505 0.000000 
-0.695595 -0.400896 0.000000 
-0.726457 -0.324014 0.000000 
-0.747352 -0.254559 0.000000 
-3.396487 1.990747 0.000000 
-3.344056 1.911359 0.000000 
-3.294256 1.867958 0.000000 
-3.248246 1.829634 0.000000 
-3.196818 1.790280 0.000000 
-3.159669 1.738970 0.000000 
-3.113281 1.692265 0.000000 
-3.056061 1.672702 0.000000 
-2.996684 1.650077 0.000000 
-2.933161 1.620461 0.000000 
-2.879064 1.584318 0.000000 
-2.813006 1.559533 0.000000 
-2.751664 1.536483 0.000000 
-2.686782 1.507160 0.000000 
-1.922020 -0.443277 0.000000 
-1.999705 -0.444776 0.000000 
-2.060018 -0.423172 0.000000 
-2.032615 -0.088185 0.000000 
-2.048550 -0.002463 0.000000 
-2.029059 0.063430 0.000000 
-2.105228 -0.366114 0.000000 
-2.154373 -0.298520 0.000000 
-2.203584 -0.243896 0.000000 
-2.237020 -0.182460 0.000000 
-2.250593 -0.117168 0.000000 
-2.270119 -0.045384 0.000000 
-2.297898 0.024927 0.000000 
-2.327118 0.086506 0.000000 
-2.346747 0.140476 0.000000 
-2.362840 0.193586 0.000000 
-2.374561 0.244631 0.000000 
-2.373128 0.296606 0.000000 
-2.334174 0.363196 0.000000 
-2.331842 0.403814 0.000000 
-2.284565 0.412573 0.000000 
-0.236368 2.130004 0.000000 
-0.299146 2.173830 0.000000 
-0.346614 2.193755 0.000000 
-0.382877 2.157252 0.000000 
-0.412447 2.128203 0.000000 
-0.433989 2.087915 0.000000 
-0.446472 2.044949 0.000000 
-0.451628 2.005630 0.000000 
-0.451047 1.967168 0.000000 
-0.449242 1.931165 0.000000 
-0.453345 1.899275 0.000000 
-0.460251 1.871582 0.000000 
-0.470304 1.842796 0.000000 
-0.475290 1.813306 0.000000 
-0.478341 1.783521 0.000000 
-0.479442 1.746785 0.000000 
-2.609147 1.493370 0.000000 
-2.517189 1.487872 0.000000 
-2.434013 1.488209 0.000000 
-2.352624 1.478177 0.000000 
-2.274410 1.458806 0.000000 
-2.204499 1.424158 0.000000 
-2.180326 1.355275 0.000000 
-2.178559 1.266739 0.000000 
-2.168273 1.176710 0.000000 
-2.159086 1.078646 0.000000 
-2.144575 0.989487 0.000000 
-2.163040 0.914270 0.000000 
-2.183612 0.840178 0.000000 
-2.172907 0.775620 0.000000 
-2.161614 0.712865 0.000000 
-2.169833 0.652753 0.000000 
-2.188987 0.591000 0.000000 
-2.218663 0.539755 0.000000 
-2.229021 0.483881 0.000000 
-2.997130 1.860696 0.000000 
-3.021908 1.762558 0.000000 
-2.902046 1.829188 0.000000 
-0.770600 -0.171965 0.000000 
-0.790096 -0.080306 0.000000 
-0.811857 0.000401 0.000000 
-0.835807 0.078965 0.000000 
-0.859157 0.149093 0.000000 
-0.881226 0.209145 0.000000 
-0.903169 0.268495 0.000000 
-0.928196 0.332539 0.000000 
-2.785442 1.796635 0.000000 
-2.944278 1.735893 0.000000 
-2.855014 1.698747 0.000000 
-2.796189 1.638667 0.000000 
-2.651235 1.781889 0.000000 
-2.517962 1.771542 0.000000 
-2.394240 1.762379 0.000000 
-2.275192 1.754383 0.000000 
-2.180847 1.729821 0.000000 
-2.099904 1.703342 0.000000 
-2.018420 1.672102 0.000000 
-1.945469 1.676400 0.000000 
-1.885190 1.709740 0.000000 
-1.829736 1.730308 0.000000 
-1.760875 1.755540 0.000000 
-1.680504 1.783964 0.000000 
-1.617798 1.802281 0.000000 
-1.570169 1.816805 0.000000 
-1.527149 1.830995 0.000000 
-1.482581 1.843124 0.000000 
-1.433927 1.849664 0.000000 
-1.386311 1.857579 0.000000 
-1.337319 1.866310 0.000000 
-1.286363 1.873389 0.000000 
-1.235962 1.874107 0.000000 
-1.188452 1.878920 0.000000 
-1.140860 1.888371 0.000000 
-1.091558 1.887680 0.000000 
-1.038962 1.876661 0.000000 
-0.982519 1.857663 0.000000 
-0.922315 1.840921 0.000000 
-0.869867 1.830596 0.000000 
-0.827747 1.824107 0.000000 
-0.785371 1.819195 0.000000 
-0.748025 1.809458 0.000000 
-0.712781 1.799191 0.000000 
-0.681690 1.785259 0.000000 
-0.657198 1.774125 0.000000 
-0.633895 1.767461 0.000000 
-0.612002 1.763006 0.000000 
-0.594184 1.755793 0.000000 
-0.577381 1.746343 0.000000 
-0.560109 1.731060 0.000000 
-0.540091 1.698605 0.000000 
-1.243914 0.059760 0.000000 
-1.232782 0.073477 0.000000 
-1.257376 0.045406 0.000000 
-1.224378 0.092176 0.000000 
-1.271472 0.026060 0.000000 
-1.215702 0.114173 0.000000 
-1.204660 0.140230 0.000000 
-1.290143 -0.001681 0.000000 
-1.314447 -0.046721 0.000000 
-1.190204 0.170536 0.000000 
-1.318041 -0.100075 0.000000 
-1.171655 0.204692 0.000000 
-1.149359 0.241007 0.000000 
-1.123094 0.279255 0.000000 
-1.284246 -0.150055 0.000000 
-1.239750 -0.200781 0.000000 
-1.083297 0.323247 0.000000 
-1.028190 0.354918 0.000000 
-1.181630 -0.243138 0.000000 
-1.112789 -0.274565 0.000000 
-1.040643 -0.286735 0.000000 
-0.978118 -0.289822 0.000000 
-0.927392 -0.302848 0.000000 
-0.889718 -0.341982 0.000000 
-0.873564 -0.398533 0.000000 
-0.920771 -0.430727 0.000000 
-0.935346 -0.363458 0.000000 
-0.991249 -0.440302 0.000000 
-1.088918 -0.437574 0.000000 
-1.067426 -0.357922 0.000000 
-1.189474 -0.430011 0.000000 
-1.147229 -0.345255 0.000000 
-1.266509 -0.406721 0.000000 
-1.219913 -0.319078 0.000000 
-1.335307 -0.370894 0.000000 
-1.284456 -0.281079 0.000000 
-1.402357 -0.326990 0.000000 
-1.341444 -0.233278 0.000000 
-1.466758 -0.274315 0.000000 
-1.539152 -0.213516 0.000000 
-1.393011 -0.175347 0.000000 
-1.612839 -0.143244 0.000000 
-1.665320 -0.085666 0.000000 
-1.691220 -0.020839 0.000000 
-1.704696 0.064654 0.000000 
-1.850073 0.231523 0.000000 
-1.911042 0.175699 0.000000 
-1.969645 0.118862 0.000000 
-1.726970 0.171065 0.000000 
-0.222881 0.378895 0.000000 
-0.195707 0.351312 0.000000 
-0.164205 0.314364 0.000000 
-0.127520 0.281666 0.000000 
-0.095686 0.252175 0.000000 
-0.059027 0.223697 0.000000 
-0.018954 0.193713 0.000000 
0.030296 0.162443 0.000000 
0.086536 0.141917 0.000000 
0.141893 0.123185 0.000000 
0.202102 0.093906 0.000000 
0.263408 0.053989 0.000000 
0.311661 0.004002 0.000000 
0.333954 -0.055621 0.000000 
0.338621 -0.116071 0.000000 
0.341530 -0.170009 0.000000 
0.353165 -0.220198 0.000000 
0.365710 -0.278621 0.000000 
0.363543 -0.348149 0.000000 
0.357353 -0.410264 0.000000 
0.351188 -0.461007 0.000000 
0.363842 -0.508035 0.000000 
-1.737069 -0.374686 0.000000 
-0.199590 0.431512 0.000000 
-0.156305 0.401596 0.000000 
-0.462327 1.667552 0.000000 
0.741313 2.190126 0.000000 
0.482415 -0.518806 0.000000 
0.446104 -0.526702 0.000000 
0.403556 -0.532356 0.000000 
-0.104001 0.373531 0.000000 
-0.514998 1.599606 0.000000 
-0.059937 0.339126 0.000000 
0.738519 2.164861 0.000000 
0.714572 2.177162 0.000000 
-0.249752 0.458336 0.000000 
-0.036232 0.295328 0.000000 
0.000772 0.267496 0.000000 
0.035161 0.241851 0.000000 
-1.776537 -0.374127 0.000000 
-1.836238 -0.369943 0.000000 
-0.309416 0.472436 0.000000 
-0.378944 0.470171 0.000000 
-2.292732 0.349760 0.000000 
-2.315166 0.299769 0.000000 
-2.314418 0.252212 0.000000 
-2.293418 0.205825 0.000000 
-2.279687 0.155946 0.000000 
-2.253462 0.108681 0.000000 
0.075120 0.214108 0.000000 
0.131113 0.201500 0.000000 
-0.977004 0.403484 0.000000 
-0.860050 0.393318 0.000000 
-1.912142 -0.361886 0.000000 
-1.989966 -0.370667 0.000000 
-2.023752 -0.303125 0.000000 
-2.082175 -0.231864 0.000000 
0.723889 2.133348 0.000000 
0.691466 2.152191 0.000000 
0.665980 2.119544 0.000000 
0.704783 2.092276 0.000000 
0.637970 2.081486 0.000000 
0.681732 2.045068 0.000000 
0.670916 1.998892 0.000000 
0.602858 2.049818 0.000000 
0.659584 1.958469 0.000000 
0.560783 2.023447 0.000000 
0.636111 1.922394 0.000000 
0.607495 1.872603 0.000000 
0.595324 1.809123 0.000000 
0.604052 1.744449 0.000000 
0.514160 1.994044 0.000000 
0.453857 1.966599 0.000000 
0.392525 1.964620 0.000000 
0.334098 1.963092 0.000000 
0.278675 1.944338 0.000000 
0.217273 1.926263 0.000000 
0.149449 1.908907 0.000000 
0.614128 1.692174 0.000000 
0.621313 1.644594 0.000000 
0.624262 1.599715 0.000000 
-2.197766 0.055492 0.000000 
-2.158682 -0.019431 0.000000 
-2.124695 0.114822 0.000000 
-2.150589 -0.185558 0.000000 
-2.141926 -0.108012 0.000000 
-0.393439 -0.524572 0.000000 
-0.412631 -0.480529 0.000000 
-0.436983 -0.439925 0.000000 
-0.445953 -0.396506 0.000000 
-0.458251 -0.363680 0.000000 
-0.479726 -0.328913 0.000000 
-0.496934 -0.280183 0.000000 
-0.509002 -0.225099 0.000000 
-0.517157 -0.170768 0.000000 
-0.545309 -0.119493 0.000000 
-0.442273 -0.521966 0.000000 
-0.496002 -0.512449 0.000000 
-0.557668 -0.514556 0.000000 
-0.618975 -0.499076 0.000000 
-0.334659 2.131943 0.000000 
-0.367985 2.102225 0.000000 
-0.385153 2.065799 0.000000 
-0.396797 2.031932 0.000000 
-0.406285 1.996410 0.000000 
-0.402558 1.957277 0.000000 
-0.406645 1.918834 0.000000 
-0.418378 1.886419 0.000000 
-0.428059 1.857294 0.000000 
-0.435849 1.827746 0.000000 
-0.442335 1.797712 0.000000 
-0.445406 1.764646 0.000000 
-0.444483 1.718930 0.000000 
0.619822 1.553983 0.000000 
-1.077870 0.450548 0.000000 
-1.149036 0.408589 0.000000 
-1.174735 0.333746 0.000000 
-1.192231 0.282023 0.000000 
-1.210811 0.240247 0.000000 
-1.228352 0.200907 0.000000 
-1.238869 0.162927 0.000000 
-1.244643 0.131430 0.000000 
-1.248534 0.106529 0.000000 
-1.252336 0.087241 0.000000 
-1.262323 0.073989 0.000000 
-1.280319 0.063073 0.000000 
-0.451814 0.447511 0.000000 
-0.526928 0.403989 0.000000 
0.194935 0.184508 0.000000 
0.069048 1.894808 0.000000 
-0.574175 0.333305 0.000000 
-0.593607 0.252202 0.000000 
-1.764101 0.291887 0.000000 
-2.210991 0.410743 0.000000 
-0.825996 0.308041 0.000000 
-0.799223 0.236961 0.000000 
-0.760911 0.170528 0.000000 
0.605964 1.503031 0.000000 
0.587834 1.445671 0.000000 
0.576354 1.385823 0.000000 
0.574971 1.330814 0.000000 
0.580375 1.287789 0.000000 
0.545179 1.265405 0.000000 
0.509957 1.233143 0.000000 
0.484198 1.196741 0.000000 
0.468721 1.165586 0.000000 
0.449386 1.147055 0.000000 
0.422962 1.134390 0.000000 
0.391379 1.115239 0.000000 
0.357154 1.091175 0.000000 
0.323730 1.062803 0.000000 
-0.582151 -0.058625 0.000000 
0.265957 0.158078 0.000000 
0.333763 0.111949 0.000000 
0.378371 0.044933 0.000000 
0.400918 -0.029462 0.000000 
0.401084 -0.092450 0.000000 
0.404345 -0.146551 0.000000 
0.432648 -0.197633 0.000000 
0.450030 -0.262074 0.000000 
0.529803 -0.108921 0.000000 
0.491947 -0.157058 0.000000 
0.453243 -0.107175 0.000000 
0.449550 -0.336398 0.000000 
0.498420 -0.063048 0.000000 
0.474171 -0.003106 0.000000 
0.457863 0.071467 0.000000 
0.462195 -0.395053 0.000000 
0.478704 -0.441388 0.000000 
0.483460 -0.482354 0.000000 
0.412910 -0.420694 0.000000 
0.398390 -0.459408 0.000000 
0.404290 -0.493695 0.000000 
0.442452 -0.489137 0.000000 
0.436659 -0.453972 0.000000 
-0.727378 0.096395 0.000000 
-0.616071 0.178413 0.000000 
-0.623548 0.104132 0.000000 
-0.605779 0.023125 0.000000 
-0.706340 0.010676 0.000000 
-0.681483 -0.075585 0.000000 
-0.032304 1.889247 0.000000 
-0.128010 1.925397 0.000000 
-0.195732 1.992520 0.000000 
-0.243911 2.046434 0.000000 
-0.287859 2.093838 0.000000 
-0.335518 2.066142 0.000000 
-0.667608 -0.160966 0.000000 
-0.584906 -0.167734 0.000000 
-0.658169 -0.240975 0.000000 
-0.578442 -0.233105 0.000000 
-0.639050 -0.312417 0.000000 
-0.607982 -0.387934 0.000000 
-0.562541 -0.295804 0.000000 
-0.536184 -0.356827 0.000000 
-0.495978 -0.394789 0.000000 
-0.500680 -0.447183 0.000000 
-0.573051 -0.451636 0.000000 
-2.690892 1.662541 0.000000 
-2.684799 1.576529 0.000000 
-2.602920 1.575267 0.000000 
-2.574381 1.660260 0.000000 
-2.518122 1.595134 0.000000 
-2.424460 1.619032 0.000000 
-2.320006 1.610101 0.000000 
-2.229986 1.586483 0.000000 
-2.146342 1.545243 0.000000 
-1.455055 -0.116366 0.000000 
-1.387692 -0.036042 0.000000 
-1.339496 0.017286 0.000000 
-1.304977 0.045846 0.000000 
-1.531301 -0.050873 0.000000 
-1.604385 -0.006760 0.000000 
-1.592423 0.093920 0.000000 
-1.608296 0.217883 0.000000 
-1.827918 0.416329 0.000000 
0.477873 0.185132 0.000000 
0.477147 0.220031 0.000000 
0.465631 0.254271 0.000000 
-0.587742 1.698480 0.000000 
-0.593403 1.722584 0.000000 
-0.604579 1.735239 0.000000 
-0.619289 1.740926 0.000000 
-0.639577 1.738752 0.000000 
-0.665912 1.740368 0.000000 
-0.697937 1.747355 0.000000 
-0.595692 1.644992 0.000000 
-0.726123 1.762167 0.000000 
-0.757398 1.772737 0.000000 
-0.794522 1.770162 0.000000 
-0.841416 1.767584 0.000000 
-0.894922 1.768945 0.000000 
-0.956071 1.777360 0.000000 
-1.020951 1.796282 0.000000 
-1.077937 1.823917 0.000000 
-1.120258 1.852645 0.000000 
-1.171769 1.828385 0.000000 
0.332207 0.381776 0.000000 
0.333662 0.340040 0.000000 
0.321472 0.410392 0.000000 
0.302407 0.437205 0.000000 
0.214022 0.451867 0.000000 
0.194081 0.512891 0.000000 
0.186716 0.568404 0.000000 
0.189303 0.621176 0.000000 
0.360023 0.300359 0.000000 
0.405131 0.275225 0.000000 
0.201671 0.670422 0.000000 
0.218038 0.720683 0.000000 
0.236652 0.769617 0.000000 
0.256885 0.811551 0.000000 
0.278373 0.840045 0.000000 
0.284019 0.873443 0.000000 
0.276718 0.920190 0.000000 
0.278735 0.977003 0.000000 
0.296322 1.027271 0.000000 
-1.507867 1.780142 0.000000 
-1.548116 1.755500 0.000000 
-1.598023 1.728121 0.000000 
-1.467251 1.794916 0.000000 
-1.422160 1.802200 0.000000 
-1.373311 1.808916 0.000000 
-1.322903 1.816692 0.000000 
-1.275577 1.825938 0.000000 
-1.225048 1.824539 0.000000 
-1.662214 1.704451 0.000000 
-1.732600 1.684511 0.000000 
-1.794687 1.670136 0.000000 
-1.841773 1.640949 0.000000 
-2.078405 0.708221 0.000000 
-2.079214 0.786811 0.000000 
-2.097651 0.630621 0.000000 
-2.129318 0.558883 0.000000 
-2.096743 0.867373 0.000000 
-2.169699 0.503539 0.000000 
-1.991686 0.430539 0.000000 
-1.642187 0.356095 0.000000 
-1.989898 0.263314 0.000000 
-2.064526 0.191502 0.000000 
-1.914688 0.336849 0.000000 
-2.037969 1.119925 0.000000 
-2.021377 1.004240 0.000000 
-2.055796 1.249087 0.000000 
-2.102728 1.351740 0.000000 
-2.047875 1.494042 0.000000 
0.428030 0.240773 0.000000 
0.375625 0.219537 0.000000 
0.313454 0.232638 0.000000 
0.290352 0.378673 0.000000 
0.238487 1.089590 0.000000 
0.440631 0.202666 0.000000 
0.396678 0.162889 0.000000 
0.460488 0.136968 0.000000 
0.523747 1.313080 0.000000 
-2.262588 0.276335 0.000000 
-2.220468 0.332362 0.000000 
-2.218579 0.222824 0.000000 
-2.146376 0.274674 0.000000 
-2.206503 0.157753 0.000000 
0.473879 1.274468 0.000000 
0.446488 1.222137 0.000000 
0.440978 1.178118 0.000000 
0.409581 1.170263 0.000000 
0.629179 1.999158 0.000000 
0.593839 1.966685 0.000000 
0.550362 1.922481 0.000000 
0.483841 1.882058 0.000000 
0.202470 1.023226 0.000000 
0.241245 0.875450 0.000000 
0.205152 0.850650 0.000000 
0.175878 0.802509 0.000000 
0.153326 0.744003 0.000000 
0.132079 0.683553 0.000000 
0.113278 0.619097 0.000000 
0.106000 0.550774 0.000000 
0.109640 0.481577 0.000000 
0.121648 0.410899 0.000000 
0.032483 0.321285 0.000000 
0.246820 0.403964 0.000000 
0.099619 0.269651 0.000000 
0.373127 1.155381 0.000000 
-0.307911 2.018520 0.000000 
-0.360136 2.000051 0.000000 
-0.343252 1.945706 0.000000 
-0.270247 1.953850 0.000000 
0.168337 0.266169 0.000000 
0.242346 0.255832 0.000000 
0.270369 0.324868 0.000000 
0.505525 1.380842 0.000000 
-0.689828 0.208097 0.000000 
-0.729540 0.265501 0.000000 
-0.746154 0.339973 0.000000 
-0.657668 0.356537 0.000000 
-0.661195 0.272251 0.000000 
-0.924642 0.509213 0.000000 
-1.137284 1.772576 0.000000 
-1.072920 1.727982 0.000000 
-1.248127 1.784873 0.000000 
-1.304069 1.768551 0.000000 
-1.360197 1.760891 0.000000 
-1.411221 1.756751 0.000000 
-1.453165 1.753521 0.000000 
-1.486003 1.736060 0.000000 
-1.510814 1.692590 0.000000 
-1.558800 1.647921 0.000000 
-0.995058 1.701229 0.000000 
-0.919611 1.690753 0.000000 
-0.852227 1.697685 0.000000 
-0.796966 1.714204 0.000000 
-0.752732 1.733372 0.000000 
-1.635591 1.620588 0.000000 
-1.992480 0.895290 0.000000 
-1.965104 0.785511 0.000000 
-1.974377 0.682178 0.000000 
-2.014368 0.588556 0.000000 
-2.065453 0.505370 0.000000 
-2.071492 0.352303 0.000000 
-2.131272 0.435840 0.000000 
-1.712039 1.607265 0.000000 
-1.781280 1.607216 0.000000 
-1.884796 1.577159 0.000000 
0.516332 1.796822 0.000000 
0.538779 1.725694 0.000000 
0.517174 1.455227 0.000000 
0.552532 1.517163 0.000000 
0.576896 1.559090 0.000000 
0.583356 1.596116 0.000000 
0.576083 1.633121 0.000000 
0.562288 1.675481 0.000000 