# vtk DataFile Version 3.0 
vtk output 
ASCII 
DATASET UNSTRUCTURED_GRID 
POINTS 899 float 
-3.648847 2.288307 0.000000 
-3.619410 2.247755 0.000000 
-3.578536 2.212161 0.000000 
-3.540028 2.176510 0.000000 
-3.511690 2.144314 0.000000 
-3.481362 2.114456 0.000000 
-3.451569 2.073783 0.000000 
0.772356 2.190821 0.000000 
0.774615 2.164700 0.000000 
0.769962 2.135946 0.000000 
-3.399514 2.043507 0.000000 
0.413960 -0.601335 0.000000 
0.455573 -0.597033 0.000000 
-1.762619 -0.501231 0.000000 
-1.783389 -0.465835 0.000000 
-1.714437 -0.437045 0.000000 
0.732567 2.185146 0.000000 
0.698438 2.171310 0.000000 
0.491831 -0.582830 0.000000 
0.519501 -0.552425 0.000000 
0.530556 -0.511978 0.000000 
0.532354 -0.466174 0.000000 
0.531774 -0.415667 0.000000 
-3.460923 1.981774 0.000000 
0.663989 2.149363 0.000000 
0.631675 2.121969 0.000000 
0.601833 2.097913 0.000000 
0.569607 2.074656 0.000000 
0.534059 2.052578 0.000000 
0.492599 2.031438 0.000000 
0.444403 2.012773 0.000000 
0.762807 2.094972 0.000000 
-1.708694 -0.402663 0.000000 
-1.726386 -0.362399 0.000000 
-1.761257 -0.338379 0.000000 
-1.812853 -0.330530 0.000000 
-0.690422 -0.582866 0.000000 
-0.624256 -0.600793 0.000000 
-0.561079 -0.608975 0.000000 
-0.500739 -0.610430 0.000000 
-0.445387 -0.610493 0.000000 
0.532260 -0.356584 0.000000 
0.536647 -0.287250 0.000000 
-1.881389 -0.318030 0.000000 
-0.389303 -0.608218 0.000000 
-0.340338 -0.592933 0.000000 
-0.344339 -0.538798 0.000000 
-0.358558 -0.486258 0.000000 
-0.381750 -0.445347 0.000000 
-0.406193 -0.411172 0.000000 
-0.417316 -0.379674 0.000000 
-0.428320 -0.345417 0.000000 
-0.436973 -0.301153 0.000000 
-0.444212 -0.245610 0.000000 
-0.452662 -0.186752 0.000000 
-0.468602 -0.129853 0.000000 
0.553166 -0.222535 0.000000 
0.573193 -0.164864 0.000000 
0.574450 -0.113124 0.000000 
0.561087 -0.062804 0.000000 
0.550432 -0.007481 0.000000 
0.748903 2.041654 0.000000 
0.730940 1.985161 0.000000 
0.715868 1.939002 0.000000 
0.699446 1.902874 0.000000 
0.684888 1.861885 0.000000 
0.675900 1.815680 0.000000 
0.669871 1.766120 0.000000 
0.664455 1.718263 0.000000 
0.668163 1.671844 0.000000 
0.672091 1.622010 0.000000 
0.674558 1.573987 0.000000 
0.673045 1.523908 0.000000 
0.386491 2.003093 0.000000 
0.664855 1.465169 0.000000 
0.652298 1.407091 0.000000 
0.638456 1.353441 0.000000 
0.623121 1.303931 0.000000 
0.616008 1.260904 0.000000 
0.600787 1.225962 0.000000 
0.571289 1.196513 0.000000 
0.539016 1.165352 0.000000 
0.513857 1.136453 0.000000 
0.493343 1.110217 0.000000 
0.469109 1.092405 0.000000 
0.444920 1.075960 0.000000 
0.415324 1.054995 0.000000 
0.383540 1.030242 0.000000 
0.356179 1.000910 0.000000 
0.343879 0.962010 0.000000 
0.337476 0.916490 0.000000 
0.332404 0.871204 0.000000 
0.328512 0.831514 0.000000 
0.319594 0.795434 0.000000 
0.304149 0.762023 0.000000 
0.290502 0.721632 0.000000 
0.275896 0.673770 0.000000 
0.261905 0.631801 0.000000 
0.250150 0.598206 0.000000 
0.250896 0.560401 0.000000 
0.259587 0.517797 0.000000 
0.284617 0.475024 0.000000 
0.315237 0.445363 0.000000 
0.340022 0.425926 0.000000 
0.354380 0.400077 0.000000 
0.368685 0.372935 0.000000 
0.385568 0.346539 0.000000 
0.415372 0.321742 0.000000 
0.447119 0.290029 0.000000 
0.477633 0.262113 0.000000 
0.503078 0.234176 0.000000 
0.518876 0.196122 0.000000 
0.527127 0.160153 0.000000 
0.534187 0.115608 0.000000 
0.543185 0.054828 0.000000 
0.322519 1.992037 0.000000 
0.263849 1.978921 0.000000 
0.208223 1.973501 0.000000 
0.150441 1.969672 0.000000 
-0.687392 -0.509798 0.000000 
-3.327058 2.017275 0.000000 
-3.276080 1.970853 0.000000 
-3.224941 1.937267 0.000000 
-3.181728 1.908108 0.000000 
-3.135074 1.871178 0.000000 
-3.078123 1.846885 0.000000 
-1.944260 -0.273151 0.000000 
0.083204 1.974828 0.000000 
0.005786 1.969475 0.000000 
-0.071812 1.978714 0.000000 
-0.135705 2.008255 0.000000 
-0.182391 2.049861 0.000000 
-1.999041 -0.202183 0.000000 
-1.843230 -0.476691 0.000000 
-0.491126 -0.065893 0.000000 
-0.512312 0.007350 0.000000 
-0.526535 0.070183 0.000000 
-0.527935 0.132304 0.000000 
-0.524207 0.199474 0.000000 
-0.505864 0.256606 0.000000 
-0.468875 0.305818 0.000000 
-0.410369 0.335063 0.000000 
-0.354013 0.356180 0.000000 
-0.301050 0.366126 0.000000 
-0.255730 0.366898 0.000000 
-0.695595 -0.431503 0.000000 
-0.726457 -0.354621 0.000000 
-0.747352 -0.285166 0.000000 
-3.396487 1.960140 0.000000 
-3.344056 1.880752 0.000000 
-3.294256 1.837351 0.000000 
-3.248246 1.799026 0.000000 
-3.196818 1.759673 0.000000 
-3.159669 1.708363 0.000000 
-3.113281 1.661658 0.000000 
-3.056061 1.642095 0.000000 
-2.996684 1.619470 0.000000 
-2.933161 1.589854 0.000000 
-2.879064 1.553711 0.000000 
-2.813006 1.528926 0.000000 
-2.751664 1.505875 0.000000 
-2.686782 1.476552 0.000000 
-1.922020 -0.473885 0.000000 
-1.999705 -0.475383 0.000000 
-2.060018 -0.453780 0.000000 
-2.032615 -0.118792 0.000000 
-2.048550 -0.033070 0.000000 
-2.029059 0.032823 0.000000 
-2.105228 -0.396721 0.000000 
-2.154373 -0.329127 0.000000 
-2.203584 -0.274503 0.000000 
-2.237020 -0.213068 0.000000 
-2.250593 -0.147775 0.000000 
-2.270119 -0.075991 0.000000 
-2.297898 -0.005681 0.000000 
-2.327118 0.055899 0.000000 
-2.346747 0.109869 0.000000 
-2.362840 0.162979 0.000000 
-2.374561 0.214023 0.000000 
-2.373128 0.265999 0.000000 
-2.334174 0.332589 0.000000 
-2.331842 0.373207 0.000000 
-2.284565 0.381966 0.000000 
-0.236368 2.099396 0.000000 
-0.299146 2.143223 0.000000 
-0.346614 2.163148 0.000000 
-0.382877 2.126645 0.000000 
-0.412447 2.097596 0.000000 
-0.433989 2.057308 0.000000 
-0.446472 2.014341 0.000000 
-0.451628 1.975023 0.000000 
-0.451047 1.936561 0.000000 
-0.449242 1.900557 0.000000 
-0.453345 1.868668 0.000000 
-0.460251 1.840975 0.000000 
-0.470304 1.812189 0.000000 
-0.475290 1.782699 0.000000 
-0.478341 1.752914 0.000000 
-0.479442 1.716178 0.000000 
-2.609147 1.462763 0.000000 
-2.517189 1.457265 0.000000 
-2.434013 1.457601 0.000000 
-2.352624 1.447570 0.000000 
-2.274410 1.428199 0.000000 
-2.204499 1.393550 0.000000 
-2.180326 1.324668 0.000000 
-2.178559 1.236131 0.000000 
-2.168273 1.146102 0.000000 
-2.159086 1.048038 0.000000 
-2.144575 0.958880 0.000000 
-2.163040 0.883663 0.000000 
-2.183612 0.809571 0.000000 
-2.172907 0.745013 0.000000 
-2.161614 0.682258 0.000000 
-2.169833 0.622146 0.000000 
-2.188987 0.560393 0.000000 
-2.218663 0.509147 0.000000 
-2.229021 0.453274 0.000000 
-2.997130 1.830088 0.000000 
-3.021908 1.731951 0.000000 
-2.902046 1.798581 0.000000 
-0.770600 -0.202572 0.000000 
-0.790096 -0.110914 0.000000 
-0.811857 -0.030206 0.000000 
-0.835807 0.048358 0.000000 
-0.859157 0.118486 0.000000 
-0.881226 0.178537 0.000000 
-0.903169 0.237888 0.000000 
-0.928196 0.301932 0.000000 
-2.785442 1.766028 0.000000 
-2.944278 1.705286 0.000000 
-2.855014 1.668140 0.000000 
-2.796189 1.608060 0.000000 
-2.651235 1.751282 0.000000 
-2.517962 1.740935 0.000000 
-2.394240 1.731772 0.000000 
-2.275192 1.723775 0.000000 
-2.180847 1.699214 0.000000 
-2.099904 1.672735 0.000000 
-2.018420 1.641495 0.000000 
-1.945469 1.645793 0.000000 
-1.885190 1.679132 0.000000 
-1.829736 1.699701 0.000000 
-1.760875 1.724933 0.000000 
-1.680504 1.753357 0.000000 
-1.617798 1.771674 0.000000 
-1.570169 1.786198 0.000000 
-1.527149 1.800388 0.000000 
-1.482581 1.812517 0.000000 
-1.433927 1.819057 0.000000 
-1.386311 1.826972 0.000000 
-1.337319 1.835702 0.000000 
-1.286363 1.842782 0.000000 
-1.235962 1.843500 0.000000 
-1.188452 1.848313 0.000000 
-1.140860 1.857764 0.000000 
-1.091558 1.857073 0.000000 
-1.038962 1.846054 0.000000 
-0.982519 1.827056 0.000000 
-0.922315 1.810314 0.000000 
-0.869867 1.799989 0.000000 
-0.827747 1.793500 0.000000 
-0.785371 1.788588 0.000000 
-0.748025 1.778851 0.000000 
-0.712781 1.768584 0.000000 
-0.681690 1.754652 0.000000 
-0.657198 1.743518 0.000000 
-0.633895 1.736854 0.000000 
-0.612002 1.732399 0.000000 
-0.594184 1.725186 0.000000 
-0.577381 1.715736 0.000000 
-0.560109 1.700453 0.000000 
-0.540091 1.667998 0.000000 
-1.243914 0.029153 0.000000 
-1.232782 0.042869 0.000000 
-1.257376 0.014799 0.000000 
-1.224378 0.061569 0.000000 
-1.271472 -0.004547 0.000000 
-1.215702 0.083566 0.000000 
-1.204660 0.109623 0.000000 
-1.290143 -0.032288 0.000000 
-1.314447 -0.077328 0.000000 
-1.190204 0.139929 0.000000 
-1.318041 -0.130683 0.000000 
-1.171655 0.174085 0.000000 
-1.149359 0.210400 0.000000 
-1.123094 0.248648 0.000000 
-1.284246 -0.180662 0.000000 
-1.239750 -0.231388 0.000000 
-1.083297 0.292639 0.000000 
-1.028190 0.324311 0.000000 
-1.181630 -0.273745 0.000000 
-1.112789 -0.305172 0.000000 
-1.040643 -0.317343 0.000000 
-0.978118 -0.320429 0.000000 
-0.927392 -0.333455 0.000000 
-0.889718 -0.372589 0.000000 
-0.873564 -0.429140 0.000000 
-0.920771 -0.461334 0.000000 
-0.935346 -0.394065 0.000000 
-0.991249 -0.470909 0.000000 
-1.088918 -0.468181 0.000000 
-1.067426 -0.388529 0.000000 
-1.189474 -0.460618 0.000000 
-1.147229 -0.375862 0.000000 
-1.266509 -0.437328 0.000000 
-1.219913 -0.349685 0.000000 
-1.335307 -0.401501 0.000000 
-1.284456 -0.311686 0.000000 
-1.402357 -0.357597 0.000000 
-1.341444 -0.263885 0.000000 
-1.466758 -0.304922 0.000000 
-1.539152 -0.244123 0.000000 
-1.393011 -0.205954 0.000000 
-1.612839 -0.173851 0.000000 
-1.665320 -0.116273 0.000000 
-1.691220 -0.051447 0.000000 
-1.704696 0.034047 0.000000 
-1.850073 0.200916 0.000000 
-1.911042 0.145091 0.000000 
-1.969645 0.088255 0.000000 
-1.726970 0.140458 0.000000 
-0.222881 0.348288 0.000000 
-0.195707 0.320704 0.000000 
-0.164205 0.283757 0.000000 
-0.127520 0.251059 0.000000 
-0.095686 0.221568 0.000000 
-0.059027 0.193090 0.000000 
-0.018954 0.163106 0.000000 
0.030296 0.131835 0.000000 
0.086536 0.111309 0.000000 
0.141893 0.092578 0.000000 
0.202102 0.063298 0.000000 
0.263408 0.023381 0.000000 
0.311661 -0.026605 0.000000 
0.333954 -0.086228 0.000000 
0.338621 -0.146678 0.000000 
0.341530 -0.200617 0.000000 
0.353165 -0.250805 0.000000 
0.365710 -0.309228 0.000000 
0.363543 -0.378757 0.000000 
[...]
POINT_DATA 899 
VECTORS X_GC float 
-3.648847 2.288307 0.000000 
-3.619410 2.247755 0.000000 
-3.578536 2.212161 0.000000 
-3.540028 2.176510 0.000000 
-3.511690 2.144314 0.000000 
-3.481362 2.114456 0.000000 
-3.451569 2.073783 0.000000 
0.772356 2.190821 0.000000 
0.774615 2.164700 0.000000 
0.769962 2.135946 0.000000 
-3.399514 2.043507 0.000000 
0.413960 -0.601335 0.000000 
0.455573 -0.597033 0.000000 
-1.762619 -0.501231 0.000000 
-1.783389 -0.465835 0.000000 
-1.714437 -0.437045 0.000000 
0.732567 2.185146 0.000000 
0.698438 2.171310 0.000000 
0.491831 -0.582830 0.000000 
0.519501 -0.552425 0.000000 
0.530556 -0.511978 0.000000 
0.532354 -0.466174 0.000000 
0.531774 -0.415667 0.000000 
-3.460923 1.981774 0.000000 
0.663989 2.149363 0.000000 
0.631675 2.121969 0.000000 
0.601833 2.097913 0.000000 
0.569607 2.074656 0.000000 
0.534059 2.052578 0.000000 
0.492599 2.031438 0.000000 
0.444403 2.012773 0.000000 
0.762807 2.094972 0.000000 
-1.708694 -0.402663 0.000000 
-1.726386 -0.362399 0.000000 
-1.761257 -0.338379 0.000000 
-1.812853 -0.330530 0.000000 
-0.690422 -0.582866 0.000000 
-0.624256 -0.600793 0.000000 
-0.561079 -0.608975 0.000000 
-0.500739 -0.610430 0.000000 
-0.445387 -0.610493 0.000000 
0.532260 -0.356584 0.000000 
0.536647 -0.287250 0.000000 
-1.881389 -0.318030 0.000000 
-0.389303 -0.608218 0.000000 
-0.340338 -0.592933 0.000000 
-0.344339 -0.538798 0.000000 
-0.358558 -0.486258 0.000000 
-0.381750 -0.445347 0.000000 
-0.406193 -0.411172 0.000000 
-0.417316 -0.379674 0.000000 
-0.428320 -0.345417 0.000000 
-0.436973 -0.301153 0.000000 
-0.444212 -0.245610 0.000000 
-0.452662 -0.186752 0.000000 
-0.468602 -0.129853 0.000000 
0.553166 -0.222535 0.000000 
0.573193 -0.164864 0.000000 
0.574450 -0.113124 0.000000 
0.561087 -0.062804 0.000000 
0.550432 -0.007481 0.000000 
0.748903 2.041654 0.000000 
0.730940 1.985161 0.000000 
0.715868 1.939002 0.000000 
0.699446 1.902874 0.000000 
0.684888 1.861885 0.000000 
0.675900 1.815680 0.000000 
0.669871 1.766120 0.000000 
0.664455 1.718263 0.000000 
0.668163 1.671844 0.000000 
0.672091 1.622010 0.000000 
0.674558 1.573987 0.000000 
0.673045 1.523908 0.000000 
0.386491 2.003093 0.000000 
0.664855 1.465169 0.000000 
0.652298 1.407091 0.000000 
0.638456 1.353441 0.000000 
0.623121 1.303931 0.000000 
0.616008 1.260904 0.000000 
0.600787 1.225962 0.000000 
0.571289 1.196513 0.000000 
0.539016 1.165352 0.000000 
0.513857 1.136453 0.000000 
0.493343 1.110217 0.000000 
0.469109 1.092405 0.000000 
0.444920 1.075960 0.000000 
0.415324 1.054995 0.000000 
0.383540 1.030242 0.000000 
0.356179 1.000910 0.000000 
0.343879 0.962010 0.000000 
0.337476 0.916490 0.000000 
0.332404 0.871204 0.000000 
0.328512 0.831514 0.000000 
0.319594 0.795434 0.000000 
0.304149 0.762023 0.000000 
0.290502 0.721632 0.000000 
0.275896 0.673770 0.000000 
0.261905 0.631801 0.000000 
0.250150 0.598206 0.000000 
0.250896 0.560401 0.000000 
0.259587 0.517797 0.000000 
0.284617 0.475024 0.000000 
0.315237 0.445363 0.000000 
0.340022 0.425926 0.000000 
0.354380 0.400077 0.000000 
0.368685 0.372935 0.000000 
0.385568 0.346539 0.000000 
0.415372 0.321742 0.000000 
0.447119 0.290029 0.000000 
0.477633 0.262113 0.000000 
0.503078 0.234176 0.000000 
0.518876 0.196122 0.000000 
0.527127 0.160153 0.000000 
0.534187 0.115608 0.000000 
0.543185 0.054828 0.000000 
0.322519 1.992037 0.000000 
0.263849 1.978921 0.000000 
0.208223 1.973501 0.000000 
0.150441 1.969672 0.000000 
-0.687392 -0.509798 0.000000 
-3.327058 2.017275 0.000000 
-3.276080 1.970853 0.000000 
-3.224941 1.937267 0.000000 
-3.181728 1.908108 0.000000 
-3.135074 1.871178 0.000000 
-3.078123 1.846885 0.000000 
-1.944260 -0.273151 0.000000 
0.083204 1.974828 0.000000 
0.005786 1.969475 0.000000 
-0.071812 1.978714 0.000000 
-0.135705 2.008255 0.000000 
-0.182391 2.049861 0.000000 
-1.999041 -0.202183 0.000000 
-1.843230 -0.476691 0.000000 
-0.491126 -0.065893 0.000000 
-0.512312 0.007350 0.000000 
-0.526535 0.070183 0.000000 
-0.527935 0.132304 0.000000 
-0.524207 0.199474 0.000000 
-0.505864 0.256606 0.000000 
-0.468875 0.305818 0.000000 
-0.410369 0.335063 0.000000 
-0.354013 0.356180 0.000000 
-0.301050 0.366126 0.000000 
-0.255730 0.366898 0.000000 
-0.695595 -0.431503 0.000000 
-0.726457 -0.354621 0.000000 
-0.747352 -0.285166 0.000000 
-3.396487 1.960140 0.000000 
-3.344056 1.880752 0.000000 
-3.294256 1.837351 0.000000 
-3.248246 1.799026 0.000000 
-3.196818 1.759673 0.000000 
-3.159669 1.708363 0.000000 
-3.113281 1.661658 0.000000 
-3.056061 1.642095 0.000000 
-2.996684 1.619470 0.000000 
-2.933161 1.589854 0.000000 
-2.879064 1.553711 0.000000 
-2.813006 1.528926 0.000000 
-2.751664 1.505875 0.000000 
-2.686782 1.476552 0.000000 
-1.922020 -0.473885 0.000000 
-1.999705 -0.475383 0.000000 
-2.060018 -0.453780 0.000000 
-2.032615 -0.118792 0.000000 
-2.048550 -0.033070 0.000000 
-2.029059 0.032823 0.000000 
-2.105228 -0.396721 0.000000 
-2.154373 -0.329127 0.000000 
-2.203584 -0.274503 0.000000 
-2.237020 -0.213068 0.000000 
-2.250593 -0.147775 0.000000 
-2.270119 -0.075991 0.000000 
-2.297898 -0.005681 0.000000 
-2.327118 0.055899 0.000000 
-2.346747 0.109869 0.000000 
-2.362840 0.162979 0.000000 
-2.374561 0.214023 0.000000 
-2.373128 0.265999 0.000000 
-2.334174 0.332589 0.000000 
-2.331842 0.373207 0.000000 
-2.284565 0.381966 0.000000 
-0.236368 2.099396 0.000000 
-0.299146 2.143223 0.000000 
-0.346614 2.163148 0.000000 
-0.382877 2.126645 0.000000 
-0.412447 2.097596 0.000000 
-0.433989 2.057308 0.000000 
-0.446472 2.014341 0.000000 
-0.451628 1.975023 0.000000 
-0.451047 1.936561 0.000000 
-0.449242 1.900557 0.000000 
-0.453345 1.868668 0.000000 
-0.460251 1.840975 0.000000 
-0.470304 1.812189 0.000000 
-0.475290 1.782699 0.000000 
-0.478341 1.752914 0.000000 
-0.479442 1.716178 0.000000 
-2.609147 1.462763 0.000000 
-2.517189 1.457265 0.000000 
-2.434013 1.457601 0.000000 
-2.352624 1.447570 0.000000 
-2.274410 1.428199 0.000000 
-2.204499 1.393550 0.000000 
-2.180326 1.324668 0.000000 
-2.178559 1.236131 0.000000 
-2.168273 1.146102 0.000000 
-2.159086 1.048038 0.000000 
-2.144575 0.958880 0.000000 
-2.163040 0.883663 0.000000 
-2.183612 0.809571 0.000000 
-2.172907 0.745013 0.000000 
-2.161614 0.682258 0.000000 
-2.169833 0.622146 0.000000 
-2.188987 0.560393 0.000000 
-2.218663 0.509147 0.000000 
-2.229021 0.453274 0.000000 
-2.997130 1.830088 0.000000 
-3.021908 1.731951 0.000000 
-2.902046 1.798581 0.000000 
-0.770600 -0.202572 0.000000 
-0.790096 -0.110914 0.000000 
-0.811857 -0.030206 0.000000 
-0.835807 0.048358 0.000000 
-0.859157 0.118486 0.000000 
-0.881226 0.178537 0.000000 
-0.903169 0.237888 0.000000 
-0.928196 0.301932 0.000000 
-2.785442 1.766028 0.000000 
-2.944278 1.705286 0.000000 
-2.855014 1.668140 0.000000 
-2.796189 1.608060 0.000000 
-2.651235 1.751282 0.000000 
-2.517962 1.740935 0.000000 
-2.394240 1.731772 0.000000 
-2.275192 1.723775 0.000000 
-2.180847 1.699214 0.000000 
-2.099904 1.672735 0.000000 
-2.018420 1.641495 0.000000 
-1.945469 1.645793 0.000000 
-1.885190 1.679132 0.000000 
-1.829736 1.699701 0.000000 
-1.760875 1.724933 0.000000 
-1.680504 1.753357 0.000000 
-1.617798 1.771674 0.000000 
-1.570169 1.786198 0.000000 
-1.527149 1.800388 0.000000 
-1.482581 1.812517 0.000000 
-1.433927 1.819057 0.000000 
-1.386311 1.826972 0.000000 
-1.337319 1.835702 0.000000 
-1.286363 1.842782 0.000000 
-1.235962 1.843500 0.000000 
-1.188452 1.848313 0.000000 
-1.140860 1.857764 0.000000 
-1.091558 1.857073 0.000000 
-1.038962 1.846054 0.000000 
-0.982519 1.827056 0.000000 
-0.922315 1.810314 0.000000 
-0.869867 1.799989 0.000000 
-0.827747 1.793500 0.000000 
-0.785371 1.788588 0.000000 
-0.748025 1.778851 0.000000 
-0.712781 1.768584 0.000000 
-0.681690 1.754652 0.000000 
-0.657198 1.743518 0.000000 
-0.633895 1.736854 0.000000 
-0.612002 1.732399 0.000000 
-0.594184 1.725186 0.000000 
-0.577381 1.715736 0.000000 
-0.560109 1.700453 0.000000 
-0.540091 1.667998 0.000000 
-1.243914 0.029153 0.000000 
-1.232782 0.042869 0.000000 
-1.257376 0.014799 0.000000 
-1.224378 0.061569 0.000000 
-1.271472 -0.004547 0.000000 
-1.215702 0.083566 0.000000 
-1.204660 0.109623 0.000000 
-1.290143 -0.032288 0.000000 
-1.314447 -0.077328 0.000000 
-1.190204 0.139929 0.000000 
-1.318041 -0.130683 0.000000 
-1.171655 0.174085 0.000000 
-1.149359 0.210400 0.000000 
-1.123094 0.248648 0.000000 
-1.284246 -0.180662 0.000000 
-1.239750 -0.231388 0.000000 
-1.083297 0.292639 0.000000 
-1.028190 0.324311 0.000000 
-1.181630 -0.273745 0.000000 
-1.112789 -0.305172 0.000000 
-1.040643 -0.317343 0.000000 
-0.978118 -0.320429 0.000000 
-0.927392 -0.333455 0.000000 
-0.889718 -0.372589 0.000000 
-0.873564 -0.429140 0.000000 
-0.920771 -0.461334 0.000000 
-0.935346 -0.394065 0.000000 
-0.991249 -0.470909 0.000000 
-1.088918 -0.468181 0.000000 
-1.067426 -0.388529 0.000000 
-1.189474 -0.460618 0.000000 
-1.147229 -0.375862 0.000000 
-1.266509 -0.437328 0.000000 
-1.219913 -0.349685 0.000000 
-1.335307 -0.401501 0.000000 
-1.284456 -0.311686 0.000000 
-1.402357 -0.357597 0.000000 
-1.341444 -0.263885 0.000000 
-1.466758 -0.304922 0.000000 
-1.539152 -0.244123 0.000000 
-1.393011 -0.205954 0.000000 
-1.612839 -0.173851 0.000000 
-1.665320 -0.116273 0.000000 
-1.691220 -0.051447 0.000000 
-1.704696 0.034047 0.000000 
-1.850073 0.200916 0.000000 
-1.911042 0.145091 0.000000 
-1.969645 0.088255 0.000000 
-1.726970 0.140458 0.000000 
-0.222881 0.348288 0.000000 
-0.195707 0.320704 0.000000 
-0.164205 0.283757 0.000000 
-0.127520 0.251059 0.000000 
-0.095686 0.221568 0.000000 
-0.059027 0.193090 0.000000 
-0.018954 0.163106 0.000000 
0.030296 0.131835 0.000000 
0.086536 0.111309 0.000000 
0.141893 0.092578 0.000000 
0.202102 0.063298 0.000000 
0.263408 0.023381 0.000000 
0.311661 -0.026605 0.000000 
0.333954 -0.086228 0.000000 
0.338621 -0.146678 0.000000 
0.341530 -0.200617 0.000000 
0.353165 -0.250805 0.000000 
0.365710 -0.309228 0.000000 
0.363543 -0.378757 0.000000 
0.357353 -0.440871 0.000000 
0.351188 -0.491614 0.000000 
0.363842 -0.538642 0.000000 
-1.737069 -0.405293 0.000000 
-0.199590 0.400905 0.000000 
-0.156305 0.370989 0.000000 
-0.462327 1.636945 0.000000 
0.741313 2.159519 0.000000 
0.482415 -0.549413 0.000000 
0.446104 -0.557309 0.000000 
0.403556 -0.562963 0.000000 
-0.104001 0.342924 0.000000 
-0.514998 1.568999 0.000000 
-0.059937 0.308519 0.000000 
0.738519 2.134254 0.000000 
0.714572 2.146554 0.000000 
-0.249752 0.427728 0.000000 
-0.036232 0.264721 0.000000 
0.000772 0.236888 0.000000 
0.035161 0.211244 0.000000 
-1.776537 -0.404734 0.000000 
-1.836238 -0.400550 0.000000 
-0.309416 0.441828 0.000000 
-0.378944 0.439564 0.000000 
-2.292732 0.319152 0.000000 
-2.315166 0.269161 0.000000 
-2.314418 0.221605 0.000000 
-2.293418 0.175218 0.000000 
-2.279687 0.125339 0.000000 
-2.253462 0.078074 0.000000 
0.075120 0.183501 0.000000 
0.131113 0.170893 0.000000 
-0.977004 0.372877 0.000000 
-0.860050 0.362711 0.000000 
-1.912142 -0.392493 0.000000 
-1.989966 -0.401274 0.000000 
-2.023752 -0.333732 0.000000 
-2.082175 -0.262471 0.000000 
0.723889 2.102741 0.000000 
0.691466 2.121584 0.000000 
0.665980 2.088937 0.000000 
0.704783 2.061669 0.000000 
0.637970 2.050879 0.000000 
0.681732 2.014460 0.000000 
0.670916 1.968285 0.000000 
0.602858 2.019211 0.000000 
0.659584 1.927861 0.000000 
0.560783 1.992840 0.000000 
0.636111 1.891787 0.000000 
0.607495 1.841996 0.000000 
0.595324 1.778516 0.000000 
0.604052 1.713842 0.000000 
0.514160 1.963437 0.000000 
0.453857 1.935992 0.000000 
0.392525 1.934013 0.000000 
0.334098 1.932485 0.000000 
0.278675 1.913731 0.000000 
0.217273 1.895656 0.000000 
0.149449 1.878300 0.000000 
0.614128 1.661567 0.000000 
0.621313 1.613987 0.000000 
0.624262 1.569107 0.000000 
-2.197766 0.024885 0.000000 
-2.158682 -0.050039 0.000000 
-2.124695 0.084215 0.000000 
-2.150589 -0.216165 0.000000 
-2.141926 -0.138619 0.000000 
-0.393439 -0.555179 0.000000 
-0.412631 -0.511136 0.000000 
-0.436983 -0.470533 0.000000 
-0.445953 -0.427113 0.000000 
-0.458251 -0.394287 0.000000 
-0.479726 -0.359521 0.000000 
-0.496934 -0.310790 0.000000 
-0.509002 -0.255706 0.000000 
-0.517157 -0.201376 0.000000 
-0.545309 -0.150100 0.000000 
-0.442273 -0.552574 0.000000 
-0.496002 -0.543056 0.000000 
-0.557668 -0.545163 0.000000 
-0.618975 -0.529683 0.000000 
-0.334659 2.101335 0.000000 
-0.367985 2.071618 0.000000 
-0.385153 2.035192 0.000000 
-0.396797 2.001325 0.000000 
-0.406285 1.965803 0.000000 
-0.402558 1.926670 0.000000 
-0.406645 1.888226 0.000000 
-0.418378 1.855812 0.000000 
-0.428059 1.826687 0.000000 
-0.435849 1.797139 0.000000 
-0.442335 1.767104 0.000000 
-0.445406 1.734039 0.000000 
-0.444483 1.688323 0.000000 
0.619822 1.523375 0.000000 
-1.077870 0.419941 0.000000 
-1.149036 0.377982 0.000000 
-1.174735 0.303139 0.000000 
-1.192231 0.251416 0.000000 
-1.210811 0.209639 0.000000 
-1.228352 0.170300 0.000000 
-1.238869 0.132320 0.000000 
-1.244643 0.100822 0.000000 
-1.248534 0.075921 0.000000 
-1.252336 0.056634 0.000000 
-1.262323 0.043382 0.000000 
-1.280319 0.032466 0.000000 
-0.451814 0.416904 0.000000 
-0.526928 0.373382 0.000000 
0.194935 0.153901 0.000000 
0.069048 1.864201 0.000000 
-0.574175 0.302698 0.000000 
-0.593607 0.221595 0.000000 
-1.764101 0.261280 0.000000 
-2.210991 0.380136 0.000000 
-0.825996 0.277434 0.000000 
-0.799223 0.206354 0.000000 
-0.760911 0.139921 0.000000 
0.605964 1.472424 0.000000 
0.587834 1.415064 0.000000 
0.576354 1.355215 0.000000 
0.574971 1.300207 0.000000 
0.580375 1.257182 0.000000 
0.545179 1.234798 0.000000 
0.509957 1.202536 0.000000 
0.484198 1.166133 0.000000 
0.468721 1.134979 0.000000 
0.449386 1.116448 0.000000 
0.422962 1.103783 0.000000 
0.391379 1.084632 0.000000 
0.357154 1.060568 0.000000 
0.323730 1.032196 0.000000 
-0.582151 -0.089233 0.000000 
0.265957 0.127471 0.000000 
0.333763 0.081342 0.000000 
0.378371 0.014326 0.000000 
0.400918 -0.060069 0.000000 
0.401084 -0.123058 0.000000 
0.404345 -0.177159 0.000000 
0.432648 -0.228240 0.000000 
0.450030 -0.292682 0.000000 
0.529803 -0.139528 0.000000 
0.491947 -0.187666 0.000000 
0.453243 -0.137782 0.000000 
0.449550 -0.367006 0.000000 
0.498420 -0.093655 0.000000 
0.474171 -0.033713 0.000000 
0.457863 0.040860 0.000000 
0.462195 -0.425660 0.000000 
0.478704 -0.471996 0.000000 
0.483460 -0.512962 0.000000 
0.412910 -0.451301 0.000000 
0.398390 -0.490015 0.000000 
0.404290 -0.524302 0.000000 
0.442452 -0.519744 0.000000 
0.436659 -0.484580 0.000000 
-0.727378 0.065787 0.000000 
-0.616071 0.147806 0.000000 
-0.623548 0.073525 0.000000 
-0.605779 -0.007483 0.000000 
-0.706340 -0.019931 0.000000 
-0.681483 -0.106193 0.000000 
-0.032304 1.858640 0.000000 
-0.128010 1.894789 0.000000 
-0.195732 1.961913 0.000000 
-0.243911 2.015827 0.000000 
-0.287859 2.063231 0.000000 
-0.335518 2.035535 0.000000 
-0.667608 -0.191573 0.000000 
-0.584906 -0.198341 0.000000 
-0.658169 -0.271582 0.000000 
-0.578442 -0.263712 0.000000 
-0.639050 -0.343025 0.000000 
-0.607982 -0.418542 0.000000 
-0.562541 -0.326411 0.000000 
-0.536184 -0.387435 0.000000 
-0.495978 -0.425396 0.000000 
-0.500680 -0.477791 0.000000 
-0.573051 -0.482244 0.000000 
-2.690892 1.631934 0.000000 
-2.684799 1.545921 0.000000 
-2.602920 1.544660 0.000000 
-2.574381 1.629653 0.000000 
-2.518122 1.564527 0.000000 
-2.424460 1.588425 0.000000 
-2.320006 1.579493 0.000000 
-2.229986 1.555876 0.000000 
-2.146342 1.514636 0.000000 
-1.455055 -0.146973 0.000000 
-1.387692 -0.066649 0.000000 
-1.339496 -0.013321 0.000000 
-1.304977 0.015239 0.000000 
-1.531301 -0.081480 0.000000 
-1.604385 -0.037367 0.000000 
-1.592423 0.063313 0.000000 
-1.608296 0.187276 0.000000 
-1.827918 0.385722 0.000000 
0.477873 0.154525 0.000000 
0.477147 0.189423 0.000000 
0.465631 0.223663 0.000000 
-0.587742 1.667873 0.000000 
-0.593403 1.691976 0.000000 
-0.604579 1.704632 0.000000 
-0.619289 1.710318 0.000000 
-0.639577 1.708145 0.000000 
-0.665912 1.709761 0.000000 
-0.697937 1.716748 0.000000 
-0.595692 1.614384 0.000000 
-0.726123 1.731559 0.000000 
-0.757398 1.742130 0.000000 
-0.794522 1.739555 0.000000 
-0.841416 1.736977 0.000000 
-0.894922 1.738337 0.000000 
-0.956071 1.746753 0.000000 
-1.020951 1.765675 0.000000 
-1.077937 1.793309 0.000000 
-1.120258 1.822038 0.000000 
-1.171769 1.797777 0.000000 
0.332207 0.351168 0.000000 
0.333662 0.309433 0.000000 
0.321472 0.379785 0.000000 
0.302407 0.406598 0.000000 
0.214022 0.421260 0.000000 
0.194081 0.482284 0.000000 
0.186716 0.537797 0.000000 
0.189303 0.590569 0.000000 
0.360023 0.269752 0.000000 
0.405131 0.244618 0.000000 
0.201671 0.639815 0.000000 
0.218038 0.690076 0.000000 
0.236652 0.739010 0.000000 
0.256885 0.780944 0.000000 
0.278373 0.809438 0.000000 
0.284019 0.842836 0.000000 
0.276718 0.889583 0.000000 
0.278735 0.946396 0.000000 
0.296322 0.996664 0.000000 
-1.507867 1.749535 0.000000 
-1.548116 1.724893 0.000000 
-1.598023 1.697513 0.000000 
-1.467251 1.764309 0.000000 
-1.422160 1.771592 0.000000 
-1.373311 1.778309 0.000000 
-1.322903 1.786085 0.000000 
-1.275577 1.795331 0.000000 
-1.225048 1.793932 0.000000 
-1.662214 1.673844 0.000000 
-1.732600 1.653904 0.000000 
-1.794687 1.639529 0.000000 
-1.841773 1.610342 0.000000 
-2.078405 0.677614 0.000000 
-2.079214 0.756204 0.000000 
-2.097651 0.600014 0.000000 
-2.129318 0.528275 0.000000 
-2.096743 0.836766 0.000000 
-2.169699 0.472932 0.000000 
-1.991686 0.399932 0.000000 
-1.642187 0.325488 0.000000 
-1.989898 0.232707 0.000000 
-2.064526 0.160894 0.000000 
-1.914688 0.306241 0.000000 
-2.037969 1.089318 0.000000 
-2.021377 0.973633 0.000000 
-2.055796 1.218480 0.000000 
-2.102728 1.321133 0.000000 
-2.047875 1.463435 0.000000 
0.428030 0.210166 0.000000 
0.375625 0.188930 0.000000 
0.313454 0.202031 0.000000 
0.290352 0.348066 0.000000 
0.238487 1.058983 0.000000 
0.440631 0.172058 0.000000 
0.396678 0.132281 0.000000 
0.460488 0.106361 0.000000 
0.523747 1.282473 0.000000 
-2.262588 0.245728 0.000000 
-2.220468 0.301755 0.000000 
-2.218579 0.192217 0.000000 
-2.146376 0.244067 0.000000 
-2.206503 0.127146 0.000000 
0.473879 1.243861 0.000000 
0.446488 1.191530 0.000000 
0.440978 1.147511 0.000000 
0.409581 1.139656 0.000000 
0.629179 1.968551 0.000000 
0.593839 1.936078 0.000000 
0.550362 1.891874 0.000000 
0.483841 1.851451 0.000000 
0.202470 0.992619 0.000000 
0.241245 0.844843 0.000000 
0.205152 0.820043 0.000000 
0.175878 0.771902 0.000000 
0.153326 0.713396 0.000000 
0.132079 0.652946 0.000000 
0.113278 0.588490 0.000000 
0.106000 0.520167 0.000000 
0.109640 0.450970 0.000000 
0.121648 0.380292 0.000000 
0.032483 0.290678 0.000000 
0.246820 0.373356 0.000000 
0.099619 0.239043 0.000000 
0.373127 1.124773 0.000000 
-0.307911 1.987913 0.000000 
-0.360136 1.969444 0.000000 
-0.343252 1.915098 0.000000 
-0.270247 1.923243 0.000000 
0.168337 0.235562 0.000000 
0.242346 0.225224 0.000000 
0.270369 0.294261 0.000000 
0.505525 1.350234 0.000000 
-0.689828 0.177490 0.000000 
-0.729540 0.234893 0.000000 
-0.746154 0.309366 0.000000 
-0.657668 0.325930 0.000000 
-0.661195 0.241643 0.000000 
-0.924642 0.478606 0.000000 
-1.137284 1.741969 0.000000 
-1.072920 1.697375 0.000000 
-1.248127 1.754266 0.000000 
-1.304069 1.737944 0.000000 
-1.360197 1.730284 0.000000 
-1.411221 1.726144 0.000000 
-1.453165 1.722914 0.000000 
-1.486003 1.705452 0.000000 
-1.510814 1.661983 0.000000 
-1.558800 1.617314 0.000000 
-0.995058 1.670622 0.000000 
-0.919611 1.660146 0.000000 
-0.852227 1.667078 0.000000 
-0.796966 1.683596 0.000000 
-0.752732 1.702765 0.000000 
-1.635591 1.589981 0.000000 
-1.992480 0.864683 0.000000 
-1.965104 0.754903 0.000000 
-1.974377 0.651571 0.000000 
-2.014368 0.557949 0.000000 
-2.065453 0.474763 0.000000 
-2.071492 0.321696 0.000000 
-2.131272 0.405232 0.000000 
-1.712039 1.576658 0.000000 
-1.781280 1.576609 0.000000 
-1.884796 1.546552 0.000000 
0.516332 1.766215 0.000000 
0.538779 1.695086 0.000000 
0.517174 1.424620 0.000000 
0.552532 1.486556 0.000000 
0.576896 1.528483 0.000000 
0.583356 1.565509 0.000000 
0.576083 1.602513 0.000000 