# vtk DataFile Version 3.0 
vtk output 
ASCII 
DATASET UNSTRUCTURED_GRID 
POINTS 899 float 
-3.648847 2.292133 0.000000 
-3.619410 2.251581 0.000000 
-3.578536 2.215987 0.000000 
-3.540028 2.180336 0.000000 
-3.511690 2.148140 0.000000 
-3.481362 2.118282 0.000000 
-3.451569 2.077609 0.000000 
0.772356 2.194647 0.000000 
0.774615 2.168526 0.000000 
0.769962 2.139772 0.000000 
-3.399514 2.047333 0.000000 
0.413960 -0.597509 0.000000 
0.455573 -0.593207 0.000000 
-1.762619 -0.497405 0.000000 
-1.783389 -0.462009 0.000000 
-1.714437 -0.433219 0.000000 
0.732567 2.188972 0.000000 
0.698438 2.175136 0.000000 
0.491831 -0.579004 0.000000 
0.519501 -0.548599 0.000000 
0.530556 -0.508152 0.000000 
0.532354 -0.462348 0.000000 
0.531774 -0.411841 0.000000 
-3.460923 1.985600 0.000000 
0.663989 2.153189 0.000000 
0.631675 2.125795 0.000000 
0.601833 2.101739 0.000000 
0.569607 2.078482 0.000000 
0.534059 2.056404 0.000000 
0.492599 2.035264 0.000000 
0.444403 2.016599 0.000000 
0.762807 2.098798 0.000000 
-1.708694 -0.398837 0.000000 
-1.726386 -0.358573 0.000000 
-1.761257 -0.334553 0.000000 
-1.812853 -0.326704 0.000000 
-0.690422 -0.579040 0.000000 
-0.624256 -0.596967 0.000000 
-0.561079 -0.605149 0.000000 
-0.500739 -0.606605 0.000000 
-0.445387 -0.606667 0.000000 
0.532260 -0.352758 0.000000 
0.536647 -0.283424 0.000000 
-1.881389 -0.314204 0.000000 
-0.389303 -0.604392 0.000000 
-0.340338 -0.589107 0.000000 
-0.344339 -0.534972 0.000000 
-0.358558 -0.482432 0.000000 
-0.381750 -0.441521 0.000000 
-0.406193 -0.407346 0.000000 
-0.417316 -0.375848 0.000000 
-0.428320 -0.341591 0.000000 
-0.436973 -0.297327 0.000000 
-0.444212 -0.241784 0.000000 
-0.452662 -0.182926 0.000000 
-0.468602 -0.126027 0.000000 
0.553166 -0.218709 0.000000 
0.573193 -0.161038 0.000000 
0.574450 -0.109298 0.000000 
0.561087 -0.058978 0.000000 
0.550432 -0.003655 0.000000 
0.748903 2.045480 0.000000 
0.730940 1.988987 0.000000 
0.715868 1.942828 0.000000 
0.699446 1.906700 0.000000 
0.684888 1.865711 0.000000 
0.675900 1.819506 0.000000 
0.669871 1.769946 0.000000 
0.664455 1.722089 0.000000 
0.668163 1.675670 0.000000 
0.672091 1.625836 0.000000 
0.674558 1.577813 0.000000 
0.673045 1.527734 0.000000 
0.386491 2.006919 0.000000 
0.664855 1.468995 0.000000 
0.652298 1.410917 0.000000 
0.638456 1.357267 0.000000 
0.623121 1.307757 0.000000 
0.616008 1.264730 0.000000 
0.600787 1.229788 0.000000 
0.571289 1.200339 0.000000 
0.539016 1.169178 0.000000 
0.513857 1.140278 0.000000 
0.493343 1.114043 0.000000 
0.469109 1.096231 0.000000 
0.444920 1.079786 0.000000 
0.415324 1.058821 0.000000 
0.383540 1.034068 0.000000 
0.356179 1.004736 0.000000 
0.343879 0.965836 0.000000 
0.337476 0.920316 0.000000 
0.332404 0.875030 0.000000 
0.328512 0.835340 0.000000 
0.319594 0.799260 0.000000 
0.304149 0.765849 0.000000 
0.290502 0.725458 0.000000 
0.275896 0.677596 0.000000 
0.261905 0.635627 0.000000 
0.250150 0.602032 0.000000 
0.250896 0.564227 0.000000 
0.259587 0.521623 0.000000 
0.284617 0.478850 0.000000 
0.315237 0.449189 0.000000 
0.340022 0.429752 0.000000 
0.354380 0.403903 0.000000 
0.368685 0.376761 0.000000 
0.385568 0.350364 0.000000 
0.415372 0.325568 0.000000 
0.447119 0.293855 0.000000 
0.477633 0.265938 0.000000 
0.503078 0.238002 0.000000 
0.518876 0.199948 0.000000 
0.527127 0.163979 0.000000 
0.534187 0.119434 0.000000 
0.543185 0.058654 0.000000 
0.322519 1.995863 0.000000 
0.263849 1.982746 0.000000 
0.208223 1.977327 0.000000 
0.150441 1.973498 0.000000 
-0.687392 -0.505972 0.000000 
-3.327058 2.021101 0.000000 
-3.276080 1.974679 0.000000 
-3.224941 1.941093 0.000000 
-3.181728 1.911934 0.000000 
-3.135074 1.875004 0.000000 
-3.078123 1.850711 0.000000 
-1.944260 -0.269325 0.000000 
0.083204 1.978654 0.000000 
0.005786 1.973301 0.000000 
-0.071812 1.982540 0.000000 
-0.135705 2.012081 0.000000 
-0.182391 2.053687 0.000000 
-1.999041 -0.198357 0.000000 
-1.843230 -0.472866 0.000000 
-0.491126 -0.062067 0.000000 
-0.512312 0.011176 0.000000 
-0.526535 0.074008 0.000000 
-0.527935 0.136130 0.000000 
-0.524207 0.203300 0.000000 
-0.505864 0.260432 0.000000 
-0.468875 0.309644 0.000000 
-0.410369 0.338889 0.000000 
-0.354013 0.360006 0.000000 
-0.301050 0.369952 0.000000 
-0.255730 0.370724 0.000000 
-0.695595 -0.427677 0.000000 
-0.726457 -0.350795 0.000000 
-0.747352 -0.281340 0.000000 
-3.396487 1.963965 0.000000 
-3.344056 1.884578 0.000000 
-3.294256 1.841177 0.000000 
-3.248246 1.802852 0.000000 
-3.196818 1.763499 0.000000 
-3.159669 1.712189 0.000000 
-3.113281 1.665484 0.000000 
-3.056061 1.645921 0.000000 
-2.996684 1.623296 0.000000 
-2.933161 1.593680 0.000000 
-2.879064 1.557537 0.000000 
-2.813006 1.532751 0.000000 
-2.751664 1.509701 0.000000 
-2.686782 1.480378 0.000000 
-1.922020 -0.470059 0.000000 
-1.999705 -0.471558 0.000000 
-2.060018 -0.449954 0.000000 
-2.032615 -0.114966 0.000000 
-2.048550 -0.029244 0.000000 
-2.029059 0.036649 0.000000 
-2.105228 -0.392895 0.000000 
-2.154373 -0.325301 0.000000 
-2.203584 -0.270677 0.000000 
-2.237020 -0.209242 0.000000 
-2.250593 -0.143949 0.000000 
-2.270119 -0.072165 0.000000 
-2.297898 -0.001855 0.000000 
-2.327118 0.059725 0.000000 
-2.346747 0.113695 0.000000 
-2.362840 0.166804 0.000000 
-2.374561 0.217849 0.000000 
-2.373128 0.269825 0.000000 
-2.334174 0.336415 0.000000 
-2.331842 0.377033 0.000000 
-2.284565 0.385792 0.000000 
-0.236368 2.103222 0.000000 
-0.299146 2.147049 0.000000 
-0.346614 2.166974 0.000000 
-0.382877 2.130471 0.000000 
-0.412447 2.101421 0.000000 
-0.433989 2.061134 0.000000 
-0.446472 2.018167 0.000000 
-0.451628 1.978849 0.000000 
-0.451047 1.940387 0.000000 
-0.449242 1.904383 0.000000 
-0.453345 1.872494 0.000000 
-0.460251 1.844800 0.000000 
-0.470304 1.816015 0.000000 
-0.475290 1.786525 0.000000 
-0.478341 1.756740 0.000000 
-0.479442 1.720004 0.000000 
-2.609147 1.466589 0.000000 
-2.517189 1.461091 0.000000 
-2.434013 1.461427 0.000000 
-2.352624 1.451396 0.000000 
-2.274410 1.432025 0.000000 
-2.204499 1.397376 0.000000 
-2.180326 1.328493 0.000000 
-2.178559 1.239957 0.000000 
-2.168273 1.149928 0.000000 
-2.159086 1.051864 0.000000 
-2.144575 0.962705 0.000000 
-2.163040 0.887488 0.000000 
-2.183612 0.813397 0.000000 
-2.172907 0.748839 0.000000 
-2.161614 0.686084 0.000000 
-2.169833 0.625972 0.000000 
-2.188987 0.564219 0.000000 
-2.218663 0.512973 0.000000 
-2.229021 0.457100 0.000000 
-2.997130 1.833914 0.000000 
-3.021908 1.735776 0.000000 
-2.902046 1.802407 0.000000 
-0.770600 -0.198746 0.000000 
-0.790096 -0.107088 0.000000 
-0.811857 -0.026380 0.000000 
-0.835807 0.052184 0.000000 
-0.859157 0.122312 0.000000 
-0.881226 0.182363 0.000000 
-0.903169 0.241714 0.000000 
-0.928196 0.305758 0.000000 
-2.785442 1.769854 0.000000 
-2.944278 1.709112 0.000000 
-2.855014 1.671966 0.000000 
-2.796189 1.611886 0.000000 
-2.651235 1.755108 0.000000 
-2.517962 1.744761 0.000000 
-2.394240 1.735598 0.000000 
-2.275192 1.727601 0.000000 
-2.180847 1.703040 0.000000 
-2.099904 1.676561 0.000000 
-2.018420 1.645321 0.000000 
-1.945469 1.649619 0.000000 
-1.885190 1.682958 0.000000 
-1.829736 1.703527 0.000000 
-1.760875 1.728759 0.000000 
-1.680504 1.757183 0.000000 
-1.617798 1.775500 0.000000 
-1.570169 1.790024 0.000000 
-1.527149 1.804214 0.000000 
-1.482581 1.816342 0.000000 
-1.433927 1.822883 0.000000 
-1.386311 1.830798 0.000000 
-1.337319 1.839528 0.000000 
-1.286363 1.846608 0.000000 
-1.235962 1.847326 0.000000 
-1.188452 1.852138 0.000000 
-1.140860 1.861590 0.000000 
-1.091558 1.860899 0.000000 
-1.038962 1.849880 0.000000 
-0.982519 1.830882 0.000000 
-0.922315 1.814140 0.000000 
-0.869867 1.803815 0.000000 
-0.827747 1.797325 0.000000 
-0.785371 1.792414 0.000000 
-0.748025 1.782677 0.000000 
-0.712781 1.772410 0.000000 
-0.681690 1.758478 0.000000 
-0.657198 1.747343 0.000000 
-0.633895 1.740680 0.000000 
-0.612002 1.736225 0.000000 
-0.594184 1.729012 0.000000 
-0.577381 1.719562 0.000000 
-0.560109 1.704279 0.000000 
-0.540091 1.671824 0.000000 
-1.243914 0.032978 0.000000 
-1.232782 0.046695 0.000000 
-1.257376 0.018625 0.000000 
-1.224378 0.065395 0.000000 
-1.271472 -0.000721 0.000000 
-1.215702 0.087392 0.000000 
-1.204660 0.113448 0.000000 
-1.290143 -0.028463 0.000000 
-1.314447 -0.073502 0.000000 
-1.190204 0.143755 0.000000 
-1.318041 -0.126857 0.000000 
-1.171655 0.177911 0.000000 
-1.149359 0.214225 0.000000 
-1.123094 0.252474 0.000000 
-1.284246 -0.176836 0.000000 
-1.239750 -0.227563 0.000000 
-1.083297 0.296465 0.000000 
-1.028190 0.328137 0.000000 
-1.181630 -0.269919 0.000000 
-1.112789 -0.301346 0.000000 
-1.040643 -0.313517 0.000000 
-0.978118 -0.316603 0.000000 
-0.927392 -0.329629 0.000000 
-0.889718 -0.368764 0.000000 
-0.873564 -0.425314 0.000000 
-0.920771 -0.457508 0.000000 
-0.935346 -0.390239 0.000000 
-0.991249 -0.467084 0.000000 
-1.088918 -0.464355 0.000000 
-1.067426 -0.384704 0.000000 
-1.189474 -0.456792 0.000000 
-1.147229 -0.372036 0.000000 
-1.266509 -0.433502 0.000000 
-1.219913 -0.345859 0.000000 
-1.335307 -0.397675 0.000000 
-1.284456 -0.307860 0.000000 
-1.402357 -0.353772 0.000000 
-1.341444 -0.260059 0.000000 
-1.466758 -0.301096 0.000000 
-1.539152 -0.240297 0.000000 
-1.393011 -0.202128 0.000000 
-1.612839 -0.170026 0.000000 
-1.665320 -0.112447 0.000000 
-1.691220 -0.047621 0.000000 
-1.704696 0.037873 0.000000 
-1.850073 0.204742 0.000000 
-1.911042 0.148917 0.000000 
-1.969645 0.092081 0.000000 
-1.726970 0.144284 0.000000 
-0.222881 0.352114 0.000000 
-0.195707 0.324530 0.000000 
-0.164205 0.287583 0.000000 
-0.127520 0.254885 0.000000 
-0.095686 0.225394 0.000000 
-0.059027 0.196915 0.000000 
-0.018954 0.166932 0.000000 
0.030296 0.135661 0.000000 
0.086536 0.115135 0.000000 
0.141893 0.096404 0.000000 
0.202102 0.067124 0.000000 
0.263408 0.027207 0.000000 
0.311661 -0.022779 0.000000 
0.333954 -0.082402 0.000000 
0.338621 -0.142852 0.000000 
0.341530 -0.196791 0.000000 
0.353165 -0.246979 0.000000 
0.365710 -0.305402 0.000000 
0.363543 -0.374931 0.000000 
[...]
POINT_DATA 899 
VECTORS X_GC float 
-3.648847 2.292133 0.000000 
-3.619410 2.251581 0.000000 
-3.578536 2.215987 0.000000 
-3.540028 2.180336 0.000000 
-3.511690 2.148140 0.000000 
-3.481362 2.118282 0.000000 
-3.451569 2.077609 0.000000 
0.772356 2.194647 0.000000 
0.774615 2.168526 0.000000 
0.769962 2.139772 0.000000 
-3.399514 2.047333 0.000000 
0.413960 -0.597509 0.000000 
0.455573 -0.593207 0.000000 
-1.762619 -0.497405 0.000000 
-1.783389 -0.462009 0.000000 
-1.714437 -0.433219 0.000000 
0.732567 2.188972 0.000000 
0.698438 2.175136 0.000000 
0.491831 -0.579004 0.000000 
0.519501 -0.548599 0.000000 
0.530556 -0.508152 0.000000 
0.532354 -0.462348 0.000000 
0.531774 -0.411841 0.000000 
-3.460923 1.985600 0.000000 
0.663989 2.153189 0.000000 
0.631675 2.125795 0.000000 
0.601833 2.101739 0.000000 
0.569607 2.078482 0.000000 
0.534059 2.056404 0.000000 
0.492599 2.035264 0.000000 
0.444403 2.016599 0.000000 
0.762807 2.098798 0.000000 
-1.708694 -0.398837 0.000000 
-1.726386 -0.358573 0.000000 
-1.761257 -0.334553 0.000000 
-1.812853 -0.326704 0.000000 
-0.690422 -0.579040 0.000000 
-0.624256 -0.596967 0.000000 
-0.561079 -0.605149 0.000000 
-0.500739 -0.606605 0.000000 
-0.445387 -0.606667 0.000000 
0.532260 -0.352758 0.000000 
0.536647 -0.283424 0.000000 
-1.881389 -0.314204 0.000000 
-0.389303 -0.604392 0.000000 
-0.340338 -0.589107 0.000000 
-0.344339 -0.534972 0.000000 
-0.358558 -0.482432 0.000000 
-0.381750 -0.441521 0.000000 
-0.406193 -0.407346 0.000000 
-0.417316 -0.375848 0.000000 
-0.428320 -0.341591 0.000000 
-0.436973 -0.297327 0.000000 
-0.444212 -0.241784 0.000000 
-0.452662 -0.182926 0.000000 
-0.468602 -0.126027 0.000000 
0.553166 -0.218709 0.000000 
0.573193 -0.161038 0.000000 
0.574450 -0.109298 0.000000 
0.561087 -0.058978 0.000000 
0.550432 -0.003655 0.000000 
0.748903 2.045480 0.000000 
0.730940 1.988987 0.000000 
0.715868 1.942828 0.000000 
0.699446 1.906700 0.000000 
0.684888 1.865711 0.000000 
0.675900 1.819506 0.000000 
0.669871 1.769946 0.000000 
0.664455 1.722089 0.000000 
0.668163 1.675670 0.000000 
0.672091 1.625836 0.000000 
0.674558 1.577813 0.000000 
0.673045 1.527734 0.000000 
0.386491 2.006919 0.000000 
0.664855 1.468995 0.000000 
0.652298 1.410917 0.000000 
0.638456 1.357267 0.000000 
0.623121 1.307757 0.000000 
0.616008 1.264730 0.000000 
0.600787 1.229788 0.000000 
0.571289 1.200339 0.000000 
0.539016 1.169178 0.000000 
0.513857 1.140278 0.000000 
0.493343 1.114043 0.000000 
0.469109 1.096231 0.000000 
0.444920 1.079786 0.000000 
0.415324 1.058821 0.000000 
0.383540 1.034068 0.000000 
0.356179 1.004736 0.000000 
0.343879 0.965836 0.000000 
0.337476 0.920316 0.000000 
0.332404 0.875030 0.000000 
0.328512 0.835340 0.000000 
0.319594 0.799260 0.000000 
0.304149 0.765849 0.000000 
0.290502 0.725458 0.000000 
0.275896 0.677596 0.000000 
0.261905 0.635627 0.000000 
0.250150 0.602032 0.000000 
0.250896 0.564227 0.000000 
0.259587 0.521623 0.000000 
0.284617 0.478850 0.000000 
0.315237 0.449189 0.000000 
0.340022 0.429752 0.000000 
0.354380 0.403903 0.000000 
0.368685 0.376761 0.000000 
0.385568 0.350364 0.000000 
0.415372 0.325568 0.000000 
0.447119 0.293855 0.000000 
0.477633 0.265938 0.000000 
0.503078 0.238002 0.000000 
0.518876 0.199948 0.000000 
0.527127 0.163979 0.000000 
0.534187 0.119434 0.000000 
0.543185 0.058654 0.000000 
0.322519 1.995863 0.000000 
0.263849 1.982746 0.000000 
0.208223 1.977327 0.000000 
0.150441 1.973498 0.000000 
-0.687392 -0.505972 0.000000 
-3.327058 2.021101 0.000000 
-3.276080 1.974679 0.000000 
-3.224941 1.941093 0.000000 
-3.181728 1.911934 0.000000 
-3.135074 1.875004 0.000000 
-3.078123 1.850711 0.000000 
-1.944260 -0.269325 0.000000 
0.083204 1.978654 0.000000 
0.005786 1.973301 0.000000 
-0.071812 1.982540 0.000000 
-0.135705 2.012081 0.000000 
-0.182391 2.053687 0.000000 
-1.999041 -0.198357 0.000000 
-1.843230 -0.472866 0.000000 
-0.491126 -0.062067 0.000000 
-0.512312 0.011176 0.000000 
-0.526535 0.074008 0.000000 
-0.527935 0.136130 0.000000 
-0.524207 0.203300 0.000000 
-0.505864 0.260432 0.000000 
-0.468875 0.309644 0.000000 
-0.410369 0.338889 0.000000 
-0.354013 0.360006 0.000000 
-0.301050 0.369952 0.000000 
-0.255730 0.370724 0.000000 
-0.695595 -0.427677 0.000000 
-0.726457 -0.350795 0.000000 
-0.747352 -0.281340 0.000000 
-3.396487 1.963965 0.000000 
-3.344056 1.884578 0.000000 
-3.294256 1.841177 0.000000 
-3.248246 1.802852 0.000000 
-3.196818 1.763499 0.000000 
-3.159669 1.712189 0.000000 
-3.113281 1.665484 0.000000 
-3.056061 1.645921 0.000000 
-2.996684 1.623296 0.000000 
-2.933161 1.593680 0.000000 
-2.879064 1.557537 0.000000 
-2.813006 1.532751 0.000000 
-2.751664 1.509701 0.000000 
-2.686782 1.480378 0.000000 
-1.922020 -0.470059 0.000000 
-1.999705 -0.471558 0.000000 
-2.060018 -0.449954 0.000000 
-2.032615 -0.114966 0.000000 
-2.048550 -0.029244 0.000000 
-2.029059 0.036649 0.000000 
-2.105228 -0.392895 0.000000 
-2.154373 -0.325301 0.000000 
-2.203584 -0.270677 0.000000 
-2.237020 -0.209242 0.000000 
-2.250593 -0.143949 0.000000 
-2.270119 -0.072165 0.000000 
-2.297898 -0.001855 0.000000 
-2.327118 0.059725 0.000000 
-2.346747 0.113695 0.000000 
-2.362840 0.166804 0.000000 
-2.374561 0.217849 0.000000 
-2.373128 0.269825 0.000000 
-2.334174 0.336415 0.000000 
-2.331842 0.377033 0.000000 
-2.284565 0.385792 0.000000 
-0.236368 2.103222 0.000000 
-0.299146 2.147049 0.000000 
-0.346614 2.166974 0.000000 
-0.382877 2.130471 0.000000 
-0.412447 2.101421 0.000000 
-0.433989 2.061134 0.000000 
-0.446472 2.018167 0.000000 
-0.451628 1.978849 0.000000 
-0.451047 1.940387 0.000000 
-0.449242 1.904383 0.000000 
-0.453345 1.872494 0.000000 
-0.460251 1.844800 0.000000 
-0.470304 1.816015 0.000000 
-0.475290 1.786525 0.000000 
-0.478341 1.756740 0.000000 
-0.479442 1.720004 0.000000 
-2.609147 1.466589 0.000000 
-2.517189 1.461091 0.000000 
-2.434013 1.461427 0.000000 
-2.352624 1.451396 0.000000 
-2.274410 1.432025 0.000000 
-2.204499 1.397376 0.000000 
-2.180326 1.328493 0.000000 
-2.178559 1.239957 0.000000 
-2.168273 1.149928 0.000000 
-2.159086 1.051864 0.000000 
-2.144575 0.962705 0.000000 
-2.163040 0.887488 0.000000 
-2.183612 0.813397 0.000000 
-2.172907 0.748839 0.000000 
-2.161614 0.686084 0.000000 
-2.169833 0.625972 0.000000 
-2.188987 0.564219 0.000000 
-2.218663 0.512973 0.000000 
-2.229021 0.457100 0.000000 
-2.997130 1.833914 0.000000 
-3.021908 1.735776 0.000000 
-2.902046 1.802407 0.000000 
-0.770600 -0.198746 0.000000 
-0.790096 -0.107088 0.000000 
-0.811857 -0.026380 0.000000 
-0.835807 0.052184 0.000000 
-0.859157 0.122312 0.000000 
-0.881226 0.182363 0.000000 
-0.903169 0.241714 0.000000 
-0.928196 0.305758 0.000000 
-2.785442 1.769854 0.000000 
-2.944278 1.709112 0.000000 
-2.855014 1.671966 0.000000 
-2.796189 1.611886 0.000000 
-2.651235 1.755108 0.000000 
-2.517962 1.744761 0.000000 
-2.394240 1.735598 0.000000 
-2.275192 1.727601 0.000000 
-2.180847 1.703040 0.000000 
-2.099904 1.676561 0.000000 
-2.018420 1.645321 0.000000 
-1.945469 1.649619 0.000000 
-1.885190 1.682958 0.000000 
-1.829736 1.703527 0.000000 
-1.760875 1.728759 0.000000 
-1.680504 1.757183 0.000000 
-1.617798 1.775500 0.000000 
-1.570169 1.790024 0.000000 
-1.527149 1.804214 0.000000 
-1.482581 1.816342 0.000000 
-1.433927 1.822883 0.000000 
-1.386311 1.830798 0.000000 
-1.337319 1.839528 0.000000 
-1.286363 1.846608 0.000000 
-1.235962 1.847326 0.000000 
-1.188452 1.852138 0.000000 
-1.140860 1.861590 0.000000 
-1.091558 1.860899 0.000000 
-1.038962 1.849880 0.000000 
-0.982519 1.830882 0.000000 
-0.922315 1.814140 0.000000 
-0.869867 1.803815 0.000000 
-0.827747 1.797325 0.000000 
-0.785371 1.792414 0.000000 
-0.748025 1.782677 0.000000 
-0.712781 1.772410 0.000000 
-0.681690 1.758478 0.000000 
-0.657198 1.747343 0.000000 
-0.633895 1.740680 0.000000 
-0.612002 1.736225 0.000000 
-0.594184 1.729012 0.000000 
-0.577381 1.719562 0.000000 
-0.560109 1.704279 0.000000 
-0.540091 1.671824 0.000000 
-1.243914 0.032978 0.000000 
-1.232782 0.046695 0.000000 
-1.257376 0.018625 0.000000 
-1.224378 0.065395 0.000000 
-1.271472 -0.000721 0.000000 
-1.215702 0.087392 0.000000 
-1.204660 0.113448 0.000000 
-1.290143 -0.028463 0.000000 
-1.314447 -0.073502 0.000000 
-1.190204 0.143755 0.000000 
-1.318041 -0.126857 0.000000 
-1.171655 0.177911 0.000000 
-1.149359 0.214225 0.000000 
-1.123094 0.252474 0.000000 
-1.284246 -0.176836 0.000000 
-1.239750 -0.227563 0.000000 
-1.083297 0.296465 0.000000 
-1.028190 0.328137 0.000000 
-1.181630 -0.269919 0.000000 
-1.112789 -0.301346 0.000000 
-1.040643 -0.313517 0.000000 
-0.978118 -0.316603 0.000000 
-0.927392 -0.329629 0.000000 
-0.889718 -0.368764 0.000000 
-0.873564 -0.425314 0.000000 
-0.920771 -0.457508 0.000000 
-0.935346 -0.390239 0.000000 
-0.991249 -0.467084 0.000000 
-1.088918 -0.464355 0.000000 
-1.067426 -0.384704 0.000000 
-1.189474 -0.456792 0.000000 
-1.147229 -0.372036 0.000000 
-1.266509 -0.433502 0.000000 
-1.219913 -0.345859 0.000000 
-1.335307 -0.397675 0.000000 
-1.284456 -0.307860 0.000000 
-1.402357 -0.353772 0.000000 
-1.341444 -0.260059 0.000000 
-1.466758 -0.301096 0.000000 
-1.539152 -0.240297 0.000000 
-1.393011 -0.202128 0.000000 
-1.612839 -0.170026 0.000000 
-1.665320 -0.112447 0.000000 
-1.691220 -0.047621 0.000000 
-1.704696 0.037873 0.000000 
-1.850073 0.204742 0.000000 
-1.911042 0.148917 0.000000 
-1.969645 0.092081 0.000000 
-1.726970 0.144284 0.000000 
-0.222881 0.352114 0.000000 
-0.195707 0.324530 0.000000 
-0.164205 0.287583 0.000000 
-0.127520 0.254885 0.000000 
-0.095686 0.225394 0.000000 
-0.059027 0.196915 0.000000 
-0.018954 0.166932 0.000000 
0.030296 0.135661 0.000000 
0.086536 0.115135 0.000000 
0.141893 0.096404 0.000000 
0.202102 0.067124 0.000000 
0.263408 0.027207 0.000000 
0.311661 -0.022779 0.000000 
0.333954 -0.082402 0.000000 
0.338621 -0.142852 0.000000 
0.341530 -0.196791 0.000000 
0.353165 -0.246979 0.000000 
0.365710 -0.305402 0.000000 
0.363543 -0.374931 0.000000 
0.357353 -0.437045 0.000000 
0.351188 -0.487788 0.000000 
0.363842 -0.534816 0.000000 
-1.737069 -0.401467 0.000000 
-0.199590 0.404731 0.000000 
-0.156305 0.374815 0.000000 
-0.462327 1.640771 0.000000 
0.741313 2.163345 0.000000 
0.482415 -0.545587 0.000000 
0.446104 -0.553483 0.000000 
0.403556 -0.559137 0.000000 
-0.104001 0.346750 0.000000 
-0.514998 1.572825 0.000000 
-0.059937 0.312345 0.000000 
0.738519 2.138080 0.000000 
0.714572 2.150380 0.000000 
-0.249752 0.431554 0.000000 
-0.036232 0.268547 0.000000 
0.000772 0.240714 0.000000 
0.035161 0.215070 0.000000 
-1.776537 -0.400909 0.000000 
-1.836238 -0.396724 0.000000 
-0.309416 0.445654 0.000000 
-0.378944 0.443390 0.000000 
-2.292732 0.322978 0.000000 
-2.315166 0.272987 0.000000 
-2.314418 0.225430 0.000000 
-2.293418 0.179044 0.000000 
-2.279687 0.129165 0.000000 
-2.253462 0.081899 0.000000 
0.075120 0.187327 0.000000 
0.131113 0.174719 0.000000 
-0.977004 0.376703 0.000000 
-0.860050 0.366537 0.000000 
-1.912142 -0.388667 0.000000 
-1.989966 -0.397448 0.000000 
-2.023752 -0.329906 0.000000 
-2.082175 -0.258645 0.000000 
0.723889 2.106567 0.000000 
0.691466 2.125410 0.000000 
0.665980 2.092763 0.000000 
0.704783 2.065495 0.000000 
0.637970 2.054705 0.000000 
0.681732 2.018286 0.000000 
0.670916 1.972111 0.000000 
0.602858 2.023037 0.000000 
0.659584 1.931687 0.000000 
0.560783 1.996666 0.000000 
0.636111 1.895613 0.000000 
0.607495 1.845822 0.000000 
0.595324 1.782341 0.000000 
0.604052 1.717668 0.000000 
0.514160 1.967263 0.000000 
0.453857 1.939818 0.000000 
0.392525 1.937839 0.000000 
0.334098 1.936311 0.000000 
0.278675 1.917557 0.000000 
0.217273 1.899482 0.000000 
0.149449 1.882126 0.000000 
0.614128 1.665393 0.000000 
0.621313 1.617813 0.000000 
0.624262 1.572933 0.000000 
-2.197766 0.028711 0.000000 
-2.158682 -0.046213 0.000000 
-2.124695 0.088041 0.000000 
-2.150589 -0.212339 0.000000 
-2.141926 -0.134793 0.000000 
-0.393439 -0.551353 0.000000 
-0.412631 -0.507310 0.000000 
-0.436983 -0.466707 0.000000 
-0.445953 -0.423287 0.000000 
-0.458251 -0.390461 0.000000 
-0.479726 -0.355695 0.000000 
-0.496934 -0.306964 0.000000 
-0.509002 -0.251880 0.000000 
-0.517157 -0.197550 0.000000 
-0.545309 -0.146274 0.000000 
-0.442273 -0.548748 0.000000 
-0.496002 -0.539231 0.000000 
-0.557668 -0.541337 0.000000 
-0.618975 -0.525857 0.000000 
-0.334659 2.105161 0.000000 
-0.367985 2.075444 0.000000 
-0.385153 2.039018 0.000000 
-0.396797 2.005151 0.000000 
-0.406285 1.969629 0.000000 
-0.402558 1.930496 0.000000 
-0.406645 1.892052 0.000000 
-0.418378 1.859638 0.000000 
-0.428059 1.830513 0.000000 
-0.435849 1.800965 0.000000 
-0.442335 1.770930 0.000000 
-0.445406 1.737865 0.000000 
-0.444483 1.692149 0.000000 
0.619822 1.527201 0.000000 
-1.077870 0.423766 0.000000 
-1.149036 0.381808 0.000000 
-1.174735 0.306965 0.000000 
-1.192231 0.255242 0.000000 
-1.210811 0.213465 0.000000 
-1.228352 0.174126 0.000000 
-1.238869 0.136146 0.000000 
-1.244643 0.104648 0.000000 
-1.248534 0.079747 0.000000 
-1.252336 0.060460 0.000000 
-1.262323 0.047208 0.000000 
-1.280319 0.036292 0.000000 
-0.451814 0.420730 0.000000 
-0.526928 0.377208 0.000000 
0.194935 0.157727 0.000000 
0.069048 1.868027 0.000000 
-0.574175 0.306524 0.000000 
-0.593607 0.225421 0.000000 
-1.764101 0.265106 0.000000 
-2.210991 0.383962 0.000000 
-0.825996 0.281260 0.000000 
-0.799223 0.210180 0.000000 
-0.760911 0.143746 0.000000 
0.605964 1.476250 0.000000 
0.587834 1.418890 0.000000 
0.576354 1.359041 0.000000 
0.574971 1.304033 0.000000 
0.580375 1.261008 0.000000 
0.545179 1.238624 0.000000 
0.509957 1.206362 0.000000 
0.484198 1.169959 0.000000 
0.468721 1.138805 0.000000 
0.449386 1.120274 0.000000 
0.422962 1.107609 0.000000 
0.391379 1.088458 0.000000 
0.357154 1.064394 0.000000 
0.323730 1.036022 0.000000 
-0.582151 -0.085407 0.000000 
0.265957 0.131297 0.000000 
0.333763 0.085168 0.000000 
0.378371 0.018152 0.000000 
0.400918 -0.056243 0.000000 
0.401084 -0.119232 0.000000 
0.404345 -0.173333 0.000000 
0.432648 -0.224415 0.000000 
0.450030 -0.288856 0.000000 
0.529803 -0.135702 0.000000 
0.491947 -0.183840 0.000000 
0.453243 -0.133956 0.000000 
0.449550 -0.363180 0.000000 
0.498420 -0.089829 0.000000 
0.474171 -0.029888 0.000000 
0.457863 0.044686 0.000000 
0.462195 -0.421834 0.000000 
0.478704 -0.468170 0.000000 
0.483460 -0.509136 0.000000 
0.412910 -0.447476 0.000000 
0.398390 -0.486189 0.000000 
0.404290 -0.520476 0.000000 
0.442452 -0.515918 0.000000 
0.436659 -0.480754 0.000000 
-0.727378 0.069613 0.000000 
-0.616071 0.151632 0.000000 
-0.623548 0.077351 0.000000 
-0.605779 -0.003657 0.000000 
-0.706340 -0.016105 0.000000 
-0.681483 -0.102367 0.000000 
-0.032304 1.862466 0.000000 
-0.128010 1.898615 0.000000 
-0.195732 1.965739 0.000000 
-0.243911 2.019653 0.000000 
-0.287859 2.067057 0.000000 
-0.335518 2.039361 0.000000 
-0.667608 -0.187748 0.000000 
-0.584906 -0.194515 0.000000 
-0.658169 -0.267756 0.000000 
-0.578442 -0.259886 0.000000 
-0.639050 -0.339199 0.000000 
-0.607982 -0.414716 0.000000 
-0.562541 -0.322585 0.000000 
-0.536184 -0.383609 0.000000 
-0.495978 -0.421570 0.000000 
-0.500680 -0.473965 0.000000 
-0.573051 -0.478418 0.000000 
-2.690892 1.635760 0.000000 
-2.684799 1.549747 0.000000 
-2.602920 1.548485 0.000000 
-2.574381 1.633478 0.000000 
-2.518122 1.568353 0.000000 
-2.424460 1.592251 0.000000 
-2.320006 1.583319 0.000000 
-2.229986 1.559702 0.000000 
-2.146342 1.518461 0.000000 
-1.455055 -0.143147 0.000000 
-1.387692 -0.062823 0.000000 
-1.339496 -0.009495 0.000000 
-1.304977 0.019065 0.000000 
-1.531301 -0.077654 0.000000 
-1.604385 -0.033542 0.000000 
-1.592423 0.067139 0.000000 
-1.608296 0.191102 0.000000 
-1.827918 0.389547 0.000000 
0.477873 0.158351 0.000000 
0.477147 0.193249 0.000000 
0.465631 0.227489 0.000000 
-0.587742 1.671699 0.000000 
-0.593403 1.695802 0.000000 
-0.604579 1.708458 0.000000 
-0.619289 1.714144 0.000000 
-0.639577 1.711971 0.000000 
-0.665912 1.713587 0.000000 
-0.697937 1.720574 0.000000 
-0.595692 1.618210 0.000000 
-0.726123 1.735385 0.000000 
-0.757398 1.745956 0.000000 
-0.794522 1.743380 0.000000 
-0.841416 1.740803 0.000000 
-0.894922 1.742163 0.000000 
-0.956071 1.750579 0.000000 
-1.020951 1.769501 0.000000 
-1.077937 1.797135 0.000000 
-1.120258 1.825864 0.000000 
-1.171769 1.801603 0.000000 
0.332207 0.354994 0.000000 
0.333662 0.313259 0.000000 
0.321472 0.383611 0.000000 
0.302407 0.410424 0.000000 
0.214022 0.425086 0.000000 
0.194081 0.486110 0.000000 
0.186716 0.541623 0.000000 
0.189303 0.594395 0.000000 
0.360023 0.273577 0.000000 
0.405131 0.248444 0.000000 
0.201671 0.643641 0.000000 
0.218038 0.693902 0.000000 
0.236652 0.742836 0.000000 
0.256885 0.784770 0.000000 
0.278373 0.813264 0.000000 
0.284019 0.846662 0.000000 
0.276718 0.893409 0.000000 
0.278735 0.950222 0.000000 
0.296322 1.000489 0.000000 
-1.507867 1.753361 0.000000 
-1.548116 1.728719 0.000000 
-1.598023 1.701339 0.000000 
-1.467251 1.768135 0.000000 
-1.422160 1.775418 0.000000 
-1.373311 1.782134 0.000000 
-1.322903 1.789911 0.000000 
-1.275577 1.799157 0.000000 
-1.225048 1.797758 0.000000 
-1.662214 1.677670 0.000000 
-1.732600 1.657730 0.000000 
-1.794687 1.643355 0.000000 
-1.841773 1.614167 0.000000 
-2.078405 0.681440 0.000000 
-2.079214 0.760029 0.000000 
-2.097651 0.603840 0.000000 
-2.129318 0.532101 0.000000 
-2.096743 0.840592 0.000000 
-2.169699 0.476758 0.000000 
-1.991686 0.403758 0.000000 
-1.642187 0.329314 0.000000 
-1.989898 0.236533 0.000000 
-2.064526 0.164720 0.000000 
-1.914688 0.310067 0.000000 
-2.037969 1.093144 0.000000 
-2.021377 0.977459 0.000000 
-2.055796 1.222306 0.000000 
-2.102728 1.324959 0.000000 
-2.047875 1.467261 0.000000 
0.428030 0.213992 0.000000 
0.375625 0.192756 0.000000 
0.313454 0.205857 0.000000 
0.290352 0.351891 0.000000 
0.238487 1.062809 0.000000 
0.440631 0.175884 0.000000 
0.396678 0.136107 0.000000 
0.460488 0.110187 0.000000 
0.523747 1.286299 0.000000 
-2.262588 0.249554 0.000000 
-2.220468 0.305581 0.000000 
-2.218579 0.196042 0.000000 
-2.146376 0.247893 0.000000 
-2.206503 0.130972 0.000000 
0.473879 1.247687 0.000000 
0.446488 1.195356 0.000000 
0.440978 1.151337 0.000000 
0.409581 1.143481 0.000000 
0.629179 1.972377 0.000000 
0.593839 1.939904 0.000000 
0.550362 1.895700 0.000000 
0.483841 1.855277 0.000000 
0.202470 0.996445 0.000000 
0.241245 0.848669 0.000000 
0.205152 0.823869 0.000000 
0.175878 0.775728 0.000000 
0.153326 0.717222 0.000000 
0.132079 0.656772 0.000000 
0.113278 0.592316 0.000000 
0.106000 0.523993 0.000000 
0.109640 0.454796 0.000000 
0.121648 0.384118 0.000000 
0.032483 0.294504 0.000000 
0.246820 0.377182 0.000000 
0.099619 0.242869 0.000000 
0.373127 1.128599 0.000000 
-0.307911 1.991739 0.000000 
-0.360136 1.973270 0.000000 
-0.343252 1.918924 0.000000 
-0.270247 1.927068 0.000000 
0.168337 0.239388 0.000000 
0.242346 0.229050 0.000000 
0.270369 0.298087 0.000000 
0.505525 1.354060 0.000000 
-0.689828 0.181315 0.000000 
-0.729540 0.238719 0.000000 
-0.746154 0.313192 0.000000 
-0.657668 0.329756 0.000000 
-0.661195 0.245469 0.000000 
-0.924642 0.482432 0.000000 
-1.137284 1.745795 0.000000 
-1.072920 1.701201 0.000000 
-1.248127 1.758092 0.000000 
-1.304069 1.741770 0.000000 
-1.360197 1.734110 0.000000 
-1.411221 1.729970 0.000000 
-1.453165 1.726740 0.000000 
-1.486003 1.709278 0.000000 
-1.510814 1.665809 0.000000 
-1.558800 1.621140 0.000000 
-0.995058 1.674448 0.000000 
-0.919611 1.663972 0.000000 
-0.852227 1.670904 0.000000 
-0.796966 1.687422 0.000000 
-0.752732 1.706591 0.000000 
-1.635591 1.593807 0.000000 
-1.992480 0.868509 0.000000 
-1.965104 0.758729 0.000000 
-1.974377 0.655397 0.000000 
-2.014368 0.561775 0.000000 
-2.065453 0.478589 0.000000 
-2.071492 0.325522 0.000000 
-2.131272 0.409058 0.000000 
-1.712039 1.580484 0.000000 
-1.781280 1.580435 0.000000 
-1.884796 1.550378 0.000000 
0.516332 1.770040 0.000000 
0.538779 1.698912 0.000000 
0.517174 1.428446 0.000000 
0.552532 1.490382 0.000000 
0.576896 1.532309 0.000000 
0.583356 1.569335 0.000000 
0.576083 1.606339 0.000000 