# vtk DataFile Version 3.0 
vtk output 
ASCII 
DATASET UNSTRUCTURED_GRID 
POINTS 899 float 
-3.648847 2.325801 0.000000 
-3.619410 2.285249 0.000000 
-3.578536 2.249655 0.000000 
-3.540028 2.214004 0.000000 
-3.511690 2.181808 0.000000 
-3.481362 2.151950 0.000000 
-3.451569 2.111276 0.000000 
0.772356 2.228315 0.000000 
0.774615 2.202194 0.000000 
0.769962 2.173440 0.000000 
-3.399514 2.081001 0.000000 
0.413960 -0.563842 0.000000 
0.455573 -0.559539 0.000000 
-1.762619 -0.463737 0.000000 
-1.783389 -0.428341 0.000000 
-1.714437 -0.399551 0.000000 
0.732567 2.222640 0.000000 
0.698438 2.208804 0.000000 
0.491831 -0.545336 0.000000 
0.519501 -0.514931 0.000000 
0.530556 -0.474484 0.000000 
0.532354 -0.428680 0.000000 
0.531774 -0.378173 0.000000 
-3.460923 2.019268 0.000000 
0.663989 2.186857 0.000000 
0.631675 2.159463 0.000000 
0.601833 2.135407 0.000000 
0.569607 2.112149 0.000000 
0.534059 2.090072 0.000000 
0.492599 2.068932 0.000000 
0.444403 2.050267 0.000000 
0.762807 2.132466 0.000000 
-1.708694 -0.365169 0.000000 
-1.726386 -0.324905 0.000000 
-1.761257 -0.300885 0.000000 
-1.812853 -0.293036 0.000000 
-0.690422 -0.545372 0.000000 
-0.624256 -0.563299 0.000000 
-0.561079 -0.571481 0.000000 
-0.500739 -0.572937 0.000000 
-0.445387 -0.572999 0.000000 
0.532260 -0.319090 0.000000 
0.536647 -0.249756 0.000000 
-1.881389 -0.280536 0.000000 
-0.389303 -0.570724 0.000000 
-0.340338 -0.555439 0.000000 
-0.344339 -0.501304 0.000000 
-0.358558 -0.448764 0.000000 
-0.381750 -0.407853 0.000000 
-0.406193 -0.373678 0.000000 
-0.417316 -0.342180 0.000000 
-0.428320 -0.307924 0.000000 
-0.436973 -0.263659 0.000000 
-0.444212 -0.208116 0.000000 
-0.452662 -0.149258 0.000000 
-0.468602 -0.092359 0.000000 
0.553166 -0.185042 0.000000 
0.573193 -0.127371 0.000000 
0.574450 -0.075630 0.000000 
0.561087 -0.025310 0.000000 
0.550432 0.030013 0.000000 
0.748903 2.079148 0.000000 
0.730940 2.022655 0.000000 
0.715868 1.976496 0.000000 
0.699446 1.940368 0.000000 
0.684888 1.899379 0.000000 
0.675900 1.853174 0.000000 
0.669871 1.803614 0.000000 
0.664455 1.755757 0.000000 
0.668163 1.709338 0.000000 
0.672091 1.659504 0.000000 
0.674558 1.611481 0.000000 
0.673045 1.561402 0.000000 
0.386491 2.040587 0.000000 
0.664855 1.502663 0.000000 
0.652298 1.444585 0.000000 
0.638456 1.390935 0.000000 
0.623121 1.341425 0.000000 
0.616008 1.298398 0.000000 
0.600787 1.263456 0.000000 
0.571289 1.234007 0.000000 
0.539016 1.202845 0.000000 
0.513857 1.173946 0.000000 
0.493343 1.147711 0.000000 
0.469109 1.129899 0.000000 
0.444920 1.113454 0.000000 
0.415324 1.092488 0.000000 
0.383540 1.067736 0.000000 
0.356179 1.038404 0.000000 
0.343879 0.999504 0.000000 
0.337476 0.953984 0.000000 
0.332404 0.908697 0.000000 
0.328512 0.869008 0.000000 
0.319594 0.832928 0.000000 
0.304149 0.799517 0.000000 
0.290502 0.759126 0.000000 
0.275896 0.711264 0.000000 
0.261905 0.669295 0.000000 
0.250150 0.635700 0.000000 
0.250896 0.597895 0.000000 
0.259587 0.555291 0.000000 
0.284617 0.512518 0.000000 
0.315237 0.482857 0.000000 
0.340022 0.463420 0.000000 
0.354380 0.437571 0.000000 
0.368685 0.410429 0.000000 
0.385568 0.384032 0.000000 
0.415372 0.359235 0.000000 
0.447119 0.327523 0.000000 
0.477633 0.299606 0.000000 
0.503078 0.271670 0.000000 
0.518876 0.233616 0.000000 
0.527127 0.197647 0.000000 
0.534187 0.153102 0.000000 
0.543185 0.092322 0.000000 
0.322519 2.029531 0.000000 
0.263849 2.016414 0.000000 
0.208223 2.010995 0.000000 
0.150441 2.007166 0.000000 
-0.687392 -0.472304 0.000000 
-3.327058 2.054769 0.000000 
-3.276080 2.008347 0.000000 
-3.224941 1.974760 0.000000 
-3.181728 1.945602 0.000000 
-3.135074 1.908672 0.000000 
-3.078123 1.884379 0.000000 
-1.944260 -0.235657 0.000000 
0.083204 2.012322 0.000000 
0.005786 2.006969 0.000000 
-0.071812 2.016208 0.000000 
-0.135705 2.045749 0.000000 
-0.182391 2.087355 0.000000 
-1.999041 -0.164689 0.000000 
-1.843230 -0.439198 0.000000 
-0.491126 -0.028399 0.000000 
-0.512312 0.044844 0.000000 
-0.526535 0.107676 0.000000 
-0.527935 0.169798 0.000000 
-0.524207 0.236968 0.000000 
-0.505864 0.294100 0.000000 
-0.468875 0.343312 0.000000 
-0.410369 0.372557 0.000000 
-0.354013 0.393674 0.000000 
-0.301050 0.403619 0.000000 
-0.255730 0.404392 0.000000 
-0.695595 -0.394009 0.000000 
-0.726457 -0.317127 0.000000 
-0.747352 -0.247672 0.000000 
-3.396487 1.997633 0.000000 
-3.344056 1.918245 0.000000 
-3.294256 1.874845 0.000000 
-3.248246 1.836520 0.000000 
-3.196818 1.797167 0.000000 
-3.159669 1.745857 0.000000 
-3.113281 1.699152 0.000000 
-3.056061 1.679589 0.000000 
-2.996684 1.656964 0.000000 
-2.933161 1.627348 0.000000 
-2.879064 1.591205 0.000000 
-2.813006 1.566419 0.000000 
-2.751664 1.543369 0.000000 
-2.686782 1.514046 0.000000 
-1.922020 -0.436391 0.000000 
-1.999705 -0.437890 0.000000 
-2.060018 -0.416286 0.000000 
-2.032615 -0.081299 0.000000 
-2.048550 0.004424 0.000000 
-2.029059 0.070317 0.000000 
-2.105228 -0.359228 0.000000 
-2.154373 -0.291633 0.000000 
-2.203584 -0.237009 0.000000 
-2.237020 -0.175574 0.000000 
-2.250593 -0.110281 0.000000 
-2.270119 -0.038497 0.000000 
-2.297898 0.031813 0.000000 
-2.327118 0.093393 0.000000 
-2.346747 0.147363 0.000000 
-2.362840 0.200472 0.000000 
-2.374561 0.251517 0.000000 
-2.373128 0.303493 0.000000 
-2.334174 0.370083 0.000000 
-2.331842 0.410701 0.000000 
-2.284565 0.419460 0.000000 
-0.236368 2.136890 0.000000 
-0.299146 2.180717 0.000000 
-0.346614 2.200642 0.000000 
-0.382877 2.164139 0.000000 
-0.412447 2.135089 0.000000 
-0.433989 2.094802 0.000000 
-0.446472 2.051835 0.000000 
-0.451628 2.012517 0.000000 
-0.451047 1.974055 0.000000 
-0.449242 1.938051 0.000000 
-0.453345 1.906162 0.000000 
-0.460251 1.878468 0.000000 
-0.470304 1.849683 0.000000 
-0.475290 1.820193 0.000000 
-0.478341 1.790408 0.000000 
-0.479442 1.753672 0.000000 
-2.609147 1.500257 0.000000 
-2.517189 1.494759 0.000000 
-2.434013 1.495095 0.000000 
-2.352624 1.485064 0.000000 
-2.274410 1.465693 0.000000 
-2.204499 1.431044 0.000000 
-2.180326 1.362161 0.000000 
-2.178559 1.273625 0.000000 
-2.168273 1.183596 0.000000 
-2.159086 1.085532 0.000000 
-2.144575 0.996373 0.000000 
-2.163040 0.921156 0.000000 
-2.183612 0.847065 0.000000 
-2.172907 0.782507 0.000000 
-2.161614 0.719752 0.000000 
-2.169833 0.659640 0.000000 
-2.188987 0.597887 0.000000 
-2.218663 0.546641 0.000000 
-2.229021 0.490768 0.000000 
-2.997130 1.867582 0.000000 
-3.021908 1.769444 0.000000 
-2.902046 1.836075 0.000000 
-0.770600 -0.165079 0.000000 
-0.790096 -0.073420 0.000000 
-0.811857 0.007288 0.000000 
-0.835807 0.085852 0.000000 
-0.859157 0.155980 0.000000 
-0.881226 0.216031 0.000000 
-0.903169 0.275382 0.000000 
-0.928196 0.339426 0.000000 
-2.785442 1.803522 0.000000 
-2.944278 1.742780 0.000000 
-2.855014 1.705634 0.000000 
-2.796189 1.645554 0.000000 
-2.651235 1.788776 0.000000 
-2.517962 1.778428 0.000000 
-2.394240 1.769266 0.000000 
-2.275192 1.761269 0.000000 
-2.180847 1.736708 0.000000 
-2.099904 1.710229 0.000000 
-2.018420 1.678989 0.000000 
-1.945469 1.683286 0.000000 
-1.885190 1.716626 0.000000 
-1.829736 1.737195 0.000000 
-1.760875 1.762426 0.000000 
-1.680504 1.790851 0.000000 
-1.617798 1.809168 0.000000 
-1.570169 1.823691 0.000000 
-1.527149 1.837881 0.000000 
-1.482581 1.850010 0.000000 
-1.433927 1.856551 0.000000 
-1.386311 1.864466 0.000000 
-1.337319 1.873196 0.000000 
-1.286363 1.880276 0.000000 
-1.235962 1.880993 0.000000 
-1.188452 1.885806 0.000000 
-1.140860 1.895257 0.000000 
-1.091558 1.894567 0.000000 
-1.038962 1.883548 0.000000 
-0.982519 1.864550 0.000000 
-0.922315 1.847808 0.000000 
-0.869867 1.837483 0.000000 
-0.827747 1.830993 0.000000 
-0.785371 1.826082 0.000000 
-0.748025 1.816345 0.000000 
-0.712781 1.806077 0.000000 
-0.681690 1.792146 0.000000 
-0.657198 1.781011 0.000000 
-0.633895 1.774348 0.000000 
-0.612002 1.769893 0.000000 
-0.594184 1.762680 0.000000 
-0.577381 1.753230 0.000000 
-0.560109 1.737946 0.000000 
-0.540091 1.705492 0.000000 
-1.243914 0.066646 0.000000 
-1.232782 0.080363 0.000000 
-1.257376 0.052293 0.000000 
-1.224378 0.099063 0.000000 
-1.271472 0.032947 0.000000 
-1.215702 0.121060 0.000000 
-1.204660 0.147116 0.000000 
-1.290143 0.005205 0.000000 
-1.314447 -0.039835 0.000000 
-1.190204 0.177423 0.000000 
-1.318041 -0.093189 0.000000 
-1.171655 0.211579 0.000000 
-1.149359 0.247893 0.000000 
-1.123094 0.286142 0.000000 
-1.284246 -0.143168 0.000000 
-1.239750 -0.193895 0.000000 
-1.083297 0.330133 0.000000 
-1.028190 0.361804 0.000000 
-1.181630 -0.236251 0.000000 
-1.112789 -0.267679 0.000000 
-1.040643 -0.279849 0.000000 
-0.978118 -0.282936 0.000000 
-0.927392 -0.295961 0.000000 
-0.889718 -0.335096 0.000000 
-0.873564 -0.391646 0.000000 
-0.920771 -0.423840 0.000000 
-0.935346 -0.356571 0.000000 
-0.991249 -0.433416 0.000000 
-1.088918 -0.430688 0.000000 
-1.067426 -0.351036 0.000000 
-1.189474 -0.423124 0.000000 
-1.147229 -0.338369 0.000000 
-1.266509 -0.399834 0.000000 
-1.219913 -0.312191 0.000000 
-1.335307 -0.364007 0.000000 
-1.284456 -0.274192 0.000000 
-1.402357 -0.320104 0.000000 
-1.341444 -0.226391 0.000000 
-1.466758 -0.267428 0.000000 
-1.539152 -0.206629 0.000000 
-1.393011 -0.168460 0.000000 
-1.612839 -0.136358 0.000000 
-1.665320 -0.078779 0.000000 
-1.691220 -0.013953 0.000000 
-1.704696 0.071541 0.000000 
-1.850073 0.238410 0.000000 
-1.911042 0.182585 0.000000 
-1.969645 0.125748 0.000000 
-1.726970 0.177952 0.000000 
-0.222881 0.385781 0.000000 
-0.195707 0.358198 0.000000 
-0.164205 0.321251 0.000000 
-0.127520 0.288553 0.000000 
-0.095686 0.259062 0.000000 
-0.059027 0.230583 0.000000 
-0.018954 0.200600 0.000000 
0.030296 0.169329 0.000000 
0.086536 0.148803 0.000000 
0.141893 0.130072 0.000000 
0.202102 0.100792 0.000000 
0.263408 0.060875 0.000000 
0.311661 0.010888 0.000000 
0.333954 -0.048734 0.000000 
0.338621 -0.109184 0.000000 
0.341530 -0.163123 0.000000 
0.353165 -0.213312 0.000000 
0.365710 -0.271734 0.000000 
0.363543 -0.341263 0.000000 
[...]
POINT_DATA 899 
VECTORS X_GC float 
-3.648847 2.325801 0.000000 
-3.619410 2.285249 0.000000 
-3.578536 2.249655 0.000000 
-3.540028 2.214004 0.000000 
-3.511690 2.181808 0.000000 
-3.481362 2.151950 0.000000 
-3.451569 2.111276 0.000000 
0.772356 2.228315 0.000000 
0.774615 2.202194 0.000000 
0.769962 2.173440 0.000000 
-3.399514 2.081001 0.000000 
0.413960 -0.563842 0.000000 
0.455573 -0.559539 0.000000 
-1.762619 -0.463737 0.000000 
-1.783389 -0.428341 0.000000 
-1.714437 -0.399551 0.000000 
0.732567 2.222640 0.000000 
0.698438 2.208804 0.000000 
0.491831 -0.545336 0.000000 
0.519501 -0.514931 0.000000 
0.530556 -0.474484 0.000000 
0.532354 -0.428680 0.000000 
0.531774 -0.378173 0.000000 
-3.460923 2.019268 0.000000 
0.663989 2.186857 0.000000 
0.631675 2.159463 0.000000 
0.601833 2.135407 0.000000 
0.569607 2.112149 0.000000 
0.534059 2.090072 0.000000 
0.492599 2.068932 0.000000 
0.444403 2.050267 0.000000 
0.762807 2.132466 0.000000 
-1.708694 -0.365169 0.000000 
-1.726386 -0.324905 0.000000 
-1.761257 -0.300885 0.000000 
-1.812853 -0.293036 0.000000 
-0.690422 -0.545372 0.000000 
-0.624256 -0.563299 0.000000 
-0.561079 -0.571481 0.000000 
-0.500739 -0.572937 0.000000 
-0.445387 -0.572999 0.000000 
0.532260 -0.319090 0.000000 
0.536647 -0.249756 0.000000 
-1.881389 -0.280536 0.000000 
-0.389303 -0.570724 0.000000 
-0.340338 -0.555439 0.000000 
-0.344339 -0.501304 0.000000 
-0.358558 -0.448764 0.000000 
-0.381750 -0.407853 0.000000 
-0.406193 -0.373678 0.000000 
-0.417316 -0.342180 0.000000 
-0.428320 -0.307924 0.000000 
-0.436973 -0.263659 0.000000 
-0.444212 -0.208116 0.000000 
-0.452662 -0.149258 0.000000 
-0.468602 -0.092359 0.000000 
0.553166 -0.185042 0.000000 
0.573193 -0.127371 0.000000 
0.574450 -0.075630 0.000000 
0.561087 -0.025310 0.000000 
0.550432 0.030013 0.000000 
0.748903 2.079148 0.000000 
0.730940 2.022655 0.000000 
0.715868 1.976496 0.000000 
0.699446 1.940368 0.000000 
0.684888 1.899379 0.000000 
0.675900 1.853174 0.000000 
0.669871 1.803614 0.000000 
0.664455 1.755757 0.000000 
0.668163 1.709338 0.000000 
0.672091 1.659504 0.000000 
0.674558 1.611481 0.000000 
0.673045 1.561402 0.000000 
0.386491 2.040587 0.000000 
0.664855 1.502663 0.000000 
0.652298 1.444585 0.000000 
0.638456 1.390935 0.000000 
0.623121 1.341425 0.000000 
0.616008 1.298398 0.000000 
0.600787 1.263456 0.000000 
0.571289 1.234007 0.000000 
0.539016 1.202845 0.000000 
0.513857 1.173946 0.000000 
0.493343 1.147711 0.000000 
0.469109 1.129899 0.000000 
0.444920 1.113454 0.000000 
0.415324 1.092488 0.000000 
0.383540 1.067736 0.000000 
0.356179 1.038404 0.000000 
0.343879 0.999504 0.000000 
0.337476 0.953984 0.000000 
0.332404 0.908697 0.000000 
0.328512 0.869008 0.000000 
0.319594 0.832928 0.000000 
0.304149 0.799517 0.000000 
0.290502 0.759126 0.000000 
0.275896 0.711264 0.000000 
0.261905 0.669295 0.000000 
0.250150 0.635700 0.000000 
0.250896 0.597895 0.000000 
0.259587 0.555291 0.000000 
0.284617 0.512518 0.000000 
0.315237 0.482857 0.000000 
0.340022 0.463420 0.000000 
0.354380 0.437571 0.000000 
0.368685 0.410429 0.000000 
0.385568 0.384032 0.000000 
0.415372 0.359235 0.000000 
0.447119 0.327523 0.000000 
0.477633 0.299606 0.000000 
0.503078 0.271670 0.000000 
0.518876 0.233616 0.000000 
0.527127 0.197647 0.000000 
0.534187 0.153102 0.000000 
0.543185 0.092322 0.000000 
0.322519 2.029531 0.000000 
0.263849 2.016414 0.000000 
0.208223 2.010995 0.000000 
0.150441 2.007166 0.000000 
-0.687392 -0.472304 0.000000 
-3.327058 2.054769 0.000000 
-3.276080 2.008347 0.000000 
-3.224941 1.974760 0.000000 
-3.181728 1.945602 0.000000 
-3.135074 1.908672 0.000000 
-3.078123 1.884379 0.000000 
-1.944260 -0.235657 0.000000 
0.083204 2.012322 0.000000 
0.005786 2.006969 0.000000 
-0.071812 2.016208 0.000000 
-0.135705 2.045749 0.000000 
-0.182391 2.087355 0.000000 
-1.999041 -0.164689 0.000000 
-1.843230 -0.439198 0.000000 
-0.491126 -0.028399 0.000000 
-0.512312 0.044844 0.000000 
-0.526535 0.107676 0.000000 
-0.527935 0.169798 0.000000 
-0.524207 0.236968 0.000000 
-0.505864 0.294100 0.000000 
-0.468875 0.343312 0.000000 
-0.410369 0.372557 0.000000 
-0.354013 0.393674 0.000000 
-0.301050 0.403619 0.000000 
-0.255730 0.404392 0.000000 
-0.695595 -0.394009 0.000000 
-0.726457 -0.317127 0.000000 
-0.747352 -0.247672 0.000000 
-3.396487 1.997633 0.000000 
-3.344056 1.918245 0.000000 
-3.294256 1.874845 0.000000 
-3.248246 1.836520 0.000000 
-3.196818 1.797167 0.000000 
-3.159669 1.745857 0.000000 
-3.113281 1.699152 0.000000 
-3.056061 1.679589 0.000000 
-2.996684 1.656964 0.000000 
-2.933161 1.627348 0.000000 
-2.879064 1.591205 0.000000 
-2.813006 1.566419 0.000000 
-2.751664 1.543369 0.000000 
-2.686782 1.514046 0.000000 
-1.922020 -0.436391 0.000000 
-1.999705 -0.437890 0.000000 
-2.060018 -0.416286 0.000000 
-2.032615 -0.081299 0.000000 
-2.048550 0.004424 0.000000 
-2.029059 0.070317 0.000000 
-2.105228 -0.359228 0.000000 
-2.154373 -0.291633 0.000000 
-2.203584 -0.237009 0.000000 
-2.237020 -0.175574 0.000000 
-2.250593 -0.110281 0.000000 
-2.270119 -0.038497 0.000000 
-2.297898 0.031813 0.000000 
-2.327118 0.093393 0.000000 
-2.346747 0.147363 0.000000 
-2.362840 0.200472 0.000000 
-2.374561 0.251517 0.000000 
-2.373128 0.303493 0.000000 
-2.334174 0.370083 0.000000 
-2.331842 0.410701 0.000000 
-2.284565 0.419460 0.000000 
-0.236368 2.136890 0.000000 
-0.299146 2.180717 0.000000 
-0.346614 2.200642 0.000000 
-0.382877 2.164139 0.000000 
-0.412447 2.135089 0.000000 
-0.433989 2.094802 0.000000 
-0.446472 2.051835 0.000000 
-0.451628 2.012517 0.000000 
-0.451047 1.974055 0.000000 
-0.449242 1.938051 0.000000 
-0.453345 1.906162 0.000000 
-0.460251 1.878468 0.000000 
-0.470304 1.849683 0.000000 
-0.475290 1.820193 0.000000 
-0.478341 1.790408 0.000000 
-0.479442 1.753672 0.000000 
-2.609147 1.500257 0.000000 
-2.517189 1.494759 0.000000 
-2.434013 1.495095 0.000000 
-2.352624 1.485064 0.000000 
-2.274410 1.465693 0.000000 
-2.204499 1.431044 0.000000 
-2.180326 1.362161 0.000000 
-2.178559 1.273625 0.000000 
-2.168273 1.183596 0.000000 
-2.159086 1.085532 0.000000 
-2.144575 0.996373 0.000000 
-2.163040 0.921156 0.000000 
-2.183612 0.847065 0.000000 
-2.172907 0.782507 0.000000 
-2.161614 0.719752 0.000000 
-2.169833 0.659640 0.000000 
-2.188987 0.597887 0.000000 
-2.218663 0.546641 0.000000 
-2.229021 0.490768 0.000000 
-2.997130 1.867582 0.000000 
-3.021908 1.769444 0.000000 
-2.902046 1.836075 0.000000 
-0.770600 -0.165079 0.000000 
-0.790096 -0.073420 0.000000 
-0.811857 0.007288 0.000000 
-0.835807 0.085852 0.000000 
-0.859157 0.155980 0.000000 
-0.881226 0.216031 0.000000 
-0.903169 0.275382 0.000000 
-0.928196 0.339426 0.000000 
-2.785442 1.803522 0.000000 
-2.944278 1.742780 0.000000 
-2.855014 1.705634 0.000000 
-2.796189 1.645554 0.000000 
-2.651235 1.788776 0.000000 
-2.517962 1.778428 0.000000 
-2.394240 1.769266 0.000000 
-2.275192 1.761269 0.000000 
-2.180847 1.736708 0.000000 
-2.099904 1.710229 0.000000 
-2.018420 1.678989 0.000000 
-1.945469 1.683286 0.000000 
-1.885190 1.716626 0.000000 
-1.829736 1.737195 0.000000 
-1.760875 1.762426 0.000000 
-1.680504 1.790851 0.000000 
-1.617798 1.809168 0.000000 
-1.570169 1.823691 0.000000 
-1.527149 1.837881 0.000000 
-1.482581 1.850010 0.000000 
-1.433927 1.856551 0.000000 
-1.386311 1.864466 0.000000 
-1.337319 1.873196 0.000000 
-1.286363 1.880276 0.000000 
-1.235962 1.880993 0.000000 
-1.188452 1.885806 0.000000 
-1.140860 1.895257 0.000000 
-1.091558 1.894567 0.000000 
-1.038962 1.883548 0.000000 
-0.982519 1.864550 0.000000 
-0.922315 1.847808 0.000000 
-0.869867 1.837483 0.000000 
-0.827747 1.830993 0.000000 
-0.785371 1.826082 0.000000 
-0.748025 1.816345 0.000000 
-0.712781 1.806077 0.000000 
-0.681690 1.792146 0.000000 
-0.657198 1.781011 0.000000 
-0.633895 1.774348 0.000000 
-0.612002 1.769893 0.000000 
-0.594184 1.762680 0.000000 
-0.577381 1.753230 0.000000 
-0.560109 1.737946 0.000000 
-0.540091 1.705492 0.000000 
-1.243914 0.066646 0.000000 
-1.232782 0.080363 0.000000 
-1.257376 0.052293 0.000000 
-1.224378 0.099063 0.000000 
-1.271472 0.032947 0.000000 
-1.215702 0.121060 0.000000 
-1.204660 0.147116 0.000000 
-1.290143 0.005205 0.000000 
-1.314447 -0.039835 0.000000 
-1.190204 0.177423 0.000000 
-1.318041 -0.093189 0.000000 
-1.171655 0.211579 0.000000 
-1.149359 0.247893 0.000000 
-1.123094 0.286142 0.000000 
-1.284246 -0.143168 0.000000 
-1.239750 -0.193895 0.000000 
-1.083297 0.330133 0.000000 
-1.028190 0.361804 0.000000 
-1.181630 -0.236251 0.000000 
-1.112789 -0.267679 0.000000 
-1.040643 -0.279849 0.000000 
-0.978118 -0.282936 0.000000 
-0.927392 -0.295961 0.000000 
-0.889718 -0.335096 0.000000 
-0.873564 -0.391646 0.000000 
-0.920771 -0.423840 0.000000 
-0.935346 -0.356571 0.000000 
-0.991249 -0.433416 0.000000 
-1.088918 -0.430688 0.000000 
-1.067426 -0.351036 0.000000 
-1.189474 -0.423124 0.000000 
-1.147229 -0.338369 0.000000 
-1.266509 -0.399834 0.000000 
-1.219913 -0.312191 0.000000 
-1.335307 -0.364007 0.000000 
-1.284456 -0.274192 0.000000 
-1.402357 -0.320104 0.000000 
-1.341444 -0.226391 0.000000 
-1.466758 -0.267428 0.000000 
-1.539152 -0.206629 0.000000 
-1.393011 -0.168460 0.000000 
-1.612839 -0.136358 0.000000 
-1.665320 -0.078779 0.000000 
-1.691220 -0.013953 0.000000 
-1.704696 0.071541 0.000000 
-1.850073 0.238410 0.000000 
-1.911042 0.182585 0.000000 
-1.969645 0.125748 0.000000 
-1.726970 0.177952 0.000000 
-0.222881 0.385781 0.000000 
-0.195707 0.358198 0.000000 
-0.164205 0.321251 0.000000 
-0.127520 0.288553 0.000000 
-0.095686 0.259062 0.000000 
-0.059027 0.230583 0.000000 
-0.018954 0.200600 0.000000 
0.030296 0.169329 0.000000 
0.086536 0.148803 0.000000 
0.141893 0.130072 0.000000 
0.202102 0.100792 0.000000 
0.263408 0.060875 0.000000 
0.311661 0.010888 0.000000 
0.333954 -0.048734 0.000000 
0.338621 -0.109184 0.000000 
0.341530 -0.163123 0.000000 
0.353165 -0.213312 0.000000 
0.365710 -0.271734 0.000000 
0.363543 -0.341263 0.000000 
0.357353 -0.403378 0.000000 
0.351188 -0.454120 0.000000 
0.363842 -0.501148 0.000000 
-1.737069 -0.367799 0.000000 
-0.199590 0.438399 0.000000 
-0.156305 0.408483 0.000000 
-0.462327 1.674438 0.000000 
0.741313 2.197013 0.000000 
0.482415 -0.511919 0.000000 
0.446104 -0.519815 0.000000 
0.403556 -0.525469 0.000000 
-0.104001 0.380418 0.000000 
-0.514998 1.606493 0.000000 
-0.059937 0.346013 0.000000 
0.738519 2.171748 0.000000 
0.714572 2.184048 0.000000 
-0.249752 0.465222 0.000000 
-0.036232 0.302215 0.000000 
0.000772 0.274382 0.000000 
0.035161 0.248738 0.000000 
-1.776537 -0.367241 0.000000 
-1.836238 -0.363056 0.000000 
-0.309416 0.479322 0.000000 
-0.378944 0.477058 0.000000 
-2.292732 0.356646 0.000000 
-2.315166 0.306655 0.000000 
-2.314418 0.259098 0.000000 
-2.293418 0.212712 0.000000 
-2.279687 0.162833 0.000000 
-2.253462 0.115567 0.000000 
0.075120 0.220995 0.000000 
0.131113 0.208387 0.000000 
-0.977004 0.410370 0.000000 
-0.860050 0.400205 0.000000 
-1.912142 -0.355000 0.000000 
-1.989966 -0.363780 0.000000 
-2.023752 -0.296238 0.000000 
-2.082175 -0.224977 0.000000 
0.723889 2.140235 0.000000 
0.691466 2.159078 0.000000 
0.665980 2.126431 0.000000 
0.704783 2.099163 0.000000 
0.637970 2.088373 0.000000 
0.681732 2.051954 0.000000 
0.670916 2.005779 0.000000 
0.602858 2.056705 0.000000 
0.659584 1.965355 0.000000 
0.560783 2.030334 0.000000 
0.636111 1.929281 0.000000 
0.607495 1.879490 0.000000 
0.595324 1.816009 0.000000 
0.604052 1.751336 0.000000 
0.514160 2.000931 0.000000 
0.453857 1.973486 0.000000 
0.392525 1.971507 0.000000 
0.334098 1.969979 0.000000 
0.278675 1.951225 0.000000 
0.217273 1.933150 0.000000 
0.149449 1.915794 0.000000 
0.614128 1.699060 0.000000 
0.621313 1.651481 0.000000 
0.624262 1.606601 0.000000 
-2.197766 0.062379 0.000000 
-2.158682 -0.012545 0.000000 
-2.124695 0.121709 0.000000 
-2.150589 -0.178671 0.000000 
-2.141926 -0.101125 0.000000 
-0.393439 -0.517685 0.000000 
-0.412631 -0.473642 0.000000 
-0.436983 -0.433039 0.000000 
-0.445953 -0.389619 0.000000 
-0.458251 -0.356793 0.000000 
-0.479726 -0.322027 0.000000 
-0.496934 -0.273296 0.000000 
-0.509002 -0.218212 0.000000 
-0.517157 -0.163882 0.000000 
-0.545309 -0.112607 0.000000 
-0.442273 -0.515080 0.000000 
-0.496002 -0.505563 0.000000 
-0.557668 -0.507669 0.000000 
-0.618975 -0.492189 0.000000 
-0.334659 2.138829 0.000000 
-0.367985 2.109112 0.000000 
-0.385153 2.072686 0.000000 
-0.396797 2.038819 0.000000 
-0.406285 2.003297 0.000000 
-0.402558 1.964163 0.000000 
-0.406645 1.925720 0.000000 
-0.418378 1.893306 0.000000 
-0.428059 1.864180 0.000000 
-0.435849 1.834633 0.000000 
-0.442335 1.804598 0.000000 
-0.445406 1.771533 0.000000 
-0.444483 1.725817 0.000000 
0.619822 1.560869 0.000000 
-1.077870 0.457434 0.000000 
-1.149036 0.415476 0.000000 
-1.174735 0.340633 0.000000 
-1.192231 0.288910 0.000000 
-1.210811 0.247133 0.000000 
-1.228352 0.207794 0.000000 
-1.238869 0.169813 0.000000 
-1.244643 0.138316 0.000000 
-1.248534 0.113415 0.000000 
-1.252336 0.094127 0.000000 
-1.262323 0.080876 0.000000 
-1.280319 0.069960 0.000000 
-0.451814 0.454398 0.000000 
-0.526928 0.410876 0.000000 
0.194935 0.191395 0.000000 
0.069048 1.901694 0.000000 
-0.574175 0.340192 0.000000 
-0.593607 0.259089 0.000000 
-1.764101 0.298774 0.000000 
-2.210991 0.417630 0.000000 
-0.825996 0.314928 0.000000 
-0.799223 0.243848 0.000000 
-0.760911 0.177414 0.000000 
0.605964 1.509918 0.000000 
0.587834 1.452558 0.000000 
0.576354 1.392709 0.000000 
0.574971 1.337701 0.000000 
0.580375 1.294676 0.000000 
0.545179 1.272292 0.000000 
0.509957 1.240030 0.000000 
0.484198 1.203627 0.000000 
0.468721 1.172473 0.000000 
0.449386 1.153942 0.000000 
0.422962 1.141276 0.000000 
0.391379 1.122125 0.000000 
0.357154 1.098062 0.000000 
0.323730 1.069690 0.000000 
-0.582151 -0.051739 0.000000 
0.265957 0.164965 0.000000 
0.333763 0.118836 0.000000 
0.378371 0.051820 0.000000 
0.400918 -0.022575 0.000000 
0.401084 -0.085564 0.000000 
0.404345 -0.139665 0.000000 
0.432648 -0.190747 0.000000 
0.450030 -0.255188 0.000000 
0.529803 -0.102034 0.000000 
0.491947 -0.150172 0.000000 
0.453243 -0.100288 0.000000 
0.449550 -0.329512 0.000000 
0.498420 -0.056161 0.000000 
0.474171 0.003780 0.000000 
0.457863 0.078354 0.000000 
0.462195 -0.388166 0.000000 
0.478704 -0.434502 0.000000 
0.483460 -0.475468 0.000000 
0.412910 -0.413808 0.000000 
0.398390 -0.452521 0.000000 
0.404290 -0.486808 0.000000 
0.442452 -0.482250 0.000000 
0.436659 -0.447086 0.000000 
-0.727378 0.103281 0.000000 
-0.616071 0.185299 0.000000 
-0.623548 0.111019 0.000000 
-0.605779 0.030011 0.000000 
-0.706340 0.017563 0.000000 
-0.681483 -0.068699 0.000000 
-0.032304 1.896134 0.000000 
-0.128010 1.932283 0.000000 
-0.195732 1.999407 0.000000 
-0.243911 2.053321 0.000000 
-0.287859 2.100725 0.000000 
-0.335518 2.073029 0.000000 
-0.667608 -0.154080 0.000000 
-0.584906 -0.160848 0.000000 
-0.658169 -0.234088 0.000000 
-0.578442 -0.226218 0.000000 
-0.639050 -0.305531 0.000000 
-0.607982 -0.381048 0.000000 
-0.562541 -0.288917 0.000000 
-0.536184 -0.349941 0.000000 
-0.495978 -0.387902 0.000000 
-0.500680 -0.440297 0.000000 
-0.573051 -0.444750 0.000000 
-2.690892 1.669428 0.000000 
-2.684799 1.583415 0.000000 
-2.602920 1.582153 0.000000 
-2.574381 1.667146 0.000000 
-2.518122 1.602020 0.000000 
-2.424460 1.625918 0.000000 
-2.320006 1.616987 0.000000 
-2.229986 1.593369 0.000000 
-2.146342 1.552129 0.000000 
-1.455055 -0.109479 0.000000 
-1.387692 -0.029155 0.000000 
-1.339496 0.024173 0.000000 
-1.304977 0.052733 0.000000 
-1.531301 -0.043986 0.000000 
-1.604385 0.000126 0.000000 
-1.592423 0.100807 0.000000 
-1.608296 0.224770 0.000000 
-1.827918 0.423215 0.000000 
0.477873 0.192019 0.000000 
0.477147 0.226917 0.000000 
0.465631 0.261157 0.000000 
-0.587742 1.705367 0.000000 
-0.593403 1.729470 0.000000 
-0.604579 1.742126 0.000000 
-0.619289 1.747812 0.000000 
-0.639577 1.745639 0.000000 
-0.665912 1.747255 0.000000 
-0.697937 1.754242 0.000000 
-0.595692 1.651878 0.000000 
-0.726123 1.769053 0.000000 
-0.757398 1.779624 0.000000 
-0.794522 1.777048 0.000000 
-0.841416 1.774471 0.000000 
-0.894922 1.775831 0.000000 
-0.956071 1.784247 0.000000 
-1.020951 1.803168 0.000000 
-1.077937 1.830803 0.000000 
-1.120258 1.859531 0.000000 
-1.171769 1.835271 0.000000 
0.332207 0.388662 0.000000 
0.333662 0.346927 0.000000 
0.321472 0.417279 0.000000 
0.302407 0.444092 0.000000 
0.214022 0.458753 0.000000 
0.194081 0.519778 0.000000 
0.186716 0.575291 0.000000 
0.189303 0.628063 0.000000 
0.360023 0.307245 0.000000 
0.405131 0.282112 0.000000 
0.201671 0.677309 0.000000 
0.218038 0.727570 0.000000 
0.236652 0.776504 0.000000 
0.256885 0.818437 0.000000 
0.278373 0.846932 0.000000 
0.284019 0.880330 0.000000 
0.276718 0.927077 0.000000 
0.278735 0.983890 0.000000 
0.296322 1.034157 0.000000 
-1.507867 1.787029 0.000000 
-1.548116 1.762387 0.000000 
-1.598023 1.735007 0.000000 
-1.467251 1.801803 0.000000 
-1.422160 1.809086 0.000000 
-1.373311 1.815802 0.000000 
-1.322903 1.823579 0.000000 
-1.275577 1.832825 0.000000 
-1.225048 1.831425 0.000000 
-1.662214 1.711338 0.000000 
-1.732600 1.691398 0.000000 
-1.794687 1.677023 0.000000 
-1.841773 1.647835 0.000000 
-2.078405 0.715108 0.000000 
-2.079214 0.793697 0.000000 
-2.097651 0.637508 0.000000 
-2.129318 0.565769 0.000000 
-2.096743 0.874260 0.000000 
-2.169699 0.510426 0.000000 
-1.991686 0.437425 0.000000 
-1.642187 0.362981 0.000000 
-1.989898 0.270201 0.000000 
-2.064526 0.198388 0.000000 
-1.914688 0.343735 0.000000 
-2.037969 1.126812 0.000000 
-2.021377 1.011127 0.000000 
-2.055796 1.255973 0.000000 
-2.102728 1.358627 0.000000 
-2.047875 1.500929 0.000000 
0.428030 0.247660 0.000000 
0.375625 0.226424 0.000000 
0.313454 0.239525 0.000000 
0.290352 0.385559 0.000000 
0.238487 1.096477 0.000000 
0.440631 0.209552 0.000000 
0.396678 0.169775 0.000000 
0.460488 0.143855 0.000000 
0.523747 1.319967 0.000000 
-2.262588 0.283221 0.000000 
-2.220468 0.339249 0.000000 
-2.218579 0.229710 0.000000 
-2.146376 0.281560 0.000000 
-2.206503 0.164640 0.000000 
0.473879 1.281355 0.000000 
0.446488 1.229023 0.000000 
0.440978 1.185005 0.000000 
0.409581 1.177149 0.000000 
0.629179 2.006045 0.000000 
0.593839 1.973572 0.000000 
0.550362 1.929368 0.000000 
0.483841 1.888945 0.000000 
0.202470 1.030113 0.000000 
0.241245 0.882337 0.000000 
0.205152 0.857536 0.000000 
0.175878 0.809396 0.000000 
0.153326 0.750889 0.000000 
0.132079 0.690440 0.000000 
0.113278 0.625984 0.000000 
0.106000 0.557661 0.000000 
0.109640 0.488464 0.000000 
0.121648 0.417786 0.000000 
0.032483 0.328172 0.000000 
0.246820 0.410850 0.000000 
0.099619 0.276537 0.000000 
0.373127 1.162267 0.000000 
-0.307911 2.025407 0.000000 
-0.360136 2.006938 0.000000 
-0.343252 1.952592 0.000000 
-0.270247 1.960736 0.000000 
0.168337 0.273056 0.000000 
0.242346 0.262718 0.000000 
0.270369 0.331755 0.000000 
0.505525 1.387728 0.000000 
-0.689828 0.214983 0.000000 
-0.729540 0.272387 0.000000 
-0.746154 0.346860 0.000000 
-0.657668 0.363424 0.000000 
-0.661195 0.279137 0.000000 
-0.924642 0.516100 0.000000 
-1.137284 1.779463 0.000000 
-1.072920 1.734869 0.000000 
-1.248127 1.791760 0.000000 
-1.304069 1.775438 0.000000 
-1.360197 1.767777 0.000000 
-1.411221 1.763638 0.000000 
-1.453165 1.760408 0.000000 
-1.486003 1.742946 0.000000 
-1.510814 1.699477 0.000000 
-1.558800 1.654808 0.000000 
-0.995058 1.708116 0.000000 
-0.919611 1.697640 0.000000 
-0.852227 1.704572 0.000000 
-0.796966 1.721090 0.000000 
-0.752732 1.740259 0.000000 
-1.635591 1.627475 0.000000 
-1.992480 0.902177 0.000000 
-1.965104 0.792397 0.000000 
-1.974377 0.689064 0.000000 
-2.014368 0.595443 0.000000 
-2.065453 0.512257 0.000000 
-2.071492 0.359190 0.000000 
-2.131272 0.442726 0.000000 
-1.712039 1.614152 0.000000 
-1.781280 1.614103 0.000000 
-1.884796 1.584046 0.000000 
0.516332 1.803708 0.000000 
0.538779 1.732580 0.000000 
0.517174 1.462114 0.000000 
0.552532 1.524050 0.000000 
0.576896 1.565976 0.000000 
0.583356 1.603003 0.000000 
0.576083 1.640007 0.000000 
0.562288 1.682367 0.000000 