# vtk DataFile Version 3.0 
vtk output 
ASCII 
DATASET UNSTRUCTURED_GRID 
POINTS 899 float 
-3.648847 2.151311 0.000000 
-3.619410 2.110759 0.000000 
-3.578536 2.075164 0.000000 
-3.540028 2.039513 0.000000 
-3.511690 2.007318 0.000000 
-3.481362 1.977460 0.000000 
-3.451569 1.936786 0.000000 
0.772356 2.053825 0.000000 
0.774615 2.027704 0.000000 
0.769962 1.998949 0.000000 
-3.399514 1.906510 0.000000 
0.413960 -0.738332 0.000000 
0.455573 -0.734029 0.000000 
-1.762619 -0.638228 0.000000 
-1.783389 -0.602831 0.000000 
-1.714437 -0.574042 0.000000 
0.732567 2.048149 0.000000 
0.698438 2.034313 0.000000 
0.491831 -0.719827 0.000000 
0.519501 -0.689421 0.000000 
0.530556 -0.648975 0.000000 
0.532354 -0.603171 0.000000 
0.531774 -0.552664 0.000000 
-3.460923 1.844777 0.000000 
0.663989 2.012367 0.000000 
0.631675 1.984972 0.000000 
0.601833 1.960916 0.000000 
0.569607 1.937659 0.000000 
0.534059 1.915581 0.000000 
0.492599 1.894442 0.000000 
0.444403 1.875777 0.000000 
0.762807 1.957975 0.000000 
-1.708694 -0.539660 0.000000 
-1.726386 -0.499396 0.000000 
-1.761257 -0.475375 0.000000 
-1.812853 -0.467527 0.000000 
-0.690422 -0.719862 0.000000 
-0.624256 -0.737790 0.000000 
-0.561079 -0.745972 0.000000 
-0.500739 -0.747427 0.000000 
-0.445387 -0.747489 0.000000 
0.532260 -0.493580 0.000000 
0.536647 -0.424247 0.000000 
-1.881389 -0.455026 0.000000 
-0.389303 -0.745215 0.000000 
-0.340338 -0.729930 0.000000 
-0.344339 -0.675795 0.000000 
-0.358558 -0.623255 0.000000 
-0.381750 -0.582344 0.000000 
-0.406193 -0.548169 0.000000 
-0.417316 -0.516671 0.000000 
-0.428320 -0.482414 0.000000 
-0.436973 -0.438150 0.000000 
-0.444212 -0.382607 0.000000 
-0.452662 -0.323749 0.000000 
-0.468602 -0.266849 0.000000 
0.553166 -0.359532 0.000000 
0.573193 -0.301861 0.000000 
0.574450 -0.250121 0.000000 
0.561087 -0.199801 0.000000 
0.550432 -0.144478 0.000000 
0.748903 1.904657 0.000000 
0.730940 1.848165 0.000000 
0.715868 1.802006 0.000000 
0.699446 1.765878 0.000000 
0.684888 1.724888 0.000000 
0.675900 1.678684 0.000000 
0.669871 1.629124 0.000000 
0.664455 1.581267 0.000000 
0.668163 1.534847 0.000000 
0.672091 1.485014 0.000000 
0.674558 1.436990 0.000000 
0.673045 1.386911 0.000000 
0.386491 1.866096 0.000000 
0.664855 1.328172 0.000000 
0.652298 1.270095 0.000000 
0.638456 1.216445 0.000000 
0.623121 1.166935 0.000000 
0.616008 1.123907 0.000000 
0.600787 1.088965 0.000000 
0.571289 1.059516 0.000000 
0.539016 1.028355 0.000000 
0.513857 0.999456 0.000000 
0.493343 0.973221 0.000000 
0.469109 0.955408 0.000000 
0.444920 0.938964 0.000000 
0.415324 0.917998 0.000000 
0.383540 0.893246 0.000000 
0.356179 0.863913 0.000000 
0.343879 0.825014 0.000000 
0.337476 0.779493 0.000000 
0.332404 0.734207 0.000000 
0.328512 0.694517 0.000000 
0.319594 0.658438 0.000000 
0.304149 0.625027 0.000000 
0.290502 0.584636 0.000000 
0.275896 0.536773 0.000000 
0.261905 0.494804 0.000000 
0.250150 0.461209 0.000000 
0.250896 0.423404 0.000000 
0.259587 0.380801 0.000000 
0.284617 0.338028 0.000000 
0.315237 0.308366 0.000000 
0.340022 0.288930 0.000000 
0.354380 0.263081 0.000000 
0.368685 0.235938 0.000000 
0.385568 0.209542 0.000000 
0.415372 0.184745 0.000000 
0.447119 0.153032 0.000000 
0.477633 0.125116 0.000000 
0.503078 0.097179 0.000000 
0.518876 0.059125 0.000000 
0.527127 0.023157 0.000000 
0.534187 -0.021389 0.000000 
0.543185 -0.082169 0.000000 
0.322519 1.855041 0.000000 
0.263849 1.841924 0.000000 
0.208223 1.836504 0.000000 
0.150441 1.832675 0.000000 
-0.687392 -0.646795 0.000000 
-3.327058 1.880278 0.000000 
-3.276080 1.833857 0.000000 
-3.224941 1.800270 0.000000 
-3.181728 1.771112 0.000000 
-3.135074 1.734182 0.000000 
-3.078123 1.709889 0.000000 
-1.944260 -0.410148 0.000000 
0.083204 1.837832 0.000000 
0.005786 1.832479 0.000000 
-0.071812 1.841717 0.000000 
-0.135705 1.871259 0.000000 
-0.182391 1.912864 0.000000 
-1.999041 -0.339179 0.000000 
-1.843230 -0.613688 0.000000 
-0.491126 -0.202890 0.000000 
-0.512312 -0.129647 0.000000 
-0.526535 -0.066814 0.000000 
-0.527935 -0.004692 0.000000 
-0.524207 0.062478 0.000000 
-0.505864 0.119609 0.000000 
-0.468875 0.168821 0.000000 
-0.410369 0.198066 0.000000 
-0.354013 0.219184 0.000000 
-0.301050 0.229129 0.000000 
-0.255730 0.229902 0.000000 
-0.695595 -0.568499 0.000000 
-0.726457 -0.491618 0.000000 
-0.747352 -0.422163 0.000000 
-3.396487 1.823143 0.000000 
-3.344056 1.743755 0.000000 
-3.294256 1.700354 0.000000 
-3.248246 1.662030 0.000000 
-3.196818 1.622676 0.000000 
-3.159669 1.571366 0.000000 
-3.113281 1.524661 0.000000 
-3.056061 1.505098 0.000000 
-2.996684 1.482473 0.000000 
-2.933161 1.452857 0.000000 
-2.879064 1.416714 0.000000 
-2.813006 1.391929 0.000000 
-2.751664 1.368879 0.000000 
-2.686782 1.339556 0.000000 
-1.922020 -0.610881 0.000000 
-1.999705 -0.612380 0.000000 
-2.060018 -0.590776 0.000000 
-2.032615 -0.255789 0.000000 
-2.048550 -0.170067 0.000000 
-2.029059 -0.104174 0.000000 
-2.105228 -0.533718 0.000000 
-2.154373 -0.466123 0.000000 
-2.203584 -0.411500 0.000000 
-2.237020 -0.350064 0.000000 
-2.250593 -0.284772 0.000000 
-2.270119 -0.212988 0.000000 
-2.297898 -0.142677 0.000000 
-2.327118 -0.081097 0.000000 
-2.346747 -0.027127 0.000000 
-2.362840 0.025982 0.000000 
-2.374561 0.077027 0.000000 
-2.373128 0.129002 0.000000 
-2.334174 0.195592 0.000000 
-2.331842 0.236211 0.000000 
-2.284565 0.244969 0.000000 
-0.236368 1.962400 0.000000 
-0.299146 2.006226 0.000000 
-0.346614 2.026152 0.000000 
-0.382877 1.989648 0.000000 
-0.412447 1.960599 0.000000 
-0.433989 1.920311 0.000000 
-0.446472 1.877345 0.000000 
-0.451628 1.838027 0.000000 
-0.451047 1.799564 0.000000 
-0.449242 1.763561 0.000000 
-0.453345 1.731671 0.000000 
-0.460251 1.703978 0.000000 
-0.470304 1.675193 0.000000 
-0.475290 1.645703 0.000000 
-0.478341 1.615917 0.000000 
-0.479442 1.579181 0.000000 
-2.609147 1.325766 0.000000 
-2.517189 1.320268 0.000000 
-2.434013 1.320605 0.000000 
-2.352624 1.310573 0.000000 
-2.274410 1.291202 0.000000 
-2.204499 1.256554 0.000000 
-2.180326 1.187671 0.000000 
-2.178559 1.099135 0.000000 
-2.168273 1.009106 0.000000 
-2.159086 0.911042 0.000000 
-2.144575 0.821883 0.000000 
-2.163040 0.746666 0.000000 
-2.183612 0.672574 0.000000 
-2.172907 0.608017 0.000000 
-2.161614 0.545262 0.000000 
-2.169833 0.485150 0.000000 
-2.188987 0.423396 0.000000 
-2.218663 0.372151 0.000000 
-2.229021 0.316277 0.000000 
-2.997130 1.693092 0.000000 
-3.021908 1.594954 0.000000 
-2.902046 1.661584 0.000000 
-0.770600 -0.339569 0.000000 
-0.790096 -0.247910 0.000000 
-0.811857 -0.167202 0.000000 
-0.835807 -0.088638 0.000000 
-0.859157 -0.018511 0.000000 
-0.881226 0.041541 0.000000 
-0.903169 0.100892 0.000000 
-0.928196 0.164936 0.000000 
-2.785442 1.629031 0.000000 
-2.944278 1.568289 0.000000 
-2.855014 1.531144 0.000000 
-2.796189 1.471063 0.000000 
-2.651235 1.614285 0.000000 
-2.517962 1.603938 0.000000 
-2.394240 1.594775 0.000000 
-2.275192 1.586779 0.000000 
-2.180847 1.562218 0.000000 
-2.099904 1.535738 0.000000 
-2.018420 1.504498 0.000000 
-1.945469 1.508796 0.000000 
-1.885190 1.542136 0.000000 
-1.829736 1.562704 0.000000 
-1.760875 1.587936 0.000000 
-1.680504 1.616360 0.000000 
-1.617798 1.634677 0.000000 
-1.570169 1.649201 0.000000 
-1.527149 1.663391 0.000000 
-1.482581 1.675520 0.000000 
-1.433927 1.682060 0.000000 
-1.386311 1.689975 0.000000 
-1.337319 1.698706 0.000000 
-1.286363 1.705785 0.000000 
-1.235962 1.706503 0.000000 
-1.188452 1.711316 0.000000 
-1.140860 1.720767 0.000000 
-1.091558 1.720076 0.000000 
-1.038962 1.709057 0.000000 
-0.982519 1.690060 0.000000 
-0.922315 1.673317 0.000000 
-0.869867 1.662993 0.000000 
-0.827747 1.656503 0.000000 
-0.785371 1.651591 0.000000 
-0.748025 1.641854 0.000000 
-0.712781 1.631587 0.000000 
-0.681690 1.617655 0.000000 
-0.657198 1.606521 0.000000 
-0.633895 1.599858 0.000000 
-0.612002 1.595402 0.000000 
-0.594184 1.588189 0.000000 
-0.577381 1.578739 0.000000 
-0.560109 1.563456 0.000000 
-0.540091 1.531002 0.000000 
-1.243914 -0.107844 0.000000 
-1.232782 -0.094127 0.000000 
-1.257376 -0.122198 0.000000 
-1.224378 -0.075428 0.000000 
-1.271472 -0.141543 0.000000 
-1.215702 -0.053431 0.000000 
-1.204660 -0.027374 0.000000 
-1.290143 -0.169285 0.000000 
-1.314447 -0.214325 0.000000 
-1.190204 0.002932 0.000000 
-1.318041 -0.267679 0.000000 
-1.171655 0.037088 0.000000 
-1.149359 0.073403 0.000000 
-1.123094 0.111651 0.000000 
-1.284246 -0.317659 0.000000 
-1.239750 -0.368385 0.000000 
-1.083297 0.155643 0.000000 
-1.028190 0.187314 0.000000 
-1.181630 -0.410742 0.000000 
-1.112789 -0.442169 0.000000 
-1.040643 -0.454339 0.000000 
-0.978118 -0.457426 0.000000 
-0.927392 -0.470452 0.000000 
-0.889718 -0.509586 0.000000 
-0.873564 -0.566136 0.000000 
-0.920771 -0.598330 0.000000 
-0.935346 -0.531062 0.000000 
-0.991249 -0.607906 0.000000 
-1.088918 -0.605178 0.000000 
-1.067426 -0.525526 0.000000 
-1.189474 -0.597615 0.000000 
-1.147229 -0.512859 0.000000 
-1.266509 -0.574325 0.000000 
-1.219913 -0.486682 0.000000 
-1.335307 -0.538498 0.000000 
-1.284456 -0.448682 0.000000 
-1.402357 -0.494594 0.000000 
-1.341444 -0.400882 0.000000 
-1.466758 -0.441919 0.000000 
-1.539152 -0.381120 0.000000 
-1.393011 -0.342951 0.000000 
-1.612839 -0.310848 0.000000 
-1.665320 -0.253270 0.000000 
-1.691220 -0.188443 0.000000 
-1.704696 -0.102950 0.000000 
-1.850073 0.063920 0.000000 
-1.911042 0.008095 0.000000 
-1.969645 -0.048742 0.000000 
-1.726970 0.003461 0.000000 
-0.222881 0.211291 0.000000 
-0.195707 0.183708 0.000000 
-0.164205 0.146760 0.000000 
-0.127520 0.114063 0.000000 
-0.095686 0.084571 0.000000 
-0.059027 0.056093 0.000000 
-0.018954 0.026109 0.000000 
0.030296 -0.005161 0.000000 
0.086536 -0.025687 0.000000 
0.141893 -0.044419 0.000000 
0.202102 -0.073698 0.000000 
0.263408 -0.113615 0.000000 
0.311661 -0.163602 0.000000 
0.333954 -0.223225 0.000000 
0.338621 -0.283675 0.000000 
0.341530 -0.337613 0.000000 
0.353165 -0.387802 0.000000 
0.365710 -0.446225 0.000000 
[...]
POINT_DATA 899 
VECTORS X_GC float 
-3.648847 2.151311 0.000000 
-3.619410 2.110759 0.000000 
-3.578536 2.075164 0.000000 
-3.540028 2.039513 0.000000 
-3.511690 2.007318 0.000000 
-3.481362 1.977460 0.000000 
-3.451569 1.936786 0.000000 
0.772356 2.053825 0.000000 
0.774615 2.027704 0.000000 
0.769962 1.998949 0.000000 
-3.399514 1.906510 0.000000 
0.413960 -0.738332 0.000000 
0.455573 -0.734029 0.000000 
-1.762619 -0.638228 0.000000 
-1.783389 -0.602831 0.000000 
-1.714437 -0.574042 0.000000 
0.732567 2.048149 0.000000 
0.698438 2.034313 0.000000 
0.491831 -0.719827 0.000000 
0.519501 -0.689421 0.000000 
0.530556 -0.648975 0.000000 
0.532354 -0.603171 0.000000 
0.531774 -0.552664 0.000000 
-3.460923 1.844777 0.000000 
0.663989 2.012367 0.000000 
0.631675 1.984972 0.000000 
0.601833 1.960916 0.000000 
0.569607 1.937659 0.000000 
0.534059 1.915581 0.000000 
0.492599 1.894442 0.000000 
0.444403 1.875777 0.000000 
0.762807 1.957975 0.000000 
-1.708694 -0.539660 0.000000 
-1.726386 -0.499396 0.000000 
-1.761257 -0.475375 0.000000 
-1.812853 -0.467527 0.000000 
-0.690422 -0.719862 0.000000 
-0.624256 -0.737790 0.000000 
-0.561079 -0.745972 0.000000 
-0.500739 -0.747427 0.000000 
-0.445387 -0.747489 0.000000 
0.532260 -0.493580 0.000000 
0.536647 -0.424247 0.000000 
-1.881389 -0.455026 0.000000 
-0.389303 -0.745215 0.000000 
-0.340338 -0.729930 0.000000 
-0.344339 -0.675795 0.000000 
-0.358558 -0.623255 0.000000 
-0.381750 -0.582344 0.000000 
-0.406193 -0.548169 0.000000 
-0.417316 -0.516671 0.000000 
-0.428320 -0.482414 0.000000 
-0.436973 -0.438150 0.000000 
-0.444212 -0.382607 0.000000 
-0.452662 -0.323749 0.000000 
-0.468602 -0.266849 0.000000 
0.553166 -0.359532 0.000000 
0.573193 -0.301861 0.000000 
0.574450 -0.250121 0.000000 
0.561087 -0.199801 0.000000 
0.550432 -0.144478 0.000000 
0.748903 1.904657 0.000000 
0.730940 1.848165 0.000000 
0.715868 1.802006 0.000000 
0.699446 1.765878 0.000000 
0.684888 1.724888 0.000000 
0.675900 1.678684 0.000000 
0.669871 1.629124 0.000000 
0.664455 1.581267 0.000000 
0.668163 1.534847 0.000000 
0.672091 1.485014 0.000000 
0.674558 1.436990 0.000000 
0.673045 1.386911 0.000000 
0.386491 1.866096 0.000000 
0.664855 1.328172 0.000000 
0.652298 1.270095 0.000000 
0.638456 1.216445 0.000000 
0.623121 1.166935 0.000000 
0.616008 1.123907 0.000000 
0.600787 1.088965 0.000000 
0.571289 1.059516 0.000000 
0.539016 1.028355 0.000000 
0.513857 0.999456 0.000000 
0.493343 0.973221 0.000000 
0.469109 0.955408 0.000000 
0.444920 0.938964 0.000000 
0.415324 0.917998 0.000000 
0.383540 0.893246 0.000000 
0.356179 0.863913 0.000000 
0.343879 0.825014 0.000000 
0.337476 0.779493 0.000000 
0.332404 0.734207 0.000000 
0.328512 0.694517 0.000000 
0.319594 0.658438 0.000000 
0.304149 0.625027 0.000000 
0.290502 0.584636 0.000000 
0.275896 0.536773 0.000000 
0.261905 0.494804 0.000000 
0.250150 0.461209 0.000000 
0.250896 0.423404 0.000000 
0.259587 0.380801 0.000000 
0.284617 0.338028 0.000000 
0.315237 0.308366 0.000000 
0.340022 0.288930 0.000000 
0.354380 0.263081 0.000000 
0.368685 0.235938 0.000000 
0.385568 0.209542 0.000000 
0.415372 0.184745 0.000000 
0.447119 0.153032 0.000000 
0.477633 0.125116 0.000000 
0.503078 0.097179 0.000000 
0.518876 0.059125 0.000000 
0.527127 0.023157 0.000000 
0.534187 -0.021389 0.000000 
0.543185 -0.082169 0.000000 
0.322519 1.855041 0.000000 
0.263849 1.841924 0.000000 
0.208223 1.836504 0.000000 
0.150441 1.832675 0.000000 
-0.687392 -0.646795 0.000000 
-3.327058 1.880278 0.000000 
-3.276080 1.833857 0.000000 
-3.224941 1.800270 0.000000 
-3.181728 1.771112 0.000000 
-3.135074 1.734182 0.000000 
-3.078123 1.709889 0.000000 
-1.944260 -0.410148 0.000000 
0.083204 1.837832 0.000000 
0.005786 1.832479 0.000000 
-0.071812 1.841717 0.000000 
-0.135705 1.871259 0.000000 
-0.182391 1.912864 0.000000 
-1.999041 -0.339179 0.000000 
-1.843230 -0.613688 0.000000 
-0.491126 -0.202890 0.000000 
-0.512312 -0.129647 0.000000 
-0.526535 -0.066814 0.000000 
-0.527935 -0.004692 0.000000 
-0.524207 0.062478 0.000000 
-0.505864 0.119609 0.000000 
-0.468875 0.168821 0.000000 
-0.410369 0.198066 0.000000 
-0.354013 0.219184 0.000000 
-0.301050 0.229129 0.000000 
-0.255730 0.229902 0.000000 
-0.695595 -0.568499 0.000000 
-0.726457 -0.491618 0.000000 
-0.747352 -0.422163 0.000000 
-3.396487 1.823143 0.000000 
-3.344056 1.743755 0.000000 
-3.294256 1.700354 0.000000 
-3.248246 1.662030 0.000000 
-3.196818 1.622676 0.000000 
-3.159669 1.571366 0.000000 
-3.113281 1.524661 0.000000 
-3.056061 1.505098 0.000000 
-2.996684 1.482473 0.000000 
-2.933161 1.452857 0.000000 
-2.879064 1.416714 0.000000 
-2.813006 1.391929 0.000000 
-2.751664 1.368879 0.000000 
-2.686782 1.339556 0.000000 
-1.922020 -0.610881 0.000000 
-1.999705 -0.612380 0.000000 
-2.060018 -0.590776 0.000000 
-2.032615 -0.255789 0.000000 
-2.048550 -0.170067 0.000000 
-2.029059 -0.104174 0.000000 
-2.105228 -0.533718 0.000000 
-2.154373 -0.466123 0.000000 
-2.203584 -0.411500 0.000000 
-2.237020 -0.350064 0.000000 
-2.250593 -0.284772 0.000000 
-2.270119 -0.212988 0.000000 
-2.297898 -0.142677 0.000000 
-2.327118 -0.081097 0.000000 
-2.346747 -0.027127 0.000000 
-2.362840 0.025982 0.000000 
-2.374561 0.077027 0.000000 
-2.373128 0.129002 0.000000 
-2.334174 0.195592 0.000000 
-2.331842 0.236211 0.000000 
-2.284565 0.244969 0.000000 
-0.236368 1.962400 0.000000 
-0.299146 2.006226 0.000000 
-0.346614 2.026152 0.000000 
-0.382877 1.989648 0.000000 
-0.412447 1.960599 0.000000 
-0.433989 1.920311 0.000000 
-0.446472 1.877345 0.000000 
-0.451628 1.838027 0.000000 
-0.451047 1.799564 0.000000 
-0.449242 1.763561 0.000000 
-0.453345 1.731671 0.000000 
-0.460251 1.703978 0.000000 
-0.470304 1.675193 0.000000 
-0.475290 1.645703 0.000000 
-0.478341 1.615917 0.000000 
-0.479442 1.579181 0.000000 
-2.609147 1.325766 0.000000 
-2.517189 1.320268 0.000000 
-2.434013 1.320605 0.000000 
-2.352624 1.310573 0.000000 
-2.274410 1.291202 0.000000 
-2.204499 1.256554 0.000000 
-2.180326 1.187671 0.000000 
-2.178559 1.099135 0.000000 
-2.168273 1.009106 0.000000 
-2.159086 0.911042 0.000000 
-2.144575 0.821883 0.000000 
-2.163040 0.746666 0.000000 
-2.183612 0.672574 0.000000 
-2.172907 0.608017 0.000000 
-2.161614 0.545262 0.000000 
-2.169833 0.485150 0.000000 
-2.188987 0.423396 0.000000 
-2.218663 0.372151 0.000000 
-2.229021 0.316277 0.000000 
-2.997130 1.693092 0.000000 
-3.021908 1.594954 0.000000 
-2.902046 1.661584 0.000000 
-0.770600 -0.339569 0.000000 
-0.790096 -0.247910 0.000000 
-0.811857 -0.167202 0.000000 
-0.835807 -0.088638 0.000000 
-0.859157 -0.018511 0.000000 
-0.881226 0.041541 0.000000 
-0.903169 0.100892 0.000000 
-0.928196 0.164936 0.000000 
-2.785442 1.629031 0.000000 
-2.944278 1.568289 0.000000 
-2.855014 1.531144 0.000000 
-2.796189 1.471063 0.000000 
-2.651235 1.614285 0.000000 
-2.517962 1.603938 0.000000 
-2.394240 1.594775 0.000000 
-2.275192 1.586779 0.000000 
-2.180847 1.562218 0.000000 
-2.099904 1.535738 0.000000 
-2.018420 1.504498 0.000000 
-1.945469 1.508796 0.000000 
-1.885190 1.542136 0.000000 
-1.829736 1.562704 0.000000 
-1.760875 1.587936 0.000000 
-1.680504 1.616360 0.000000 
-1.617798 1.634677 0.000000 
-1.570169 1.649201 0.000000 
-1.527149 1.663391 0.000000 
-1.482581 1.675520 0.000000 
-1.433927 1.682060 0.000000 
-1.386311 1.689975 0.000000 
-1.337319 1.698706 0.000000 
-1.286363 1.705785 0.000000 
-1.235962 1.706503 0.000000 
-1.188452 1.711316 0.000000 
-1.140860 1.720767 0.000000 
-1.091558 1.720076 0.000000 
-1.038962 1.709057 0.000000 
-0.982519 1.690060 0.000000 
-0.922315 1.673317 0.000000 
-0.869867 1.662993 0.000000 
-0.827747 1.656503 0.000000 
-0.785371 1.651591 0.000000 
-0.748025 1.641854 0.000000 
-0.712781 1.631587 0.000000 
-0.681690 1.617655 0.000000 
-0.657198 1.606521 0.000000 
-0.633895 1.599858 0.000000 
-0.612002 1.595402 0.000000 
-0.594184 1.588189 0.000000 
-0.577381 1.578739 0.000000 
-0.560109 1.563456 0.000000 
-0.540091 1.531002 0.000000 
-1.243914 -0.107844 0.000000 
-1.232782 -0.094127 0.000000 
-1.257376 -0.122198 0.000000 
-1.224378 -0.075428 0.000000 
-1.271472 -0.141543 0.000000 
-1.215702 -0.053431 0.000000 
-1.204660 -0.027374 0.000000 
-1.290143 -0.169285 0.000000 
-1.314447 -0.214325 0.000000 
-1.190204 0.002932 0.000000 
-1.318041 -0.267679 0.000000 
-1.171655 0.037088 0.000000 
-1.149359 0.073403 0.000000 
-1.123094 0.111651 0.000000 
-1.284246 -0.317659 0.000000 
-1.239750 -0.368385 0.000000 
-1.083297 0.155643 0.000000 
-1.028190 0.187314 0.000000 
-1.181630 -0.410742 0.000000 
-1.112789 -0.442169 0.000000 
-1.040643 -0.454339 0.000000 
-0.978118 -0.457426 0.000000 
-0.927392 -0.470452 0.000000 
-0.889718 -0.509586 0.000000 
-0.873564 -0.566136 0.000000 
-0.920771 -0.598330 0.000000 
-0.935346 -0.531062 0.000000 
-0.991249 -0.607906 0.000000 
-1.088918 -0.605178 0.000000 
-1.067426 -0.525526 0.000000 
-1.189474 -0.597615 0.000000 
-1.147229 -0.512859 0.000000 
-1.266509 -0.574325 0.000000 
-1.219913 -0.486682 0.000000 
-1.335307 -0.538498 0.000000 
-1.284456 -0.448682 0.000000 
-1.402357 -0.494594 0.000000 
-1.341444 -0.400882 0.000000 
-1.466758 -0.441919 0.000000 
-1.539152 -0.381120 0.000000 
-1.393011 -0.342951 0.000000 
-1.612839 -0.310848 0.000000 
-1.665320 -0.253270 0.000000 
-1.691220 -0.188443 0.000000 
-1.704696 -0.102950 0.000000 
-1.850073 0.063920 0.000000 
-1.911042 0.008095 0.000000 
-1.969645 -0.048742 0.000000 
-1.726970 0.003461 0.000000 
-0.222881 0.211291 0.000000 
-0.195707 0.183708 0.000000 
-0.164205 0.146760 0.000000 
-0.127520 0.114063 0.000000 
-0.095686 0.084571 0.000000 
-0.059027 0.056093 0.000000 
-0.018954 0.026109 0.000000 
0.030296 -0.005161 0.000000 
0.086536 -0.025687 0.000000 
0.141893 -0.044419 0.000000 
0.202102 -0.073698 0.000000 
0.263408 -0.113615 0.000000 
0.311661 -0.163602 0.000000 
0.333954 -0.223225 0.000000 
0.338621 -0.283675 0.000000 
0.341530 -0.337613 0.000000 
0.353165 -0.387802 0.000000 
0.365710 -0.446225 0.000000 
0.363543 -0.515753 0.000000 
0.357353 -0.577868 0.000000 
0.351188 -0.628610 0.000000 
0.363842 -0.675639 0.000000 
-1.737069 -0.542290 0.000000 
-0.199590 0.263908 0.000000 
-0.156305 0.233992 0.000000 
-0.462327 1.499948 0.000000 
0.741313 2.022522 0.000000 
0.482415 -0.686409 0.000000 
0.446104 -0.694305 0.000000 
0.403556 -0.699960 0.000000 
-0.104001 0.205927 0.000000 
-0.514998 1.432002 0.000000 
-0.059937 0.171522 0.000000 
0.738519 1.997257 0.000000 
0.714572 2.009558 0.000000 
-0.249752 0.290732 0.000000 
-0.036232 0.127724 0.000000 
0.000772 0.099892 0.000000 
0.035161 0.074247 0.000000 
-1.776537 -0.541731 0.000000 
-1.836238 -0.537547 0.000000 
-0.309416 0.304832 0.000000 
-0.378944 0.302568 0.000000 
-2.292732 0.182156 0.000000 
-2.315166 0.132165 0.000000 
-2.314418 0.084608 0.000000 
-2.293418 0.038222 0.000000 
-2.279687 -0.011657 0.000000 
-2.253462 -0.058923 0.000000 
0.075120 0.046504 0.000000 
0.131113 0.033897 0.000000 
-0.977004 0.235880 0.000000 
-0.860050 0.225715 0.000000 
-1.912142 -0.529490 0.000000 
-1.989966 -0.538270 0.000000 
-2.023752 -0.470728 0.000000 
-2.082175 -0.399468 0.000000 
0.723889 1.965744 0.000000 
0.691466 1.984587 0.000000 
0.665980 1.951941 0.000000 
0.704783 1.924672 0.000000 
0.637970 1.913883 0.000000 
0.681732 1.877464 0.000000 
0.670916 1.831289 0.000000 
0.602858 1.882214 0.000000 
0.659584 1.790865 0.000000 
0.560783 1.855844 0.000000 
0.636111 1.754790 0.000000 
0.607495 1.704999 0.000000 
0.595324 1.641519 0.000000 
0.604052 1.576846 0.000000 
0.514160 1.826440 0.000000 
0.453857 1.798995 0.000000 
0.392525 1.797017 0.000000 
0.334098 1.795488 0.000000 
0.278675 1.776735 0.000000 
0.217273 1.758659 0.000000 
0.149449 1.741304 0.000000 
0.614128 1.524570 0.000000 
0.621313 1.476991 0.000000 
0.624262 1.432111 0.000000 
-2.197766 -0.112112 0.000000 
-2.158682 -0.187035 0.000000 
-2.124695 -0.052781 0.000000 
-2.150589 -0.353162 0.000000 
-2.141926 -0.275616 0.000000 
-0.393439 -0.692176 0.000000 
-0.412631 -0.648133 0.000000 
-0.436983 -0.607529 0.000000 
-0.445953 -0.564110 0.000000 
-0.458251 -0.531284 0.000000 
-0.479726 -0.496517 0.000000 
-0.496934 -0.447787 0.000000 
-0.509002 -0.392703 0.000000 
-0.517157 -0.338372 0.000000 
-0.545309 -0.287097 0.000000 
-0.442273 -0.689570 0.000000 
-0.496002 -0.680053 0.000000 
-0.557668 -0.682160 0.000000 
-0.618975 -0.666680 0.000000 
-0.334659 1.964339 0.000000 
-0.367985 1.934621 0.000000 
-0.385153 1.898196 0.000000 
-0.396797 1.864329 0.000000 
-0.406285 1.828806 0.000000 
-0.402558 1.789673 0.000000 
-0.406645 1.751230 0.000000 
-0.418378 1.718815 0.000000 
-0.428059 1.689690 0.000000 
-0.435849 1.660143 0.000000 
-0.442335 1.630108 0.000000 
-0.445406 1.597043 0.000000 
-0.444483 1.551326 0.000000 
0.619822 1.386379 0.000000 
-1.077870 0.282944 0.000000 
-1.149036 0.240985 0.000000 
-1.174735 0.166143 0.000000 
-1.192231 0.114419 0.000000 
-1.210811 0.072643 0.000000 
-1.228352 0.033303 0.000000 
-1.238869 -0.004677 0.000000 
-1.244643 -0.036174 0.000000 
-1.248534 -0.061075 0.000000 
-1.252336 -0.080363 0.000000 
-1.262323 -0.093615 0.000000 
-1.280319 -0.104531 0.000000 
-0.451814 0.279907 0.000000 
-0.526928 0.236386 0.000000 
0.194935 0.016904 0.000000 
0.069048 1.727204 0.000000 
-0.574175 0.165701 0.000000 
-0.593607 0.084598 0.000000 
-1.764101 0.124283 0.000000 
-2.210991 0.243140 0.000000 
-0.825996 0.140438 0.000000 
-0.799223 0.069357 0.000000 
-0.760911 0.002924 0.000000 
0.605964 1.335427 0.000000 
0.587834 1.278067 0.000000 
0.576354 1.218219 0.000000 
0.574971 1.163210 0.000000 
0.580375 1.120186 0.000000 
0.545179 1.097802 0.000000 
0.509957 1.065539 0.000000 
0.484198 1.029137 0.000000 
0.468721 0.997982 0.000000 
0.449386 0.979451 0.000000 
0.422962 0.966786 0.000000 
0.391379 0.947635 0.000000 
0.357154 0.923571 0.000000 
0.323730 0.895199 0.000000 
-0.582151 -0.226229 0.000000 
0.265957 -0.009525 0.000000 
0.333763 -0.055655 0.000000 
0.378371 -0.122670 0.000000 
0.400918 -0.197065 0.000000 
0.401084 -0.260054 0.000000 
0.404345 -0.314155 0.000000 
0.432648 -0.365237 0.000000 
0.450030 -0.429678 0.000000 
0.529803 -0.276525 0.000000 
0.491947 -0.324662 0.000000 
0.453243 -0.274779 0.000000 
0.449550 -0.504002 0.000000 
0.498420 -0.230651 0.000000 
0.474171 -0.170710 0.000000 
0.457863 -0.096137 0.000000 
0.462195 -0.562656 0.000000 
0.478704 -0.608992 0.000000 
0.483460 -0.649958 0.000000 
0.412910 -0.588298 0.000000 
0.398390 -0.627011 0.000000 
0.404290 -0.661299 0.000000 
0.442452 -0.656741 0.000000 
0.436659 -0.621576 0.000000 
-0.727378 -0.071209 0.000000 
-0.616071 0.010809 0.000000 
-0.623548 -0.063472 0.000000 
-0.605779 -0.144479 0.000000 
-0.706340 -0.156927 0.000000 
-0.681483 -0.243189 0.000000 
-0.032304 1.721643 0.000000 
-0.128010 1.757793 0.000000 
-0.195732 1.824917 0.000000 
-0.243911 1.878831 0.000000 
-0.287859 1.926234 0.000000 
-0.335518 1.898538 0.000000 
-0.667608 -0.328570 0.000000 
-0.584906 -0.335338 0.000000 
-0.658169 -0.408579 0.000000 
-0.578442 -0.400708 0.000000 
-0.639050 -0.480021 0.000000 
-0.607982 -0.555538 0.000000 
-0.562541 -0.463408 0.000000 
-0.536184 -0.524431 0.000000 
-0.495978 -0.562393 0.000000 
-0.500680 -0.614787 0.000000 
-0.573051 -0.619240 0.000000 
-2.690892 1.494937 0.000000 
-2.684799 1.408925 0.000000 
-2.602920 1.407663 0.000000 
-2.574381 1.492656 0.000000 
-2.518122 1.427530 0.000000 
-2.424460 1.451428 0.000000 
-2.320006 1.442497 0.000000 
-2.229986 1.418879 0.000000 
-2.146342 1.377639 0.000000 
-1.455055 -0.283970 0.000000 
-1.387692 -0.203646 0.000000 
-1.339496 -0.150318 0.000000 
-1.304977 -0.121758 0.000000 
-1.531301 -0.218477 0.000000 
-1.604385 -0.174364 0.000000 
-1.592423 -0.073684 0.000000 
-1.608296 0.050279 0.000000 
-1.827918 0.248725 0.000000 
0.477873 0.017528 0.000000 
0.477147 0.052427 0.000000 
0.465631 0.086667 0.000000 
-0.587742 1.530876 0.000000 
-0.593403 1.554980 0.000000 
-0.604579 1.567636 0.000000 
-0.619289 1.573322 0.000000 
-0.639577 1.571148 0.000000 
-0.665912 1.572765 0.000000 
-0.697937 1.579751 0.000000 
-0.595692 1.477388 0.000000 
-0.726123 1.594563 0.000000 
-0.757398 1.605133 0.000000 
-0.794522 1.602558 0.000000 
-0.841416 1.599980 0.000000 
-0.894922 1.601341 0.000000 
-0.956071 1.609757 0.000000 
-1.020951 1.628678 0.000000 
-1.077937 1.656313 0.000000 
-1.120258 1.685041 0.000000 
-1.171769 1.660781 0.000000 
0.332207 0.214172 0.000000 
0.333662 0.172436 0.000000 
0.321472 0.242788 0.000000 
0.302407 0.269601 0.000000 
0.214022 0.284263 0.000000 
0.194081 0.345288 0.000000 
0.186716 0.400801 0.000000 
0.189303 0.453573 0.000000 
0.360023 0.132755 0.000000 
0.405131 0.107622 0.000000 
0.201671 0.502818 0.000000 
0.218038 0.553079 0.000000 
0.236652 0.602013 0.000000 
0.256885 0.643947 0.000000 
0.278373 0.672441 0.000000 
0.284019 0.705839 0.000000 
0.276718 0.752586 0.000000 
0.278735 0.809399 0.000000 
0.296322 0.859667 0.000000 
-1.507867 1.612538 0.000000 
-1.548116 1.587896 0.000000 
-1.598023 1.560517 0.000000 
-1.467251 1.627312 0.000000 
-1.422160 1.634596 0.000000 
-1.373311 1.641312 0.000000 
-1.322903 1.649089 0.000000 
-1.275577 1.658334 0.000000 
-1.225048 1.656935 0.000000 
-1.662214 1.536847 0.000000 
-1.732600 1.516908 0.000000 
-1.794687 1.502532 0.000000 
-1.841773 1.473345 0.000000 
-2.078405 0.540618 0.000000 
-2.079214 0.619207 0.000000 
-2.097651 0.463018 0.000000 
-2.129318 0.391279 0.000000 
-2.096743 0.699769 0.000000 
-2.169699 0.335935 0.000000 
-1.991686 0.262935 0.000000 
-1.642187 0.188491 0.000000 
-1.989898 0.095710 0.000000 
-2.064526 0.023898 0.000000 
-1.914688 0.169245 0.000000 
-2.037969 0.952321 0.000000 
-2.021377 0.836637 0.000000 
-2.055796 1.081483 0.000000 
-2.102728 1.184136 0.000000 
-2.047875 1.326439 0.000000 
0.428030 0.073169 0.000000 
0.375625 0.051933 0.000000 
0.313454 0.065034 0.000000 
0.290352 0.211069 0.000000 
0.238487 0.921986 0.000000 
0.440631 0.035062 0.000000 
0.396678 -0.004715 0.000000 
0.460488 -0.030636 0.000000 
0.523747 1.145476 0.000000 
-2.262588 0.108731 0.000000 
-2.220468 0.164758 0.000000 
-2.218579 0.055220 0.000000 
-2.146376 0.107070 0.000000 
-2.206503 -0.009850 0.000000 
0.473879 1.106864 0.000000 
0.446488 1.054533 0.000000 
0.440978 1.010514 0.000000 
0.409581 1.002659 0.000000 
0.629179 1.831554 0.000000 
0.593839 1.799081 0.000000 
0.550362 1.754877 0.000000 
0.483841 1.714454 0.000000 
0.202470 0.855622 0.000000 
0.241245 0.707847 0.000000 
0.205152 0.683046 0.000000 
0.175878 0.634905 0.000000 
0.153326 0.576399 0.000000 
0.132079 0.515949 0.000000 
0.113278 0.451493 0.000000 
0.106000 0.383170 0.000000 
0.109640 0.313974 0.000000 
0.121648 0.243296 0.000000 
0.032483 0.153681 0.000000 
0.246820 0.236360 0.000000 
0.099619 0.102047 0.000000 
0.373127 0.987777 0.000000 
-0.307911 1.850917 0.000000 
-0.360136 1.832447 0.000000 
-0.343252 1.778102 0.000000 
-0.270247 1.786246 0.000000 
0.168337 0.098565 0.000000 
0.242346 0.088228 0.000000 
0.270369 0.157264 0.000000 
0.505525 1.213238 0.000000 
-0.689828 0.040493 0.000000 
-0.729540 0.097897 0.000000 
-0.746154 0.172369 0.000000 
-0.657668 0.188933 0.000000 
-0.661195 0.104647 0.000000 
-0.924642 0.341609 0.000000 
-1.137284 1.604972 0.000000 
-1.072920 1.560378 0.000000 
-1.248127 1.617269 0.000000 
-1.304069 1.600947 0.000000 
-1.360197 1.593287 0.000000 
-1.411221 1.589147 0.000000 
-1.453165 1.585918 0.000000 
-1.486003 1.568456 0.000000 
-1.510814 1.524987 0.000000 
-1.558800 1.480318 0.000000 
-0.995058 1.533625 0.000000 
-0.919611 1.523149 0.000000 
-0.852227 1.530081 0.000000 
-0.796966 1.546600 0.000000 
-0.752732 1.565768 0.000000 
-1.635591 1.452985 0.000000 
-1.992480 0.727686 0.000000 
-1.965104 0.617907 0.000000 
-1.974377 0.514574 0.000000 
-2.014368 0.420952 0.000000 
-2.065453 0.337766 0.000000 
-2.071492 0.184699 0.000000 
-2.131272 0.268236 0.000000 
-1.712039 1.439662 0.000000 
-1.781280 1.439612 0.000000 
-1.884796 1.409555 0.000000 
0.516332 1.629218 0.000000 
0.538779 1.558090 0.000000 
0.517174 1.287623 0.000000 
0.552532 1.349559 0.000000 
0.576896 1.391486 0.000000 
0.583356 1.428512 0.000000 