# vtk DataFile Version 3.0 
vtk output 
ASCII 
DATASET UNSTRUCTURED_GRID 
POINTS 899 float 
-3.648847 2.283304 0.000000 
-3.619410 2.242752 0.000000 
-3.578536 2.207158 0.000000 
-3.540028 2.171507 0.000000 
-3.511690 2.139311 0.000000 
-3.481362 2.109453 0.000000 
-3.451569 2.068780 0.000000 
0.772356 2.185818 0.000000 
0.774615 2.159697 0.000000 
0.769962 2.130943 0.000000 
-3.399514 2.038504 0.000000 
0.413960 -0.606338 0.000000 
0.455573 -0.602036 0.000000 
-1.762619 -0.506234 0.000000 
-1.783389 -0.470838 0.000000 
-1.714437 -0.442048 0.000000 
0.732567 2.180143 0.000000 
0.698438 2.166307 0.000000 
0.491831 -0.587833 0.000000 
0.519501 -0.557428 0.000000 
0.530556 -0.516981 0.000000 
0.532354 -0.471177 0.000000 
0.531774 -0.420670 0.000000 
-3.460923 1.976771 0.000000 
0.663989 2.144360 0.000000 
0.631675 2.116966 0.000000 
0.601833 2.092910 0.000000 
0.569607 2.069653 0.000000 
0.534059 2.047575 0.000000 
0.492599 2.026435 0.000000 
0.444403 2.007770 0.000000 
0.762807 2.089969 0.000000 
-1.708694 -0.407666 0.000000 
-1.726386 -0.367402 0.000000 
-1.761257 -0.343382 0.000000 
-1.812853 -0.335533 0.000000 
-0.690422 -0.587869 0.000000 
-0.624256 -0.605796 0.000000 
-0.561079 -0.613978 0.000000 
-0.500739 -0.615434 0.000000 
-0.445387 -0.615496 0.000000 
0.532260 -0.361587 0.000000 
0.536647 -0.292253 0.000000 
-1.881389 -0.323033 0.000000 
-0.389303 -0.613221 0.000000 
-0.340338 -0.597936 0.000000 
-0.344339 -0.543801 0.000000 
-0.358558 -0.491261 0.000000 
-0.381750 -0.450350 0.000000 
-0.406193 -0.416175 0.000000 
-0.417316 -0.384677 0.000000 
-0.428320 -0.350420 0.000000 
-0.436973 -0.306156 0.000000 
-0.444212 -0.250613 0.000000 
-0.452662 -0.191755 0.000000 
-0.468602 -0.134856 0.000000 
0.553166 -0.227538 0.000000 
0.573193 -0.169867 0.000000 
0.574450 -0.118127 0.000000 
0.561087 -0.067807 0.000000 
0.550432 -0.012484 0.000000 
0.748903 2.036651 0.000000 
0.730940 1.980158 0.000000 
0.715868 1.933999 0.000000 
0.699446 1.897871 0.000000 
0.684888 1.856882 0.000000 
0.675900 1.810677 0.000000 
0.669871 1.761117 0.000000 
0.664455 1.713260 0.000000 
0.668163 1.666841 0.000000 
0.672091 1.617007 0.000000 
0.674558 1.568984 0.000000 
0.673045 1.518905 0.000000 
0.386491 1.998090 0.000000 
0.664855 1.460166 0.000000 
0.652298 1.402088 0.000000 
0.638456 1.348438 0.000000 
0.623121 1.298928 0.000000 
0.616008 1.255901 0.000000 
0.600787 1.220959 0.000000 
0.571289 1.191510 0.000000 
0.539016 1.160349 0.000000 
0.513857 1.131449 0.000000 
0.493343 1.105214 0.000000 
0.469109 1.087402 0.000000 
0.444920 1.070957 0.000000 
0.415324 1.049992 0.000000 
0.383540 1.025239 0.000000 
0.356179 0.995907 0.000000 
0.343879 0.957007 0.000000 
0.337476 0.911487 0.000000 
0.332404 0.866201 0.000000 
0.328512 0.826511 0.000000 
0.319594 0.790431 0.000000 
0.304149 0.757020 0.000000 
0.290502 0.716629 0.000000 
0.275896 0.668767 0.000000 
0.261905 0.626798 0.000000 
0.250150 0.593203 0.000000 
0.250896 0.555398 0.000000 
0.259587 0.512794 0.000000 
0.284617 0.470021 0.000000 
0.315237 0.440360 0.000000 
0.340022 0.420923 0.000000 
0.354380 0.395074 0.000000 
0.368685 0.367932 0.000000 
0.385568 0.341535 0.000000 
0.415372 0.316739 0.000000 
0.447119 0.285026 0.000000 
0.477633 0.257109 0.000000 
0.503078 0.229173 0.000000 
0.518876 0.191119 0.000000 
0.527127 0.155150 0.000000 
0.534187 0.110605 0.000000 
0.543185 0.049825 0.000000 
0.322519 1.987034 0.000000 
0.263849 1.973917 0.000000 
0.208223 1.968498 0.000000 
0.150441 1.964669 0.000000 
-0.687392 -0.514801 0.000000 
-3.327058 2.012272 0.000000 
-3.276080 1.965850 0.000000 
-3.224941 1.932264 0.000000 
-3.181728 1.903105 0.000000 
-3.135074 1.866175 0.000000 
-3.078123 1.841882 0.000000 
-1.944260 -0.278154 0.000000 
0.083204 1.969825 0.000000 
0.005786 1.964472 0.000000 
-0.071812 1.973711 0.000000 
-0.135705 2.003252 0.000000 
-0.182391 2.044858 0.000000 
-1.999041 -0.207186 0.000000 
-1.843230 -0.481695 0.000000 
-0.491126 -0.070896 0.000000 
-0.512312 0.002347 0.000000 
-0.526535 0.065179 0.000000 
-0.527935 0.127301 0.000000 
-0.524207 0.194471 0.000000 
-0.505864 0.251603 0.000000 
-0.468875 0.300815 0.000000 
-0.410369 0.330060 0.000000 
-0.354013 0.351177 0.000000 
-0.301050 0.361123 0.000000 
-0.255730 0.361895 0.000000 
-0.695595 -0.436506 0.000000 
-0.726457 -0.359624 0.000000 
-0.747352 -0.290169 0.000000 
-3.396487 1.955136 0.000000 
-3.344056 1.875749 0.000000 
-3.294256 1.832348 0.000000 
-3.248246 1.794023 0.000000 
-3.196818 1.754670 0.000000 
-3.159669 1.703360 0.000000 
-3.113281 1.656655 0.000000 
-3.056061 1.637092 0.000000 
-2.996684 1.614467 0.000000 
-2.933161 1.584851 0.000000 
-2.879064 1.548708 0.000000 
-2.813006 1.523922 0.000000 
-2.751664 1.500872 0.000000 
-2.686782 1.471549 0.000000 
-1.922020 -0.478888 0.000000 
-1.999705 -0.480387 0.000000 
-2.060018 -0.458783 0.000000 
-2.032615 -0.123795 0.000000 
-2.048550 -0.038073 0.000000 
-2.029059 0.027820 0.000000 
-2.105228 -0.401724 0.000000 
-2.154373 -0.334130 0.000000 
-2.203584 -0.279506 0.000000 
-2.237020 -0.218071 0.000000 
-2.250593 -0.152778 0.000000 
-2.270119 -0.080994 0.000000 
-2.297898 -0.010684 0.000000 
-2.327118 0.050896 0.000000 
-2.346747 0.104866 0.000000 
-2.362840 0.157975 0.000000 
-2.374561 0.209020 0.000000 
-2.373128 0.260996 0.000000 
-2.334174 0.327586 0.000000 
-2.331842 0.368204 0.000000 
-2.284565 0.376963 0.000000 
-0.236368 2.094393 0.000000 
-0.299146 2.138220 0.000000 
-0.346614 2.158145 0.000000 
-0.382877 2.121642 0.000000 
-0.412447 2.092592 0.000000 
-0.433989 2.052305 0.000000 
-0.446472 2.009338 0.000000 
-0.451628 1.970020 0.000000 
-0.451047 1.931558 0.000000 
-0.449242 1.895554 0.000000 
-0.453345 1.863665 0.000000 
-0.460251 1.835971 0.000000 
-0.470304 1.807186 0.000000 
-0.475290 1.777696 0.000000 
-0.478341 1.747911 0.000000 
-0.479442 1.711175 0.000000 
-2.609147 1.457760 0.000000 
-2.517189 1.452262 0.000000 
-2.434013 1.452598 0.000000 
-2.352624 1.442567 0.000000 
-2.274410 1.423196 0.000000 
-2.204499 1.388547 0.000000 
-2.180326 1.319664 0.000000 
-2.178559 1.231128 0.000000 
-2.168273 1.141099 0.000000 
-2.159086 1.043035 0.000000 
-2.144575 0.953876 0.000000 
-2.163040 0.878659 0.000000 
-2.183612 0.804568 0.000000 
-2.172907 0.740010 0.000000 
-2.161614 0.677255 0.000000 
-2.169833 0.617143 0.000000 
-2.188987 0.555390 0.000000 
-2.218663 0.504144 0.000000 
-2.229021 0.448271 0.000000 
-2.997130 1.825085 0.000000 
-3.021908 1.726947 0.000000 
-2.902046 1.793578 0.000000 
-0.770600 -0.207575 0.000000 
-0.790096 -0.115917 0.000000 
-0.811857 -0.035209 0.000000 
-0.835807 0.043355 0.000000 
-0.859157 0.113483 0.000000 
-0.881226 0.173534 0.000000 
-0.903169 0.232885 0.000000 
-0.928196 0.296929 0.000000 
-2.785442 1.761025 0.000000 
-2.944278 1.700283 0.000000 
-2.855014 1.663137 0.000000 
-2.796189 1.603057 0.000000 
-2.651235 1.746279 0.000000 
-2.517962 1.735932 0.000000 
-2.394240 1.726769 0.000000 
-2.275192 1.718772 0.000000 
-2.180847 1.694211 0.000000 
-2.099904 1.667732 0.000000 
-2.018420 1.636492 0.000000 
-1.945469 1.640790 0.000000 
-1.885190 1.674129 0.000000 
-1.829736 1.694698 0.000000 
-1.760875 1.719930 0.000000 
-1.680504 1.748354 0.000000 
-1.617798 1.766671 0.000000 
-1.570169 1.781195 0.000000 
-1.527149 1.795385 0.000000 
-1.482581 1.807513 0.000000 
-1.433927 1.814054 0.000000 
-1.386311 1.821969 0.000000 
-1.337319 1.830699 0.000000 
-1.286363 1.837779 0.000000 
-1.235962 1.838497 0.000000 
-1.188452 1.843309 0.000000 
-1.140860 1.852761 0.000000 
-1.091558 1.852070 0.000000 
-1.038962 1.841051 0.000000 
-0.982519 1.822053 0.000000 
-0.922315 1.805311 0.000000 
-0.869867 1.794986 0.000000 
-0.827747 1.788496 0.000000 
-0.785371 1.783585 0.000000 
-0.748025 1.773848 0.000000 
-0.712781 1.763581 0.000000 
-0.681690 1.749649 0.000000 
-0.657198 1.738514 0.000000 
-0.633895 1.731851 0.000000 
-0.612002 1.727396 0.000000 
-0.594184 1.720183 0.000000 
-0.577381 1.710733 0.000000 
-0.560109 1.695450 0.000000 
-0.540091 1.662995 0.000000 
-1.243914 0.024149 0.000000 
-1.232782 0.037866 0.000000 
-1.257376 0.009796 0.000000 
-1.224378 0.056566 0.000000 
-1.271472 -0.009550 0.000000 
-1.215702 0.078563 0.000000 
-1.204660 0.104619 0.000000 
-1.290143 -0.037292 0.000000 
-1.314447 -0.082331 0.000000 
-1.190204 0.134926 0.000000 
-1.318041 -0.135686 0.000000 
-1.171655 0.169082 0.000000 
-1.149359 0.205396 0.000000 
-1.123094 0.243645 0.000000 
-1.284246 -0.185665 0.000000 
-1.239750 -0.236392 0.000000 
-1.083297 0.287636 0.000000 
-1.028190 0.319308 0.000000 
-1.181630 -0.278748 0.000000 
-1.112789 -0.310175 0.000000 
-1.040643 -0.322346 0.000000 
-0.978118 -0.325432 0.000000 
-0.927392 -0.338458 0.000000 
-0.889718 -0.377593 0.000000 
-0.873564 -0.434143 0.000000 
-0.920771 -0.466337 0.000000 
-0.935346 -0.399068 0.000000 
-0.991249 -0.475913 0.000000 
-1.088918 -0.473184 0.000000 
-1.067426 -0.393533 0.000000 
-1.189474 -0.465621 0.000000 
-1.147229 -0.380865 0.000000 
-1.266509 -0.442331 0.000000 
-1.219913 -0.354688 0.000000 
-1.335307 -0.406504 0.000000 
-1.284456 -0.316689 0.000000 
-1.402357 -0.362601 0.000000 
-1.341444 -0.268888 0.000000 
-1.466758 -0.309925 0.000000 
-1.539152 -0.249126 0.000000 
-1.393011 -0.210957 0.000000 
-1.612839 -0.178855 0.000000 
-1.665320 -0.121276 0.000000 
-1.691220 -0.056450 0.000000 
-1.704696 0.029044 0.000000 
-1.850073 0.195913 0.000000 
-1.911042 0.140088 0.000000 
-1.969645 0.083252 0.000000 
-1.726970 0.135455 0.000000 
-0.222881 0.343285 0.000000 
-0.195707 0.315701 0.000000 
-0.164205 0.278754 0.000000 
-0.127520 0.246056 0.000000 
-0.095686 0.216565 0.000000 
-0.059027 0.188086 0.000000 
-0.018954 0.158103 0.000000 
0.030296 0.126832 0.000000 
0.086536 0.106306 0.000000 
0.141893 0.087575 0.000000 
0.202102 0.058295 0.000000 
0.263408 0.018378 0.000000 
0.311661 -0.031608 0.000000 
0.333954 -0.091231 0.000000 
0.338621 -0.151681 0.000000 
0.341530 -0.205620 0.000000 
0.353165 -0.255808 0.000000 
0.365710 -0.314231 0.000000 
0.363543 -0.383760 0.000000 
[...]
POINT_DATA 899 
VECTORS X_GC float 
-3.648847 2.283304 0.000000 
-3.619410 2.242752 0.000000 
-3.578536 2.207158 0.000000 
-3.540028 2.171507 0.000000 
-3.511690 2.139311 0.000000 
-3.481362 2.109453 0.000000 
-3.451569 2.068780 0.000000 
0.772356 2.185818 0.000000 
0.774615 2.159697 0.000000 
0.769962 2.130943 0.000000 
-3.399514 2.038504 0.000000 
0.413960 -0.606338 0.000000 
0.455573 -0.602036 0.000000 
-1.762619 -0.506234 0.000000 
-1.783389 -0.470838 0.000000 
-1.714437 -0.442048 0.000000 
0.732567 2.180143 0.000000 
0.698438 2.166307 0.000000 
0.491831 -0.587833 0.000000 
0.519501 -0.557428 0.000000 
0.530556 -0.516981 0.000000 
0.532354 -0.471177 0.000000 
0.531774 -0.420670 0.000000 
-3.460923 1.976771 0.000000 
0.663989 2.144360 0.000000 
0.631675 2.116966 0.000000 
0.601833 2.092910 0.000000 
0.569607 2.069653 0.000000 
0.534059 2.047575 0.000000 
0.492599 2.026435 0.000000 
0.444403 2.007770 0.000000 
0.762807 2.089969 0.000000 
-1.708694 -0.407666 0.000000 
-1.726386 -0.367402 0.000000 
-1.761257 -0.343382 0.000000 
-1.812853 -0.335533 0.000000 
-0.690422 -0.587869 0.000000 
-0.624256 -0.605796 0.000000 
-0.561079 -0.613978 0.000000 
-0.500739 -0.615434 0.000000 
-0.445387 -0.615496 0.000000 
0.532260 -0.361587 0.000000 
0.536647 -0.292253 0.000000 
-1.881389 -0.323033 0.000000 
-0.389303 -0.613221 0.000000 
-0.340338 -0.597936 0.000000 
-0.344339 -0.543801 0.000000 
-0.358558 -0.491261 0.000000 
-0.381750 -0.450350 0.000000 
-0.406193 -0.416175 0.000000 
-0.417316 -0.384677 0.000000 
-0.428320 -0.350420 0.000000 
-0.436973 -0.306156 0.000000 
-0.444212 -0.250613 0.000000 
-0.452662 -0.191755 0.000000 
-0.468602 -0.134856 0.000000 
0.553166 -0.227538 0.000000 
0.573193 -0.169867 0.000000 
0.574450 -0.118127 0.000000 
0.561087 -0.067807 0.000000 
0.550432 -0.012484 0.000000 
0.748903 2.036651 0.000000 
0.730940 1.980158 0.000000 
0.715868 1.933999 0.000000 
0.699446 1.897871 0.000000 
0.684888 1.856882 0.000000 
0.675900 1.810677 0.000000 
0.669871 1.761117 0.000000 
0.664455 1.713260 0.000000 
0.668163 1.666841 0.000000 
0.672091 1.617007 0.000000 
0.674558 1.568984 0.000000 
0.673045 1.518905 0.000000 
0.386491 1.998090 0.000000 
0.664855 1.460166 0.000000 
0.652298 1.402088 0.000000 
0.638456 1.348438 0.000000 
0.623121 1.298928 0.000000 
0.616008 1.255901 0.000000 
0.600787 1.220959 0.000000 
0.571289 1.191510 0.000000 
0.539016 1.160349 0.000000 
0.513857 1.131449 0.000000 
0.493343 1.105214 0.000000 
0.469109 1.087402 0.000000 
0.444920 1.070957 0.000000 
0.415324 1.049992 0.000000 
0.383540 1.025239 0.000000 
0.356179 0.995907 0.000000 
0.343879 0.957007 0.000000 
0.337476 0.911487 0.000000 
0.332404 0.866201 0.000000 
0.328512 0.826511 0.000000 
0.319594 0.790431 0.000000 
0.304149 0.757020 0.000000 
0.290502 0.716629 0.000000 
0.275896 0.668767 0.000000 
0.261905 0.626798 0.000000 
0.250150 0.593203 0.000000 
0.250896 0.555398 0.000000 
0.259587 0.512794 0.000000 
0.284617 0.470021 0.000000 
0.315237 0.440360 0.000000 
0.340022 0.420923 0.000000 
0.354380 0.395074 0.000000 
0.368685 0.367932 0.000000 
0.385568 0.341535 0.000000 
0.415372 0.316739 0.000000 
0.447119 0.285026 0.000000 
0.477633 0.257109 0.000000 
0.503078 0.229173 0.000000 
0.518876 0.191119 0.000000 
0.527127 0.155150 0.000000 
0.534187 0.110605 0.000000 
0.543185 0.049825 0.000000 
0.322519 1.987034 0.000000 
0.263849 1.973917 0.000000 
0.208223 1.968498 0.000000 
0.150441 1.964669 0.000000 
-0.687392 -0.514801 0.000000 
-3.327058 2.012272 0.000000 
-3.276080 1.965850 0.000000 
-3.224941 1.932264 0.000000 
-3.181728 1.903105 0.000000 
-3.135074 1.866175 0.000000 
-3.078123 1.841882 0.000000 
-1.944260 -0.278154 0.000000 
0.083204 1.969825 0.000000 
0.005786 1.964472 0.000000 
-0.071812 1.973711 0.000000 
-0.135705 2.003252 0.000000 
-0.182391 2.044858 0.000000 
-1.999041 -0.207186 0.000000 
-1.843230 -0.481695 0.000000 
-0.491126 -0.070896 0.000000 
-0.512312 0.002347 0.000000 
-0.526535 0.065179 0.000000 
-0.527935 0.127301 0.000000 
-0.524207 0.194471 0.000000 
-0.505864 0.251603 0.000000 
-0.468875 0.300815 0.000000 
-0.410369 0.330060 0.000000 
-0.354013 0.351177 0.000000 
-0.301050 0.361123 0.000000 
-0.255730 0.361895 0.000000 
-0.695595 -0.436506 0.000000 
-0.726457 -0.359624 0.000000 
-0.747352 -0.290169 0.000000 
-3.396487 1.955136 0.000000 
-3.344056 1.875749 0.000000 
-3.294256 1.832348 0.000000 
-3.248246 1.794023 0.000000 
-3.196818 1.754670 0.000000 
-3.159669 1.703360 0.000000 
-3.113281 1.656655 0.000000 
-3.056061 1.637092 0.000000 
-2.996684 1.614467 0.000000 
-2.933161 1.584851 0.000000 
-2.879064 1.548708 0.000000 
-2.813006 1.523922 0.000000 
-2.751664 1.500872 0.000000 
-2.686782 1.471549 0.000000 
-1.922020 -0.478888 0.000000 
-1.999705 -0.480387 0.000000 
-2.060018 -0.458783 0.000000 
-2.032615 -0.123795 0.000000 
-2.048550 -0.038073 0.000000 
-2.029059 0.027820 0.000000 
-2.105228 -0.401724 0.000000 
-2.154373 -0.334130 0.000000 
-2.203584 -0.279506 0.000000 
-2.237020 -0.218071 0.000000 
-2.250593 -0.152778 0.000000 
-2.270119 -0.080994 0.000000 
-2.297898 -0.010684 0.000000 
-2.327118 0.050896 0.000000 
-2.346747 0.104866 0.000000 
-2.362840 0.157975 0.000000 
-2.374561 0.209020 0.000000 
-2.373128 0.260996 0.000000 
-2.334174 0.327586 0.000000 
-2.331842 0.368204 0.000000 
-2.284565 0.376963 0.000000 
-0.236368 2.094393 0.000000 
-0.299146 2.138220 0.000000 
-0.346614 2.158145 0.000000 
-0.382877 2.121642 0.000000 
-0.412447 2.092592 0.000000 
-0.433989 2.052305 0.000000 
-0.446472 2.009338 0.000000 
-0.451628 1.970020 0.000000 
-0.451047 1.931558 0.000000 
-0.449242 1.895554 0.000000 
-0.453345 1.863665 0.000000 
-0.460251 1.835971 0.000000 
-0.470304 1.807186 0.000000 
-0.475290 1.777696 0.000000 
-0.478341 1.747911 0.000000 
-0.479442 1.711175 0.000000 
-2.609147 1.457760 0.000000 
-2.517189 1.452262 0.000000 
-2.434013 1.452598 0.000000 
-2.352624 1.442567 0.000000 
-2.274410 1.423196 0.000000 
-2.204499 1.388547 0.000000 
-2.180326 1.319664 0.000000 
-2.178559 1.231128 0.000000 
-2.168273 1.141099 0.000000 
-2.159086 1.043035 0.000000 
-2.144575 0.953876 0.000000 
-2.163040 0.878659 0.000000 
-2.183612 0.804568 0.000000 
-2.172907 0.740010 0.000000 
-2.161614 0.677255 0.000000 
-2.169833 0.617143 0.000000 
-2.188987 0.555390 0.000000 
-2.218663 0.504144 0.000000 
-2.229021 0.448271 0.000000 
-2.997130 1.825085 0.000000 
-3.021908 1.726947 0.000000 
-2.902046 1.793578 0.000000 
-0.770600 -0.207575 0.000000 
-0.790096 -0.115917 0.000000 
-0.811857 -0.035209 0.000000 
-0.835807 0.043355 0.000000 
-0.859157 0.113483 0.000000 
-0.881226 0.173534 0.000000 
-0.903169 0.232885 0.000000 
-0.928196 0.296929 0.000000 
-2.785442 1.761025 0.000000 
-2.944278 1.700283 0.000000 
-2.855014 1.663137 0.000000 
-2.796189 1.603057 0.000000 
-2.651235 1.746279 0.000000 
-2.517962 1.735932 0.000000 
-2.394240 1.726769 0.000000 
-2.275192 1.718772 0.000000 
-2.180847 1.694211 0.000000 
-2.099904 1.667732 0.000000 
-2.018420 1.636492 0.000000 
-1.945469 1.640790 0.000000 
-1.885190 1.674129 0.000000 
-1.829736 1.694698 0.000000 
-1.760875 1.719930 0.000000 
-1.680504 1.748354 0.000000 
-1.617798 1.766671 0.000000 
-1.570169 1.781195 0.000000 
-1.527149 1.795385 0.000000 
-1.482581 1.807513 0.000000 
-1.433927 1.814054 0.000000 
-1.386311 1.821969 0.000000 
-1.337319 1.830699 0.000000 
-1.286363 1.837779 0.000000 
-1.235962 1.838497 0.000000 
-1.188452 1.843309 0.000000 
-1.140860 1.852761 0.000000 
-1.091558 1.852070 0.000000 
-1.038962 1.841051 0.000000 
-0.982519 1.822053 0.000000 
-0.922315 1.805311 0.000000 
-0.869867 1.794986 0.000000 
-0.827747 1.788496 0.000000 
-0.785371 1.783585 0.000000 
-0.748025 1.773848 0.000000 
-0.712781 1.763581 0.000000 
-0.681690 1.749649 0.000000 
-0.657198 1.738514 0.000000 
-0.633895 1.731851 0.000000 
-0.612002 1.727396 0.000000 
-0.594184 1.720183 0.000000 
-0.577381 1.710733 0.000000 
-0.560109 1.695450 0.000000 
-0.540091 1.662995 0.000000 
-1.243914 0.024149 0.000000 
-1.232782 0.037866 0.000000 
-1.257376 0.009796 0.000000 
-1.224378 0.056566 0.000000 
-1.271472 -0.009550 0.000000 
-1.215702 0.078563 0.000000 
-1.204660 0.104619 0.000000 
-1.290143 -0.037292 0.000000 
-1.314447 -0.082331 0.000000 
-1.190204 0.134926 0.000000 
-1.318041 -0.135686 0.000000 
-1.171655 0.169082 0.000000 
-1.149359 0.205396 0.000000 
-1.123094 0.243645 0.000000 
-1.284246 -0.185665 0.000000 
-1.239750 -0.236392 0.000000 
-1.083297 0.287636 0.000000 
-1.028190 0.319308 0.000000 
-1.181630 -0.278748 0.000000 
-1.112789 -0.310175 0.000000 
-1.040643 -0.322346 0.000000 
-0.978118 -0.325432 0.000000 
-0.927392 -0.338458 0.000000 
-0.889718 -0.377593 0.000000 
-0.873564 -0.434143 0.000000 
-0.920771 -0.466337 0.000000 
-0.935346 -0.399068 0.000000 
-0.991249 -0.475913 0.000000 
-1.088918 -0.473184 0.000000 
-1.067426 -0.393533 0.000000 
-1.189474 -0.465621 0.000000 
-1.147229 -0.380865 0.000000 
-1.266509 -0.442331 0.000000 
-1.219913 -0.354688 0.000000 
-1.335307 -0.406504 0.000000 
-1.284456 -0.316689 0.000000 
-1.402357 -0.362601 0.000000 
-1.341444 -0.268888 0.000000 
-1.466758 -0.309925 0.000000 
-1.539152 -0.249126 0.000000 
-1.393011 -0.210957 0.000000 
-1.612839 -0.178855 0.000000 
-1.665320 -0.121276 0.000000 
-1.691220 -0.056450 0.000000 
-1.704696 0.029044 0.000000 
-1.850073 0.195913 0.000000 
-1.911042 0.140088 0.000000 
-1.969645 0.083252 0.000000 
-1.726970 0.135455 0.000000 
-0.222881 0.343285 0.000000 
-0.195707 0.315701 0.000000 
-0.164205 0.278754 0.000000 
-0.127520 0.246056 0.000000 
-0.095686 0.216565 0.000000 
-0.059027 0.188086 0.000000 
-0.018954 0.158103 0.000000 
0.030296 0.126832 0.000000 
0.086536 0.106306 0.000000 
0.141893 0.087575 0.000000 
0.202102 0.058295 0.000000 
0.263408 0.018378 0.000000 
0.311661 -0.031608 0.000000 
0.333954 -0.091231 0.000000 
0.338621 -0.151681 0.000000 
0.341530 -0.205620 0.000000 
0.353165 -0.255808 0.000000 
0.365710 -0.314231 0.000000 
0.363543 -0.383760 0.000000 
0.357353 -0.445874 0.000000 
0.351188 -0.496617 0.000000 
0.363842 -0.543645 0.000000 
-1.737069 -0.410296 0.000000 
-0.199590 0.395902 0.000000 
-0.156305 0.365986 0.000000 
-0.462327 1.631942 0.000000 
0.741313 2.154516 0.000000 
0.482415 -0.554416 0.000000 
0.446104 -0.562312 0.000000 
0.403556 -0.567966 0.000000 
-0.104001 0.337921 0.000000 
-0.514998 1.563996 0.000000 
-0.059937 0.303516 0.000000 
0.738519 2.129251 0.000000 
0.714572 2.141551 0.000000 
-0.249752 0.422725 0.000000 
-0.036232 0.259718 0.000000 
0.000772 0.231885 0.000000 
0.035161 0.206241 0.000000 
-1.776537 -0.409738 0.000000 
-1.836238 -0.405553 0.000000 
-0.309416 0.436825 0.000000 
-0.378944 0.434561 0.000000 
-2.292732 0.314149 0.000000 
-2.315166 0.264158 0.000000 
-2.314418 0.216601 0.000000 
-2.293418 0.170215 0.000000 
-2.279687 0.120336 0.000000 
-2.253462 0.073070 0.000000 
0.075120 0.178498 0.000000 
0.131113 0.165890 0.000000 
-0.977004 0.367874 0.000000 
-0.860050 0.357708 0.000000 
-1.912142 -0.397496 0.000000 
-1.989966 -0.406277 0.000000 
-2.023752 -0.338735 0.000000 
-2.082175 -0.267474 0.000000 
0.723889 2.097738 0.000000 
0.691466 2.116581 0.000000 
0.665980 2.083934 0.000000 
0.704783 2.056666 0.000000 
0.637970 2.045876 0.000000 
0.681732 2.009457 0.000000 
0.670916 1.963282 0.000000 
0.602858 2.014208 0.000000 
0.659584 1.922858 0.000000 
0.560783 1.987837 0.000000 
0.636111 1.886784 0.000000 
0.607495 1.836993 0.000000 
0.595324 1.773512 0.000000 
0.604052 1.708839 0.000000 
0.514160 1.958434 0.000000 
0.453857 1.930989 0.000000 
0.392525 1.929010 0.000000 
0.334098 1.927482 0.000000 
0.278675 1.908728 0.000000 
0.217273 1.890653 0.000000 
0.149449 1.873297 0.000000 
0.614128 1.656564 0.000000 
0.621313 1.608984 0.000000 
0.624262 1.564104 0.000000 
-2.197766 0.019882 0.000000 
-2.158682 -0.055042 0.000000 
-2.124695 0.079212 0.000000 
-2.150589 -0.221168 0.000000 
-2.141926 -0.143622 0.000000 
-0.393439 -0.560182 0.000000 
-0.412631 -0.516139 0.000000 
-0.436983 -0.475536 0.000000 
-0.445953 -0.432116 0.000000 
-0.458251 -0.399290 0.000000 
-0.479726 -0.364524 0.000000 
-0.496934 -0.315793 0.000000 
-0.509002 -0.260709 0.000000 
-0.517157 -0.206379 0.000000 
-0.545309 -0.155103 0.000000 
-0.442273 -0.557577 0.000000 
-0.496002 -0.548060 0.000000 
-0.557668 -0.550166 0.000000 
-0.618975 -0.534686 0.000000 
-0.334659 2.096332 0.000000 
-0.367985 2.066615 0.000000 
-0.385153 2.030189 0.000000 
-0.396797 1.996322 0.000000 
-0.406285 1.960800 0.000000 
-0.402558 1.921667 0.000000 
-0.406645 1.883223 0.000000 
-0.418378 1.850809 0.000000 
-0.428059 1.821684 0.000000 
-0.435849 1.792136 0.000000 
-0.442335 1.762101 0.000000 
-0.445406 1.729036 0.000000 
-0.444483 1.683320 0.000000 
0.619822 1.518372 0.000000 
-1.077870 0.414937 0.000000 
-1.149036 0.372979 0.000000 
-1.174735 0.298136 0.000000 
-1.192231 0.246413 0.000000 
-1.210811 0.204636 0.000000 
-1.228352 0.165297 0.000000 
-1.238869 0.127317 0.000000 
-1.244643 0.095819 0.000000 
-1.248534 0.070918 0.000000 
-1.252336 0.051631 0.000000 
-1.262323 0.038379 0.000000 
-1.280319 0.027463 0.000000 
-0.451814 0.411901 0.000000 
-0.526928 0.368379 0.000000 
0.194935 0.148898 0.000000 
0.069048 1.859198 0.000000 
-0.574175 0.297695 0.000000 
-0.593607 0.216592 0.000000 
-1.764101 0.256277 0.000000 
-2.210991 0.375133 0.000000 
-0.825996 0.272431 0.000000 
-0.799223 0.201351 0.000000 
-0.760911 0.134917 0.000000 
0.605964 1.467421 0.000000 
0.587834 1.410061 0.000000 
0.576354 1.350212 0.000000 
0.574971 1.295204 0.000000 
0.580375 1.252179 0.000000 
0.545179 1.229795 0.000000 
0.509957 1.197533 0.000000 
0.484198 1.161130 0.000000 
0.468721 1.129976 0.000000 
0.449386 1.111445 0.000000 
0.422962 1.098780 0.000000 
0.391379 1.079629 0.000000 
0.357154 1.055565 0.000000 
0.323730 1.027193 0.000000 
-0.582151 -0.094236 0.000000 
0.265957 0.122468 0.000000 
0.333763 0.076339 0.000000 
0.378371 0.009323 0.000000 
0.400918 -0.065072 0.000000 
0.401084 -0.128061 0.000000 
0.404345 -0.182162 0.000000 
0.432648 -0.233244 0.000000 
0.450030 -0.297685 0.000000 
0.529803 -0.144531 0.000000 
0.491947 -0.192669 0.000000 
0.453243 -0.142785 0.000000 
0.449550 -0.372009 0.000000 
0.498420 -0.098658 0.000000 
0.474171 -0.038717 0.000000 
0.457863 0.035857 0.000000 
0.462195 -0.430663 0.000000 
0.478704 -0.476999 0.000000 
0.483460 -0.517965 0.000000 
0.412910 -0.456305 0.000000 
0.398390 -0.495018 0.000000 
0.404290 -0.529305 0.000000 
0.442452 -0.524747 0.000000 
0.436659 -0.489583 0.000000 
-0.727378 0.060784 0.000000 
-0.616071 0.142803 0.000000 
-0.623548 0.068522 0.000000 
-0.605779 -0.012486 0.000000 
-0.706340 -0.024934 0.000000 
-0.681483 -0.111196 0.000000 
-0.032304 1.853637 0.000000 
-0.128010 1.889786 0.000000 
-0.195732 1.956910 0.000000 
-0.243911 2.010824 0.000000 
-0.287859 2.058228 0.000000 
-0.335518 2.030532 0.000000 
-0.667608 -0.196577 0.000000 
-0.584906 -0.203344 0.000000 
-0.658169 -0.276585 0.000000 
-0.578442 -0.268715 0.000000 
-0.639050 -0.348028 0.000000 
-0.607982 -0.423545 0.000000 
-0.562541 -0.331414 0.000000 
-0.536184 -0.392438 0.000000 
-0.495978 -0.430399 0.000000 
-0.500680 -0.482794 0.000000 
-0.573051 -0.487247 0.000000 
-2.690892 1.626931 0.000000 
-2.684799 1.540918 0.000000 
-2.602920 1.539656 0.000000 
-2.574381 1.624649 0.000000 
-2.518122 1.559524 0.000000 
-2.424460 1.583422 0.000000 
-2.320006 1.574490 0.000000 
-2.229986 1.550873 0.000000 
-2.146342 1.509632 0.000000 
-1.455055 -0.151976 0.000000 
-1.387692 -0.071652 0.000000 
-1.339496 -0.018324 0.000000 
-1.304977 0.010236 0.000000 
-1.531301 -0.086483 0.000000 
-1.604385 -0.042371 0.000000 
-1.592423 0.058310 0.000000 
-1.608296 0.182273 0.000000 
-1.827918 0.380718 0.000000 
0.477873 0.149522 0.000000 
0.477147 0.184420 0.000000 
0.465631 0.218660 0.000000 
-0.587742 1.662870 0.000000 
-0.593403 1.686973 0.000000 
-0.604579 1.699629 0.000000 
-0.619289 1.705315 0.000000 
-0.639577 1.703142 0.000000 
-0.665912 1.704758 0.000000 
-0.697937 1.711745 0.000000 
-0.595692 1.609381 0.000000 
-0.726123 1.726556 0.000000 
-0.757398 1.737127 0.000000 
-0.794522 1.734551 0.000000 
-0.841416 1.731974 0.000000 
-0.894922 1.733334 0.000000 
-0.956071 1.741750 0.000000 
-1.020951 1.760672 0.000000 
-1.077937 1.788306 0.000000 
-1.120258 1.817035 0.000000 
-1.171769 1.792774 0.000000 
0.332207 0.346165 0.000000 
0.333662 0.304430 0.000000 
0.321472 0.374782 0.000000 
0.302407 0.401595 0.000000 
0.214022 0.416257 0.000000 
0.194081 0.477281 0.000000 
0.186716 0.532794 0.000000 
0.189303 0.585566 0.000000 
0.360023 0.264748 0.000000 
0.405131 0.239615 0.000000 
0.201671 0.634812 0.000000 
0.218038 0.685073 0.000000 
0.236652 0.734007 0.000000 
0.256885 0.775941 0.000000 
0.278373 0.804435 0.000000 
0.284019 0.837833 0.000000 
0.276718 0.884580 0.000000 
0.278735 0.941393 0.000000 
0.296322 0.991660 0.000000 
-1.507867 1.744532 0.000000 
-1.548116 1.719890 0.000000 
-1.598023 1.692510 0.000000 
-1.467251 1.759306 0.000000 
-1.422160 1.766589 0.000000 
-1.373311 1.773305 0.000000 
-1.322903 1.781082 0.000000 
-1.275577 1.790328 0.000000 
-1.225048 1.788929 0.000000 
-1.662214 1.668841 0.000000 
-1.732600 1.648901 0.000000 
-1.794687 1.634526 0.000000 
-1.841773 1.605338 0.000000 
-2.078405 0.672611 0.000000 
-2.079214 0.751200 0.000000 
-2.097651 0.595011 0.000000 
-2.129318 0.523272 0.000000 
-2.096743 0.831763 0.000000 
-2.169699 0.467929 0.000000 
-1.991686 0.394929 0.000000 
-1.642187 0.320485 0.000000 
-1.989898 0.227704 0.000000 
-2.064526 0.155891 0.000000 
-1.914688 0.301238 0.000000 
-2.037969 1.084315 0.000000 
-2.021377 0.968630 0.000000 
-2.055796 1.213477 0.000000 
-2.102728 1.316130 0.000000 
-2.047875 1.458432 0.000000 
0.428030 0.205163 0.000000 
0.375625 0.183927 0.000000 
0.313454 0.197028 0.000000 
0.290352 0.343062 0.000000 
0.238487 1.053980 0.000000 
0.440631 0.167055 0.000000 
0.396678 0.127278 0.000000 
0.460488 0.101358 0.000000 
0.523747 1.277470 0.000000 
-2.262588 0.240725 0.000000 
-2.220468 0.296752 0.000000 
-2.218579 0.187213 0.000000 
-2.146376 0.239064 0.000000 
-2.206503 0.122143 0.000000 
0.473879 1.238858 0.000000 
0.446488 1.186527 0.000000 
0.440978 1.142508 0.000000 
0.409581 1.134652 0.000000 
0.629179 1.963548 0.000000 
0.593839 1.931075 0.000000 
0.550362 1.886871 0.000000 
0.483841 1.846448 0.000000 
0.202470 0.987616 0.000000 
0.241245 0.839840 0.000000 
0.205152 0.815040 0.000000 
0.175878 0.766899 0.000000 
0.153326 0.708393 0.000000 
0.132079 0.647943 0.000000 
0.113278 0.583487 0.000000 
0.106000 0.515164 0.000000 
0.109640 0.445967 0.000000 
0.121648 0.375289 0.000000 
0.032483 0.285675 0.000000 
0.246820 0.368353 0.000000 
0.099619 0.234040 0.000000 
0.373127 1.119770 0.000000 
-0.307911 1.982910 0.000000 
-0.360136 1.964441 0.000000 
-0.343252 1.910095 0.000000 
-0.270247 1.918239 0.000000 
0.168337 0.230559 0.000000 
0.242346 0.220221 0.000000 
0.270369 0.289258 0.000000 
0.505525 1.345231 0.000000 
-0.689828 0.172486 0.000000 
-0.729540 0.229890 0.000000 
-0.746154 0.304363 0.000000 
-0.657668 0.320927 0.000000 
-0.661195 0.236640 0.000000 
-0.924642 0.473603 0.000000 
-1.137284 1.736966 0.000000 
-1.072920 1.692372 0.000000 
-1.248127 1.749263 0.000000 
-1.304069 1.732941 0.000000 
-1.360197 1.725281 0.000000 
-1.411221 1.721141 0.000000 
-1.453165 1.717911 0.000000 
-1.486003 1.700449 0.000000 
-1.510814 1.656980 0.000000 
-1.558800 1.612311 0.000000 
-0.995058 1.665619 0.000000 
-0.919611 1.655143 0.000000 
-0.852227 1.662075 0.000000 
-0.796966 1.678593 0.000000 
-0.752732 1.697762 0.000000 
-1.635591 1.584978 0.000000 
-1.992480 0.859680 0.000000 
-1.965104 0.749900 0.000000 
-1.974377 0.646568 0.000000 
-2.014368 0.552946 0.000000 
-2.065453 0.469760 0.000000 
-2.071492 0.316693 0.000000 
-2.131272 0.400229 0.000000 
-1.712039 1.571655 0.000000 
-1.781280 1.571606 0.000000 
-1.884796 1.541549 0.000000 
0.516332 1.761211 0.000000 
0.538779 1.690083 0.000000 
0.517174 1.419617 0.000000 
0.552532 1.481553 0.000000 
0.576896 1.523480 0.000000 
0.583356 1.560506 0.000000 
0.576083 1.597510 0.000000 