# vtk DataFile Version 3.0 
vtk output 
ASCII 
DATASET UNSTRUCTURED_GRID 
POINTS 899 float 
-3.648847 2.322299 0.000000 
-3.619410 2.281747 0.000000 
-3.578536 2.246152 0.000000 
-3.540028 2.210501 0.000000 
-3.511690 2.178306 0.000000 
-3.481362 2.148448 0.000000 
-3.451569 2.107774 0.000000 
0.772356 2.224813 0.000000 
0.774615 2.198692 0.000000 
0.769962 2.169938 0.000000 
-3.399514 2.077498 0.000000 
0.413960 -0.567344 0.000000 
0.455573 -0.563041 0.000000 
-1.762619 -0.467239 0.000000 
-1.783389 -0.431843 0.000000 
-1.714437 -0.403054 0.000000 
0.732567 2.219137 0.000000 
0.698438 2.205301 0.000000 
0.491831 -0.548838 0.000000 
0.519501 -0.518433 0.000000 
0.530556 -0.477987 0.000000 
0.532354 -0.432182 0.000000 
0.531774 -0.381676 0.000000 
-3.460923 2.015766 0.000000 
0.663989 2.183355 0.000000 
0.631675 2.155960 0.000000 
0.601833 2.131905 0.000000 
0.569607 2.108647 0.000000 
0.534059 2.086570 0.000000 
0.492599 2.065430 0.000000 
0.444403 2.046765 0.000000 
0.762807 2.128963 0.000000 
-1.708694 -0.368671 0.000000 
-1.726386 -0.328408 0.000000 
-1.761257 -0.304387 0.000000 
-1.812853 -0.296539 0.000000 
-0.690422 -0.548874 0.000000 
-0.624256 -0.566802 0.000000 
-0.561079 -0.574983 0.000000 
-0.500739 -0.576439 0.000000 
-0.445387 -0.576501 0.000000 
0.532260 -0.322592 0.000000 
0.536647 -0.253259 0.000000 
-1.881389 -0.284038 0.000000 
-0.389303 -0.574227 0.000000 
-0.340338 -0.558941 0.000000 
-0.344339 -0.504806 0.000000 
-0.358558 -0.452267 0.000000 
-0.381750 -0.411355 0.000000 
-0.406193 -0.377180 0.000000 
-0.417316 -0.345683 0.000000 
-0.428320 -0.311426 0.000000 
-0.436973 -0.267161 0.000000 
-0.444212 -0.211618 0.000000 
-0.452662 -0.152760 0.000000 
-0.468602 -0.095861 0.000000 
0.553166 -0.188544 0.000000 
0.573193 -0.130873 0.000000 
0.574450 -0.079132 0.000000 
0.561087 -0.028812 0.000000 
0.550432 0.026511 0.000000 
0.748903 2.075645 0.000000 
0.730940 2.019153 0.000000 
0.715868 1.972994 0.000000 
0.699446 1.936866 0.000000 
0.684888 1.895876 0.000000 
0.675900 1.849672 0.000000 
0.669871 1.800112 0.000000 
0.664455 1.752255 0.000000 
0.668163 1.705836 0.000000 
0.672091 1.656002 0.000000 
0.674558 1.607979 0.000000 
0.673045 1.557899 0.000000 
0.386491 2.037085 0.000000 
0.664855 1.499160 0.000000 
0.652298 1.441083 0.000000 
0.638456 1.387433 0.000000 
0.623121 1.337923 0.000000 
0.616008 1.294896 0.000000 
0.600787 1.259953 0.000000 
0.571289 1.230505 0.000000 
0.539016 1.199343 0.000000 
0.513857 1.170444 0.000000 
0.493343 1.144209 0.000000 
0.469109 1.126397 0.000000 
0.444920 1.109952 0.000000 
0.415324 1.088986 0.000000 
0.383540 1.064234 0.000000 
0.356179 1.034902 0.000000 
0.343879 0.996002 0.000000 
0.337476 0.950482 0.000000 
0.332404 0.905195 0.000000 
0.328512 0.865505 0.000000 
0.319594 0.829426 0.000000 
0.304149 0.796015 0.000000 
0.290502 0.755624 0.000000 
0.275896 0.707762 0.000000 
0.261905 0.665792 0.000000 
0.250150 0.632197 0.000000 
0.250896 0.594392 0.000000 
0.259587 0.551789 0.000000 
0.284617 0.509016 0.000000 
0.315237 0.479355 0.000000 
0.340022 0.459918 0.000000 
0.354380 0.434069 0.000000 
0.368685 0.406926 0.000000 
0.385568 0.380530 0.000000 
0.415372 0.355733 0.000000 
0.447119 0.324021 0.000000 
0.477633 0.296104 0.000000 
0.503078 0.268168 0.000000 
0.518876 0.230114 0.000000 
0.527127 0.194145 0.000000 
0.534187 0.149600 0.000000 
0.543185 0.088820 0.000000 
0.322519 2.026029 0.000000 
0.263849 2.012912 0.000000 
0.208223 2.007492 0.000000 
0.150441 2.003664 0.000000 
-0.687392 -0.475807 0.000000 
-3.327058 2.051266 0.000000 
-3.276080 2.004845 0.000000 
-3.224941 1.971258 0.000000 
-3.181728 1.942100 0.000000 
-3.135074 1.905170 0.000000 
-3.078123 1.880877 0.000000 
-1.944260 -0.239160 0.000000 
0.083204 2.008820 0.000000 
0.005786 2.003467 0.000000 
-0.071812 2.012705 0.000000 
-0.135705 2.042247 0.000000 
-0.182391 2.083853 0.000000 
-1.999041 -0.168191 0.000000 
-1.843230 -0.442700 0.000000 
-0.491126 -0.031901 0.000000 
-0.512312 0.041342 0.000000 
-0.526535 0.104174 0.000000 
-0.527935 0.166296 0.000000 
-0.524207 0.233466 0.000000 
-0.505864 0.290598 0.000000 
-0.468875 0.339810 0.000000 
-0.410369 0.369055 0.000000 
-0.354013 0.390172 0.000000 
-0.301050 0.400117 0.000000 
-0.255730 0.400890 0.000000 
-0.695595 -0.397511 0.000000 
-0.726457 -0.320630 0.000000 
-0.747352 -0.251174 0.000000 
-3.396487 1.994131 0.000000 
-3.344056 1.914743 0.000000 
-3.294256 1.871342 0.000000 
-3.248246 1.833018 0.000000 
-3.196818 1.793665 0.000000 
-3.159669 1.742354 0.000000 
-3.113281 1.695650 0.000000 
-3.056061 1.676086 0.000000 
-2.996684 1.653462 0.000000 
-2.933161 1.623845 0.000000 
-2.879064 1.587703 0.000000 
-2.813006 1.562917 0.000000 
-2.751664 1.539867 0.000000 
-2.686782 1.510544 0.000000 
-1.922020 -0.439893 0.000000 
-1.999705 -0.441392 0.000000 
-2.060018 -0.419788 0.000000 
-2.032615 -0.084801 0.000000 
-2.048550 0.000921 0.000000 
-2.029059 0.066814 0.000000 
-2.105228 -0.362730 0.000000 
-2.154373 -0.295135 0.000000 
-2.203584 -0.240511 0.000000 
-2.237020 -0.179076 0.000000 
-2.250593 -0.113783 0.000000 
-2.270119 -0.041999 0.000000 
-2.297898 0.028311 0.000000 
-2.327118 0.089891 0.000000 
-2.346747 0.143861 0.000000 
-2.362840 0.196970 0.000000 
-2.374561 0.248015 0.000000 
-2.373128 0.299990 0.000000 
-2.334174 0.366581 0.000000 
-2.331842 0.407199 0.000000 
-2.284565 0.415958 0.000000 
-0.236368 2.133388 0.000000 
-0.299146 2.177215 0.000000 
-0.346614 2.197140 0.000000 
-0.382877 2.160637 0.000000 
-0.412447 2.131587 0.000000 
-0.433989 2.091299 0.000000 
-0.446472 2.048333 0.000000 
-0.451628 2.009015 0.000000 
-0.451047 1.970552 0.000000 
-0.449242 1.934549 0.000000 
-0.453345 1.902659 0.000000 
-0.460251 1.874966 0.000000 
-0.470304 1.846181 0.000000 
-0.475290 1.816691 0.000000 
-0.478341 1.786905 0.000000 
-0.479442 1.750169 0.000000 
-2.609147 1.496755 0.000000 
-2.517189 1.491256 0.000000 
-2.434013 1.491593 0.000000 
-2.352624 1.481561 0.000000 
-2.274410 1.462190 0.000000 
-2.204499 1.427542 0.000000 
-2.180326 1.358659 0.000000 
-2.178559 1.270123 0.000000 
-2.168273 1.180094 0.000000 
-2.159086 1.082030 0.000000 
-2.144575 0.992871 0.000000 
-2.163040 0.917654 0.000000 
-2.183612 0.843562 0.000000 
-2.172907 0.779005 0.000000 
-2.161614 0.716250 0.000000 
-2.169833 0.656138 0.000000 
-2.188987 0.594385 0.000000 
-2.218663 0.543139 0.000000 
-2.229021 0.487266 0.000000 
-2.997130 1.864080 0.000000 
-3.021908 1.765942 0.000000 
-2.902046 1.832573 0.000000 
-0.770600 -0.168581 0.000000 
-0.790096 -0.076922 0.000000 
-0.811857 0.003786 0.000000 
-0.835807 0.082350 0.000000 
-0.859157 0.152478 0.000000 
-0.881226 0.212529 0.000000 
-0.903169 0.271880 0.000000 
-0.928196 0.335924 0.000000 
-2.785442 1.800020 0.000000 
-2.944278 1.739278 0.000000 
-2.855014 1.702132 0.000000 
-2.796189 1.642052 0.000000 
-2.651235 1.785273 0.000000 
-2.517962 1.774926 0.000000 
-2.394240 1.765763 0.000000 
-2.275192 1.757767 0.000000 
-2.180847 1.733206 0.000000 
-2.099904 1.706726 0.000000 
-2.018420 1.675487 0.000000 
-1.945469 1.679784 0.000000 
-1.885190 1.713124 0.000000 
-1.829736 1.733693 0.000000 
-1.760875 1.758924 0.000000 
-1.680504 1.787349 0.000000 
-1.617798 1.805666 0.000000 
-1.570169 1.820189 0.000000 
-1.527149 1.834379 0.000000 
-1.482581 1.846508 0.000000 
-1.433927 1.853049 0.000000 
-1.386311 1.860964 0.000000 
-1.337319 1.869694 0.000000 
-1.286363 1.876774 0.000000 
-1.235962 1.877491 0.000000 
-1.188452 1.882304 0.000000 
-1.140860 1.891755 0.000000 
-1.091558 1.891064 0.000000 
-1.038962 1.880046 0.000000 
-0.982519 1.861048 0.000000 
-0.922315 1.844306 0.000000 
-0.869867 1.833981 0.000000 
-0.827747 1.827491 0.000000 
-0.785371 1.822579 0.000000 
-0.748025 1.812842 0.000000 
-0.712781 1.802575 0.000000 
-0.681690 1.788643 0.000000 
-0.657198 1.777509 0.000000 
-0.633895 1.770846 0.000000 
-0.612002 1.766391 0.000000 
-0.594184 1.759178 0.000000 
-0.577381 1.749728 0.000000 
-0.560109 1.734444 0.000000 
-0.540091 1.701990 0.000000 
-1.243914 0.063144 0.000000 
-1.232782 0.076861 0.000000 
-1.257376 0.048790 0.000000 
-1.224378 0.095561 0.000000 
-1.271472 0.029445 0.000000 
-1.215702 0.117558 0.000000 
-1.204660 0.143614 0.000000 
-1.290143 0.001703 0.000000 
-1.314447 -0.043337 0.000000 
-1.190204 0.173921 0.000000 
-1.318041 -0.096691 0.000000 
-1.171655 0.208077 0.000000 
-1.149359 0.244391 0.000000 
-1.123094 0.282640 0.000000 
-1.284246 -0.146671 0.000000 
-1.239750 -0.197397 0.000000 
-1.083297 0.326631 0.000000 
-1.028190 0.358302 0.000000 
-1.181630 -0.239753 0.000000 
-1.112789 -0.271181 0.000000 
-1.040643 -0.283351 0.000000 
-0.978118 -0.286438 0.000000 
-0.927392 -0.299463 0.000000 
-0.889718 -0.338598 0.000000 
-0.873564 -0.395148 0.000000 
-0.920771 -0.427342 0.000000 
-0.935346 -0.360074 0.000000 
-0.991249 -0.436918 0.000000 
-1.088918 -0.434190 0.000000 
-1.067426 -0.354538 0.000000 
-1.189474 -0.426626 0.000000 
-1.147229 -0.341871 0.000000 
-1.266509 -0.403336 0.000000 
-1.219913 -0.315693 0.000000 
-1.335307 -0.367510 0.000000 
-1.284456 -0.277694 0.000000 
-1.402357 -0.323606 0.000000 
-1.341444 -0.229894 0.000000 
-1.466758 -0.270930 0.000000 
-1.539152 -0.210131 0.000000 
-1.393011 -0.171963 0.000000 
-1.612839 -0.139860 0.000000 
-1.665320 -0.082282 0.000000 
-1.691220 -0.017455 0.000000 
-1.704696 0.068039 0.000000 
-1.850073 0.234908 0.000000 
-1.911042 0.179083 0.000000 
-1.969645 0.122246 0.000000 
-1.726970 0.174449 0.000000 
-0.222881 0.382279 0.000000 
-0.195707 0.354696 0.000000 
-0.164205 0.317749 0.000000 
-0.127520 0.285051 0.000000 
-0.095686 0.255559 0.000000 
-0.059027 0.227081 0.000000 
-0.018954 0.197098 0.000000 
0.030296 0.165827 0.000000 
0.086536 0.145301 0.000000 
0.141893 0.126570 0.000000 
0.202102 0.097290 0.000000 
0.263408 0.057373 0.000000 
0.311661 0.007386 0.000000 
0.333954 -0.052236 0.000000 
0.338621 -0.112687 0.000000 
0.341530 -0.166625 0.000000 
0.353165 -0.216814 0.000000 
0.365710 -0.275236 0.000000 
0.363543 -0.344765 0.000000 
[...]
POINT_DATA 899 
VECTORS X_GC float 
-3.648847 2.322299 0.000000 
-3.619410 2.281747 0.000000 
-3.578536 2.246152 0.000000 
-3.540028 2.210501 0.000000 
-3.511690 2.178306 0.000000 
-3.481362 2.148448 0.000000 
-3.451569 2.107774 0.000000 
0.772356 2.224813 0.000000 
0.774615 2.198692 0.000000 
0.769962 2.169938 0.000000 
-3.399514 2.077498 0.000000 
0.413960 -0.567344 0.000000 
0.455573 -0.563041 0.000000 
-1.762619 -0.467239 0.000000 
-1.783389 -0.431843 0.000000 
-1.714437 -0.403054 0.000000 
0.732567 2.219137 0.000000 
0.698438 2.205301 0.000000 
0.491831 -0.548838 0.000000 
0.519501 -0.518433 0.000000 
0.530556 -0.477987 0.000000 
0.532354 -0.432182 0.000000 
0.531774 -0.381676 0.000000 
-3.460923 2.015766 0.000000 
0.663989 2.183355 0.000000 
0.631675 2.155960 0.000000 
0.601833 2.131905 0.000000 
0.569607 2.108647 0.000000 
0.534059 2.086570 0.000000 
0.492599 2.065430 0.000000 
0.444403 2.046765 0.000000 
0.762807 2.128963 0.000000 
-1.708694 -0.368671 0.000000 
-1.726386 -0.328408 0.000000 
-1.761257 -0.304387 0.000000 
-1.812853 -0.296539 0.000000 
-0.690422 -0.548874 0.000000 
-0.624256 -0.566802 0.000000 
-0.561079 -0.574983 0.000000 
-0.500739 -0.576439 0.000000 
-0.445387 -0.576501 0.000000 
0.532260 -0.322592 0.000000 
0.536647 -0.253259 0.000000 
-1.881389 -0.284038 0.000000 
-0.389303 -0.574227 0.000000 
-0.340338 -0.558941 0.000000 
-0.344339 -0.504806 0.000000 
-0.358558 -0.452267 0.000000 
-0.381750 -0.411355 0.000000 
-0.406193 -0.377180 0.000000 
-0.417316 -0.345683 0.000000 
-0.428320 -0.311426 0.000000 
-0.436973 -0.267161 0.000000 
-0.444212 -0.211618 0.000000 
-0.452662 -0.152760 0.000000 
-0.468602 -0.095861 0.000000 
0.553166 -0.188544 0.000000 
0.573193 -0.130873 0.000000 
0.574450 -0.079132 0.000000 
0.561087 -0.028812 0.000000 
0.550432 0.026511 0.000000 
0.748903 2.075645 0.000000 
0.730940 2.019153 0.000000 
0.715868 1.972994 0.000000 
0.699446 1.936866 0.000000 
0.684888 1.895876 0.000000 
0.675900 1.849672 0.000000 
0.669871 1.800112 0.000000 
0.664455 1.752255 0.000000 
0.668163 1.705836 0.000000 
0.672091 1.656002 0.000000 
0.674558 1.607979 0.000000 
0.673045 1.557899 0.000000 
0.386491 2.037085 0.000000 
0.664855 1.499160 0.000000 
0.652298 1.441083 0.000000 
0.638456 1.387433 0.000000 
0.623121 1.337923 0.000000 
0.616008 1.294896 0.000000 
0.600787 1.259953 0.000000 
0.571289 1.230505 0.000000 
0.539016 1.199343 0.000000 
0.513857 1.170444 0.000000 
0.493343 1.144209 0.000000 
0.469109 1.126397 0.000000 
0.444920 1.109952 0.000000 
0.415324 1.088986 0.000000 
0.383540 1.064234 0.000000 
0.356179 1.034902 0.000000 
0.343879 0.996002 0.000000 
0.337476 0.950482 0.000000 
0.332404 0.905195 0.000000 
0.328512 0.865505 0.000000 
0.319594 0.829426 0.000000 
0.304149 0.796015 0.000000 
0.290502 0.755624 0.000000 
0.275896 0.707762 0.000000 
0.261905 0.665792 0.000000 
0.250150 0.632197 0.000000 
0.250896 0.594392 0.000000 
0.259587 0.551789 0.000000 
0.284617 0.509016 0.000000 
0.315237 0.479355 0.000000 
0.340022 0.459918 0.000000 
0.354380 0.434069 0.000000 
0.368685 0.406926 0.000000 
0.385568 0.380530 0.000000 
0.415372 0.355733 0.000000 
0.447119 0.324021 0.000000 
0.477633 0.296104 0.000000 
0.503078 0.268168 0.000000 
0.518876 0.230114 0.000000 
0.527127 0.194145 0.000000 
0.534187 0.149600 0.000000 
0.543185 0.088820 0.000000 
0.322519 2.026029 0.000000 
0.263849 2.012912 0.000000 
0.208223 2.007492 0.000000 
0.150441 2.003664 0.000000 
-0.687392 -0.475807 0.000000 
-3.327058 2.051266 0.000000 
-3.276080 2.004845 0.000000 
-3.224941 1.971258 0.000000 
-3.181728 1.942100 0.000000 
-3.135074 1.905170 0.000000 
-3.078123 1.880877 0.000000 
-1.944260 -0.239160 0.000000 
0.083204 2.008820 0.000000 
0.005786 2.003467 0.000000 
-0.071812 2.012705 0.000000 
-0.135705 2.042247 0.000000 
-0.182391 2.083853 0.000000 
-1.999041 -0.168191 0.000000 
-1.843230 -0.442700 0.000000 
-0.491126 -0.031901 0.000000 
-0.512312 0.041342 0.000000 
-0.526535 0.104174 0.000000 
-0.527935 0.166296 0.000000 
-0.524207 0.233466 0.000000 
-0.505864 0.290598 0.000000 
-0.468875 0.339810 0.000000 
-0.410369 0.369055 0.000000 
-0.354013 0.390172 0.000000 
-0.301050 0.400117 0.000000 
-0.255730 0.400890 0.000000 
-0.695595 -0.397511 0.000000 
-0.726457 -0.320630 0.000000 
-0.747352 -0.251174 0.000000 
-3.396487 1.994131 0.000000 
-3.344056 1.914743 0.000000 
-3.294256 1.871342 0.000000 
-3.248246 1.833018 0.000000 
-3.196818 1.793665 0.000000 
-3.159669 1.742354 0.000000 
-3.113281 1.695650 0.000000 
-3.056061 1.676086 0.000000 
-2.996684 1.653462 0.000000 
-2.933161 1.623845 0.000000 
-2.879064 1.587703 0.000000 
-2.813006 1.562917 0.000000 
-2.751664 1.539867 0.000000 
-2.686782 1.510544 0.000000 
-1.922020 -0.439893 0.000000 
-1.999705 -0.441392 0.000000 
-2.060018 -0.419788 0.000000 
-2.032615 -0.084801 0.000000 
-2.048550 0.000921 0.000000 
-2.029059 0.066814 0.000000 
-2.105228 -0.362730 0.000000 
-2.154373 -0.295135 0.000000 
-2.203584 -0.240511 0.000000 
-2.237020 -0.179076 0.000000 
-2.250593 -0.113783 0.000000 
-2.270119 -0.041999 0.000000 
-2.297898 0.028311 0.000000 
-2.327118 0.089891 0.000000 
-2.346747 0.143861 0.000000 
-2.362840 0.196970 0.000000 
-2.374561 0.248015 0.000000 
-2.373128 0.299990 0.000000 
-2.334174 0.366581 0.000000 
-2.331842 0.407199 0.000000 
-2.284565 0.415958 0.000000 
-0.236368 2.133388 0.000000 
-0.299146 2.177215 0.000000 
-0.346614 2.197140 0.000000 
-0.382877 2.160637 0.000000 
-0.412447 2.131587 0.000000 
-0.433989 2.091299 0.000000 
-0.446472 2.048333 0.000000 
-0.451628 2.009015 0.000000 
-0.451047 1.970552 0.000000 
-0.449242 1.934549 0.000000 
-0.453345 1.902659 0.000000 
-0.460251 1.874966 0.000000 
-0.470304 1.846181 0.000000 
-0.475290 1.816691 0.000000 
-0.478341 1.786905 0.000000 
-0.479442 1.750169 0.000000 
-2.609147 1.496755 0.000000 
-2.517189 1.491256 0.000000 
-2.434013 1.491593 0.000000 
-2.352624 1.481561 0.000000 
-2.274410 1.462190 0.000000 
-2.204499 1.427542 0.000000 
-2.180326 1.358659 0.000000 
-2.178559 1.270123 0.000000 
-2.168273 1.180094 0.000000 
-2.159086 1.082030 0.000000 
-2.144575 0.992871 0.000000 
-2.163040 0.917654 0.000000 
-2.183612 0.843562 0.000000 
-2.172907 0.779005 0.000000 
-2.161614 0.716250 0.000000 
-2.169833 0.656138 0.000000 
-2.188987 0.594385 0.000000 
-2.218663 0.543139 0.000000 
-2.229021 0.487266 0.000000 
-2.997130 1.864080 0.000000 
-3.021908 1.765942 0.000000 
-2.902046 1.832573 0.000000 
-0.770600 -0.168581 0.000000 
-0.790096 -0.076922 0.000000 
-0.811857 0.003786 0.000000 
-0.835807 0.082350 0.000000 
-0.859157 0.152478 0.000000 
-0.881226 0.212529 0.000000 
-0.903169 0.271880 0.000000 
-0.928196 0.335924 0.000000 
-2.785442 1.800020 0.000000 
-2.944278 1.739278 0.000000 
-2.855014 1.702132 0.000000 
-2.796189 1.642052 0.000000 
-2.651235 1.785273 0.000000 
-2.517962 1.774926 0.000000 
-2.394240 1.765763 0.000000 
-2.275192 1.757767 0.000000 
-2.180847 1.733206 0.000000 
-2.099904 1.706726 0.000000 
-2.018420 1.675487 0.000000 
-1.945469 1.679784 0.000000 
-1.885190 1.713124 0.000000 
-1.829736 1.733693 0.000000 
-1.760875 1.758924 0.000000 
-1.680504 1.787349 0.000000 
-1.617798 1.805666 0.000000 
-1.570169 1.820189 0.000000 
-1.527149 1.834379 0.000000 
-1.482581 1.846508 0.000000 
-1.433927 1.853049 0.000000 
-1.386311 1.860964 0.000000 
-1.337319 1.869694 0.000000 
-1.286363 1.876774 0.000000 
-1.235962 1.877491 0.000000 
-1.188452 1.882304 0.000000 
-1.140860 1.891755 0.000000 
-1.091558 1.891064 0.000000 
-1.038962 1.880046 0.000000 
-0.982519 1.861048 0.000000 
-0.922315 1.844306 0.000000 
-0.869867 1.833981 0.000000 
-0.827747 1.827491 0.000000 
-0.785371 1.822579 0.000000 
-0.748025 1.812842 0.000000 
-0.712781 1.802575 0.000000 
-0.681690 1.788643 0.000000 
-0.657198 1.777509 0.000000 
-0.633895 1.770846 0.000000 
-0.612002 1.766391 0.000000 
-0.594184 1.759178 0.000000 
-0.577381 1.749728 0.000000 
-0.560109 1.734444 0.000000 
-0.540091 1.701990 0.000000 
-1.243914 0.063144 0.000000 
-1.232782 0.076861 0.000000 
-1.257376 0.048790 0.000000 
-1.224378 0.095561 0.000000 
-1.271472 0.029445 0.000000 
-1.215702 0.117558 0.000000 
-1.204660 0.143614 0.000000 
-1.290143 0.001703 0.000000 
-1.314447 -0.043337 0.000000 
-1.190204 0.173921 0.000000 
-1.318041 -0.096691 0.000000 
-1.171655 0.208077 0.000000 
-1.149359 0.244391 0.000000 
-1.123094 0.282640 0.000000 
-1.284246 -0.146671 0.000000 
-1.239750 -0.197397 0.000000 
-1.083297 0.326631 0.000000 
-1.028190 0.358302 0.000000 
-1.181630 -0.239753 0.000000 
-1.112789 -0.271181 0.000000 
-1.040643 -0.283351 0.000000 
-0.978118 -0.286438 0.000000 
-0.927392 -0.299463 0.000000 
-0.889718 -0.338598 0.000000 
-0.873564 -0.395148 0.000000 
-0.920771 -0.427342 0.000000 
-0.935346 -0.360074 0.000000 
-0.991249 -0.436918 0.000000 
-1.088918 -0.434190 0.000000 
-1.067426 -0.354538 0.000000 
-1.189474 -0.426626 0.000000 
-1.147229 -0.341871 0.000000 
-1.266509 -0.403336 0.000000 
-1.219913 -0.315693 0.000000 
-1.335307 -0.367510 0.000000 
-1.284456 -0.277694 0.000000 
-1.402357 -0.323606 0.000000 
-1.341444 -0.229894 0.000000 
-1.466758 -0.270930 0.000000 
-1.539152 -0.210131 0.000000 
-1.393011 -0.171963 0.000000 
-1.612839 -0.139860 0.000000 
-1.665320 -0.082282 0.000000 
-1.691220 -0.017455 0.000000 
-1.704696 0.068039 0.000000 
-1.850073 0.234908 0.000000 
-1.911042 0.179083 0.000000 
-1.969645 0.122246 0.000000 
-1.726970 0.174449 0.000000 
-0.222881 0.382279 0.000000 
-0.195707 0.354696 0.000000 
-0.164205 0.317749 0.000000 
-0.127520 0.285051 0.000000 
-0.095686 0.255559 0.000000 
-0.059027 0.227081 0.000000 
-0.018954 0.197098 0.000000 
0.030296 0.165827 0.000000 
0.086536 0.145301 0.000000 
0.141893 0.126570 0.000000 
0.202102 0.097290 0.000000 
0.263408 0.057373 0.000000 
0.311661 0.007386 0.000000 
0.333954 -0.052236 0.000000 
0.338621 -0.112687 0.000000 
0.341530 -0.166625 0.000000 
0.353165 -0.216814 0.000000 
0.365710 -0.275236 0.000000 
0.363543 -0.344765 0.000000 
0.357353 -0.406880 0.000000 
0.351188 -0.457622 0.000000 
0.363842 -0.504650 0.000000 
-1.737069 -0.371301 0.000000 
-0.199590 0.434897 0.000000 
-0.156305 0.404980 0.000000 
-0.462327 1.670936 0.000000 
0.741313 2.193511 0.000000 
0.482415 -0.515421 0.000000 
0.446104 -0.523317 0.000000 
0.403556 -0.528971 0.000000 
-0.104001 0.376915 0.000000 
-0.514998 1.602991 0.000000 
-0.059937 0.342511 0.000000 
0.738519 2.168246 0.000000 
0.714572 2.180546 0.000000 
-0.249752 0.461720 0.000000 
-0.036232 0.298712 0.000000 
0.000772 0.270880 0.000000 
0.035161 0.245235 0.000000 
-1.776537 -0.370743 0.000000 
-1.836238 -0.366558 0.000000 
-0.309416 0.475820 0.000000 
-0.378944 0.473556 0.000000 
-2.292732 0.353144 0.000000 
-2.315166 0.303153 0.000000 
-2.314418 0.255596 0.000000 
-2.293418 0.209210 0.000000 
-2.279687 0.159331 0.000000 
-2.253462 0.112065 0.000000 
0.075120 0.217493 0.000000 
0.131113 0.204885 0.000000 
-0.977004 0.406868 0.000000 
-0.860050 0.396703 0.000000 
-1.912142 -0.358502 0.000000 
-1.989966 -0.367282 0.000000 
-2.023752 -0.299740 0.000000 
-2.082175 -0.228479 0.000000 
0.723889 2.136733 0.000000 
0.691466 2.155576 0.000000 
0.665980 2.122929 0.000000 
0.704783 2.095661 0.000000 
0.637970 2.084871 0.000000 
0.681732 2.048452 0.000000 
0.670916 2.002277 0.000000 
0.602858 2.053203 0.000000 
0.659584 1.961853 0.000000 
0.560783 2.026832 0.000000 
0.636111 1.925778 0.000000 
0.607495 1.875988 0.000000 
0.595324 1.812507 0.000000 
0.604052 1.747834 0.000000 
0.514160 1.997428 0.000000 
0.453857 1.969983 0.000000 
0.392525 1.968005 0.000000 
0.334098 1.966477 0.000000 
0.278675 1.947723 0.000000 
0.217273 1.929648 0.000000 
0.149449 1.912292 0.000000 
0.614128 1.695558 0.000000 
0.621313 1.647979 0.000000 
0.624262 1.603099 0.000000 
-2.197766 0.058877 0.000000 
-2.158682 -0.016047 0.000000 
-2.124695 0.118207 0.000000 
-2.150589 -0.182173 0.000000 
-2.141926 -0.104628 0.000000 
-0.393439 -0.521188 0.000000 
-0.412631 -0.477144 0.000000 
-0.436983 -0.436541 0.000000 
-0.445953 -0.393121 0.000000 
-0.458251 -0.360295 0.000000 
-0.479726 -0.325529 0.000000 
-0.496934 -0.276798 0.000000 
-0.509002 -0.221715 0.000000 
-0.517157 -0.167384 0.000000 
-0.545309 -0.116109 0.000000 
-0.442273 -0.518582 0.000000 
-0.496002 -0.509065 0.000000 
-0.557668 -0.511172 0.000000 
-0.618975 -0.495691 0.000000 
-0.334659 2.135327 0.000000 
-0.367985 2.105610 0.000000 
-0.385153 2.069184 0.000000 
-0.396797 2.035317 0.000000 
-0.406285 1.999795 0.000000 
-0.402558 1.960661 0.000000 
-0.406645 1.922218 0.000000 
-0.418378 1.889804 0.000000 
-0.428059 1.860678 0.000000 
-0.435849 1.831131 0.000000 
-0.442335 1.801096 0.000000 
-0.445406 1.768031 0.000000 
-0.444483 1.722315 0.000000 
0.619822 1.557367 0.000000 
-1.077870 0.453932 0.000000 
-1.149036 0.411973 0.000000 
-1.174735 0.337131 0.000000 
-1.192231 0.285408 0.000000 
-1.210811 0.243631 0.000000 
-1.228352 0.204291 0.000000 
-1.238869 0.166311 0.000000 
-1.244643 0.134814 0.000000 
-1.248534 0.109913 0.000000 
-1.252336 0.090625 0.000000 
-1.262323 0.077374 0.000000 
-1.280319 0.066458 0.000000 
-0.451814 0.450896 0.000000 
-0.526928 0.407374 0.000000 
0.194935 0.187893 0.000000 
0.069048 1.898192 0.000000 
-0.574175 0.336690 0.000000 
-0.593607 0.255587 0.000000 
-1.764101 0.295272 0.000000 
-2.210991 0.414128 0.000000 
-0.825996 0.311426 0.000000 
-0.799223 0.240345 0.000000 
-0.760911 0.173912 0.000000 
0.605964 1.506416 0.000000 
0.587834 1.449055 0.000000 
0.576354 1.389207 0.000000 
0.574971 1.334198 0.000000 
0.580375 1.291174 0.000000 
0.545179 1.268790 0.000000 
0.509957 1.236527 0.000000 
0.484198 1.200125 0.000000 
0.468721 1.168971 0.000000 
0.449386 1.150439 0.000000 
0.422962 1.137774 0.000000 
0.391379 1.118623 0.000000 
0.357154 1.094560 0.000000 
0.323730 1.066187 0.000000 
-0.582151 -0.055241 0.000000 
0.265957 0.161463 0.000000 
0.333763 0.115334 0.000000 
0.378371 0.048318 0.000000 
0.400918 -0.026077 0.000000 
0.401084 -0.089066 0.000000 
0.404345 -0.143167 0.000000 
0.432648 -0.194249 0.000000 
0.450030 -0.258690 0.000000 
0.529803 -0.105537 0.000000 
0.491947 -0.153674 0.000000 
0.453243 -0.103790 0.000000 
0.449550 -0.333014 0.000000 
0.498420 -0.059663 0.000000 
0.474171 0.000278 0.000000 
0.457863 0.074851 0.000000 
0.462195 -0.391668 0.000000 
0.478704 -0.438004 0.000000 
0.483460 -0.478970 0.000000 
0.412910 -0.417310 0.000000 
0.398390 -0.456023 0.000000 
0.404290 -0.490311 0.000000 
0.442452 -0.485752 0.000000 
0.436659 -0.450588 0.000000 
-0.727378 0.099779 0.000000 
-0.616071 0.181797 0.000000 
-0.623548 0.107517 0.000000 
-0.605779 0.026509 0.000000 
-0.706340 0.014061 0.000000 
-0.681483 -0.072201 0.000000 
-0.032304 1.892632 0.000000 
-0.128010 1.928781 0.000000 
-0.195732 1.995905 0.000000 
-0.243911 2.049819 0.000000 
-0.287859 2.097222 0.000000 
-0.335518 2.069527 0.000000 
-0.667608 -0.157582 0.000000 
-0.584906 -0.164350 0.000000 
-0.658169 -0.237590 0.000000 
-0.578442 -0.229720 0.000000 
-0.639050 -0.309033 0.000000 
-0.607982 -0.384550 0.000000 
-0.562541 -0.292420 0.000000 
-0.536184 -0.353443 0.000000 
-0.495978 -0.391405 0.000000 
-0.500680 -0.443799 0.000000 
-0.573051 -0.448252 0.000000 
-2.690892 1.665926 0.000000 
-2.684799 1.579913 0.000000 
-2.602920 1.578651 0.000000 
-2.574381 1.663644 0.000000 
-2.518122 1.598518 0.000000 
-2.424460 1.622416 0.000000 
-2.320006 1.613485 0.000000 
-2.229986 1.589867 0.000000 
-2.146342 1.548627 0.000000 
-1.455055 -0.112981 0.000000 
-1.387692 -0.032658 0.000000 
-1.339496 0.020670 0.000000 
-1.304977 0.049230 0.000000 
-1.531301 -0.047488 0.000000 
-1.604385 -0.003376 0.000000 
-1.592423 0.097305 0.000000 
-1.608296 0.221268 0.000000 
-1.827918 0.419713 0.000000 
0.477873 0.188516 0.000000 
0.477147 0.223415 0.000000 
0.465631 0.257655 0.000000 
-0.587742 1.701864 0.000000 
-0.593403 1.725968 0.000000 
-0.604579 1.738624 0.000000 
-0.619289 1.744310 0.000000 
-0.639577 1.742137 0.000000 
-0.665912 1.743753 0.000000 
-0.697937 1.750740 0.000000 
-0.595692 1.648376 0.000000 
-0.726123 1.765551 0.000000 
-0.757398 1.776122 0.000000 
-0.794522 1.773546 0.000000 
-0.841416 1.770968 0.000000 
-0.894922 1.772329 0.000000 
-0.956071 1.780745 0.000000 
-1.020951 1.799666 0.000000 
-1.077937 1.827301 0.000000 
-1.120258 1.856029 0.000000 
-1.171769 1.831769 0.000000 
0.332207 0.385160 0.000000 
0.333662 0.343425 0.000000 
0.321472 0.413777 0.000000 
0.302407 0.440589 0.000000 
0.214022 0.455251 0.000000 
0.194081 0.516276 0.000000 
0.186716 0.571789 0.000000 
0.189303 0.624561 0.000000 
0.360023 0.303743 0.000000 
0.405131 0.278610 0.000000 
0.201671 0.673807 0.000000 
0.218038 0.724068 0.000000 
0.236652 0.773001 0.000000 
0.256885 0.814935 0.000000 
0.278373 0.843429 0.000000 
0.284019 0.876827 0.000000 
0.276718 0.923575 0.000000 
0.278735 0.980388 0.000000 
0.296322 1.030655 0.000000 
-1.507867 1.783527 0.000000 
-1.548116 1.758884 0.000000 
-1.598023 1.731505 0.000000 
-1.467251 1.798300 0.000000 
-1.422160 1.805584 0.000000 
-1.373311 1.812300 0.000000 
-1.322903 1.820077 0.000000 
-1.275577 1.829323 0.000000 
-1.225048 1.827923 0.000000 
-1.662214 1.707836 0.000000 
-1.732600 1.687896 0.000000 
-1.794687 1.673520 0.000000 
-1.841773 1.644333 0.000000 
-2.078405 0.711606 0.000000 
-2.079214 0.790195 0.000000 
-2.097651 0.634006 0.000000 
-2.129318 0.562267 0.000000 
-2.096743 0.870757 0.000000 
-2.169699 0.506923 0.000000 
-1.991686 0.433923 0.000000 
-1.642187 0.359479 0.000000 
-1.989898 0.266698 0.000000 
-2.064526 0.194886 0.000000 
-1.914688 0.340233 0.000000 
-2.037969 1.123310 0.000000 
-2.021377 1.007625 0.000000 
-2.055796 1.252471 0.000000 
-2.102728 1.355124 0.000000 
-2.047875 1.497427 0.000000 
0.428030 0.244158 0.000000 
0.375625 0.222922 0.000000 
0.313454 0.236022 0.000000 
0.290352 0.382057 0.000000 
0.238487 1.092975 0.000000 
0.440631 0.206050 0.000000 
0.396678 0.166273 0.000000 
0.460488 0.140353 0.000000 
0.523747 1.316465 0.000000 
-2.262588 0.279719 0.000000 
-2.220468 0.335747 0.000000 
-2.218579 0.226208 0.000000 
-2.146376 0.278058 0.000000 
-2.206503 0.161138 0.000000 
0.473879 1.277853 0.000000 
0.446488 1.225521 0.000000 
0.440978 1.181502 0.000000 
0.409581 1.173647 0.000000 
0.629179 2.002543 0.000000 
0.593839 1.970069 0.000000 
0.550362 1.925865 0.000000 
0.483841 1.885443 0.000000 
0.202470 1.026611 0.000000 
0.241245 0.878835 0.000000 
0.205152 0.854034 0.000000 
0.175878 0.805894 0.000000 
0.153326 0.747387 0.000000 
0.132079 0.686937 0.000000 
0.113278 0.622481 0.000000 
0.106000 0.554158 0.000000 
0.109640 0.484962 0.000000 
0.121648 0.414284 0.000000 
0.032483 0.324670 0.000000 
0.246820 0.407348 0.000000 
0.099619 0.273035 0.000000 
0.373127 1.158765 0.000000 
-0.307911 2.021905 0.000000 
-0.360136 2.003436 0.000000 
-0.343252 1.949090 0.000000 
-0.270247 1.957234 0.000000 
0.168337 0.269553 0.000000 
0.242346 0.259216 0.000000 
0.270369 0.328253 0.000000 
0.505525 1.384226 0.000000 
-0.689828 0.211481 0.000000 
-0.729540 0.268885 0.000000 
-0.746154 0.343358 0.000000 
-0.657668 0.359922 0.000000 
-0.661195 0.275635 0.000000 
-0.924642 0.512597 0.000000 
-1.137284 1.775961 0.000000 
-1.072920 1.731367 0.000000 
-1.248127 1.788258 0.000000 
-1.304069 1.771935 0.000000 
-1.360197 1.764275 0.000000 
-1.411221 1.760136 0.000000 
-1.453165 1.756906 0.000000 
-1.486003 1.739444 0.000000 
-1.510814 1.695975 0.000000 
-1.558800 1.651306 0.000000 
-0.995058 1.704614 0.000000 
-0.919611 1.694137 0.000000 
-0.852227 1.701070 0.000000 
-0.796966 1.717588 0.000000 
-0.752732 1.736757 0.000000 
-1.635591 1.623973 0.000000 
-1.992480 0.898675 0.000000 
-1.965104 0.788895 0.000000 
-1.974377 0.685562 0.000000 
-2.014368 0.591941 0.000000 
-2.065453 0.508754 0.000000 
-2.071492 0.355687 0.000000 
-2.131272 0.439224 0.000000 
-1.712039 1.610650 0.000000 
-1.781280 1.610600 0.000000 
-1.884796 1.580544 0.000000 
0.516332 1.800206 0.000000 
0.538779 1.729078 0.000000 
0.517174 1.458611 0.000000 
0.552532 1.520548 0.000000 
0.576896 1.562474 0.000000 
0.583356 1.599500 0.000000 
0.576083 1.636505 0.000000 
0.562288 1.678865 0.000000 