# vtk DataFile Version 3.0 
vtk output 
ASCII 
DATASET UNSTRUCTURED_GRID 
POINTS 899 float 
-3.648847 2.184066 0.000000 
-3.619410 2.143514 0.000000 
-3.578536 2.107920 0.000000 
-3.540028 2.072269 0.000000 
-3.511690 2.040073 0.000000 
-3.481362 2.010215 0.000000 
-3.451569 1.969542 0.000000 
0.772356 2.086580 0.000000 
0.774615 2.060459 0.000000 
0.769962 2.031705 0.000000 
-3.399514 1.939266 0.000000 
0.413960 -0.705576 0.000000 
0.455573 -0.701274 0.000000 
-1.762619 -0.605472 0.000000 
-1.783389 -0.570076 0.000000 
-1.714437 -0.541286 0.000000 
0.732567 2.080905 0.000000 
0.698438 2.067069 0.000000 
0.491831 -0.687071 0.000000 
0.519501 -0.656666 0.000000 
0.530556 -0.616219 0.000000 
0.532354 -0.570415 0.000000 
0.531774 -0.519908 0.000000 
-3.460923 1.877533 0.000000 
0.663989 2.045122 0.000000 
0.631675 2.017728 0.000000 
0.601833 1.993672 0.000000 
0.569607 1.970415 0.000000 
0.534059 1.948337 0.000000 
0.492599 1.927197 0.000000 
0.444403 1.908532 0.000000 
0.762807 1.990731 0.000000 
-1.708694 -0.506904 0.000000 
-1.726386 -0.466640 0.000000 
-1.761257 -0.442620 0.000000 
-1.812853 -0.434771 0.000000 
-0.690422 -0.687107 0.000000 
-0.624256 -0.705034 0.000000 
-0.561079 -0.713216 0.000000 
-0.500739 -0.714672 0.000000 
-0.445387 -0.714734 0.000000 
0.532260 -0.460825 0.000000 
0.536647 -0.391491 0.000000 
-1.881389 -0.422271 0.000000 
-0.389303 -0.712459 0.000000 
-0.340338 -0.697174 0.000000 
-0.344339 -0.643039 0.000000 
-0.358558 -0.590499 0.000000 
-0.381750 -0.549588 0.000000 
-0.406193 -0.515413 0.000000 
-0.417316 -0.483915 0.000000 
-0.428320 -0.449658 0.000000 
-0.436973 -0.405394 0.000000 
-0.444212 -0.349851 0.000000 
-0.452662 -0.290993 0.000000 
-0.468602 -0.234094 0.000000 
0.553166 -0.326776 0.000000 
0.573193 -0.269105 0.000000 
0.574450 -0.217365 0.000000 
0.561087 -0.167045 0.000000 
0.550432 -0.111722 0.000000 
0.748903 1.937413 0.000000 
0.730940 1.880920 0.000000 
0.715868 1.834761 0.000000 
0.699446 1.798633 0.000000 
0.684888 1.757644 0.000000 
0.675900 1.711439 0.000000 
0.669871 1.661879 0.000000 
0.664455 1.614022 0.000000 
0.668163 1.567603 0.000000 
0.672091 1.517769 0.000000 
0.674558 1.469746 0.000000 
0.673045 1.419667 0.000000 
0.386491 1.898852 0.000000 
0.664855 1.360928 0.000000 
0.652298 1.302850 0.000000 
0.638456 1.249200 0.000000 
0.623121 1.199690 0.000000 
0.616008 1.156663 0.000000 
0.600787 1.121721 0.000000 
0.571289 1.092272 0.000000 
0.539016 1.061111 0.000000 
0.513857 1.032212 0.000000 
0.493343 1.005976 0.000000 
0.469109 0.988164 0.000000 
0.444920 0.971719 0.000000 
0.415324 0.950754 0.000000 
0.383540 0.926001 0.000000 
0.356179 0.896669 0.000000 
0.343879 0.857769 0.000000 
0.337476 0.812249 0.000000 
0.332404 0.766963 0.000000 
0.328512 0.727273 0.000000 
0.319594 0.691193 0.000000 
0.304149 0.657782 0.000000 
0.290502 0.617391 0.000000 
0.275896 0.569529 0.000000 
0.261905 0.527560 0.000000 
0.250150 0.493965 0.000000 
0.250896 0.456160 0.000000 
0.259587 0.413556 0.000000 
0.284617 0.370783 0.000000 
0.315237 0.341122 0.000000 
0.340022 0.321685 0.000000 
0.354380 0.295836 0.000000 
0.368685 0.268694 0.000000 
0.385568 0.242297 0.000000 
0.415372 0.217501 0.000000 
0.447119 0.185788 0.000000 
0.477633 0.157872 0.000000 
0.503078 0.129935 0.000000 
0.518876 0.091881 0.000000 
0.527127 0.055912 0.000000 
0.534187 0.011367 0.000000 
0.543185 -0.049413 0.000000 
0.322519 1.887796 0.000000 
0.263849 1.874679 0.000000 
0.208223 1.869260 0.000000 
0.150441 1.865431 0.000000 
-0.687392 -0.614039 0.000000 
-3.327058 1.913034 0.000000 
-3.276080 1.866612 0.000000 
-3.224941 1.833026 0.000000 
-3.181728 1.803867 0.000000 
-3.135074 1.766937 0.000000 
-3.078123 1.742644 0.000000 
-1.944260 -0.377392 0.000000 
0.083204 1.870587 0.000000 
0.005786 1.865234 0.000000 
-0.071812 1.874473 0.000000 
-0.135705 1.904014 0.000000 
-0.182391 1.945620 0.000000 
-1.999041 -0.306424 0.000000 
-1.843230 -0.580932 0.000000 
-0.491126 -0.170134 0.000000 
-0.512312 -0.096891 0.000000 
-0.526535 -0.034059 0.000000 
-0.527935 0.028063 0.000000 
-0.524207 0.095233 0.000000 
-0.505864 0.152365 0.000000 
-0.468875 0.201577 0.000000 
-0.410369 0.230822 0.000000 
-0.354013 0.251939 0.000000 
-0.301050 0.261885 0.000000 
-0.255730 0.262657 0.000000 
-0.695595 -0.535744 0.000000 
-0.726457 -0.458862 0.000000 
-0.747352 -0.389407 0.000000 
-3.396487 1.855898 0.000000 
-3.344056 1.776511 0.000000 
-3.294256 1.733110 0.000000 
-3.248246 1.694785 0.000000 
-3.196818 1.655432 0.000000 
-3.159669 1.604122 0.000000 
-3.113281 1.557417 0.000000 
-3.056061 1.537854 0.000000 
-2.996684 1.515229 0.000000 
-2.933161 1.485613 0.000000 
-2.879064 1.449470 0.000000 
-2.813006 1.424684 0.000000 
-2.751664 1.401634 0.000000 
-2.686782 1.372311 0.000000 
-1.922020 -0.578126 0.000000 
-1.999705 -0.579625 0.000000 
-2.060018 -0.558021 0.000000 
-2.032615 -0.223033 0.000000 
-2.048550 -0.137311 0.000000 
-2.029059 -0.071418 0.000000 
-2.105228 -0.500962 0.000000 
-2.154373 -0.433368 0.000000 
-2.203584 -0.378744 0.000000 
-2.237020 -0.317309 0.000000 
-2.250593 -0.252016 0.000000 
-2.270119 -0.180232 0.000000 
-2.297898 -0.109922 0.000000 
-2.327118 -0.048342 0.000000 
-2.346747 0.005628 0.000000 
-2.362840 0.058738 0.000000 
-2.374561 0.109782 0.000000 
-2.373128 0.161758 0.000000 
-2.334174 0.228348 0.000000 
-2.331842 0.268966 0.000000 
-2.284565 0.277725 0.000000 
-0.236368 1.995155 0.000000 
-0.299146 2.038982 0.000000 
-0.346614 2.058907 0.000000 
-0.382877 2.022404 0.000000 
-0.412447 1.993354 0.000000 
-0.433989 1.953067 0.000000 
-0.446472 1.910100 0.000000 
-0.451628 1.870782 0.000000 
-0.451047 1.832320 0.000000 
-0.449242 1.796316 0.000000 
-0.453345 1.764427 0.000000 
-0.460251 1.736733 0.000000 
-0.470304 1.707948 0.000000 
-0.475290 1.678458 0.000000 
-0.478341 1.648673 0.000000 
-0.479442 1.611937 0.000000 
-2.609147 1.358522 0.000000 
-2.517189 1.353024 0.000000 
-2.434013 1.353360 0.000000 
-2.352624 1.343329 0.000000 
-2.274410 1.323958 0.000000 
-2.204499 1.289309 0.000000 
-2.180326 1.220426 0.000000 
-2.178559 1.131890 0.000000 
-2.168273 1.041861 0.000000 
-2.159086 0.943797 0.000000 
-2.144575 0.854639 0.000000 
-2.163040 0.779421 0.000000 
-2.183612 0.705330 0.000000 
-2.172907 0.640772 0.000000 
-2.161614 0.578017 0.000000 
-2.169833 0.517905 0.000000 
-2.188987 0.456152 0.000000 
-2.218663 0.404906 0.000000 
-2.229021 0.349033 0.000000 
-2.997130 1.725847 0.000000 
-3.021908 1.627709 0.000000 
-2.902046 1.694340 0.000000 
-0.770600 -0.306813 0.000000 
-0.790096 -0.215155 0.000000 
-0.811857 -0.134447 0.000000 
-0.835807 -0.055883 0.000000 
-0.859157 0.014245 0.000000 
-0.881226 0.074296 0.000000 
-0.903169 0.133647 0.000000 
-0.928196 0.197691 0.000000 
-2.785442 1.661787 0.000000 
-2.944278 1.601045 0.000000 
-2.855014 1.563899 0.000000 
-2.796189 1.503819 0.000000 
-2.651235 1.647041 0.000000 
-2.517962 1.636694 0.000000 
-2.394240 1.627531 0.000000 
-2.275192 1.619534 0.000000 
-2.180847 1.594973 0.000000 
-2.099904 1.568494 0.000000 
-2.018420 1.537254 0.000000 
-1.945469 1.541552 0.000000 
-1.885190 1.574891 0.000000 
-1.829736 1.595460 0.000000 
-1.760875 1.620692 0.000000 
-1.680504 1.649116 0.000000 
-1.617798 1.667433 0.000000 
-1.570169 1.681957 0.000000 
-1.527149 1.696147 0.000000 
-1.482581 1.708276 0.000000 
-1.433927 1.714816 0.000000 
-1.386311 1.722731 0.000000 
-1.337319 1.731461 0.000000 
-1.286363 1.738541 0.000000 
-1.235962 1.739259 0.000000 
-1.188452 1.744072 0.000000 
-1.140860 1.753523 0.000000 
-1.091558 1.752832 0.000000 
-1.038962 1.741813 0.000000 
-0.982519 1.722815 0.000000 
-0.922315 1.706073 0.000000 
-0.869867 1.695748 0.000000 
-0.827747 1.689259 0.000000 
-0.785371 1.684347 0.000000 
-0.748025 1.674610 0.000000 
-0.712781 1.664343 0.000000 
-0.681690 1.650411 0.000000 
-0.657198 1.639277 0.000000 
-0.633895 1.632613 0.000000 
-0.612002 1.628158 0.000000 
-0.594184 1.620945 0.000000 
-0.577381 1.611495 0.000000 
-0.560109 1.596212 0.000000 
-0.540091 1.563757 0.000000 
-1.243914 -0.075088 0.000000 
-1.232782 -0.061372 0.000000 
-1.257376 -0.089442 0.000000 
-1.224378 -0.042672 0.000000 
-1.271472 -0.108788 0.000000 
-1.215702 -0.020675 0.000000 
-1.204660 0.005381 0.000000 
-1.290143 -0.136530 0.000000 
-1.314447 -0.181569 0.000000 
-1.190204 0.035688 0.000000 
-1.318041 -0.234924 0.000000 
-1.171655 0.069844 0.000000 
-1.149359 0.106158 0.000000 
-1.123094 0.144407 0.000000 
-1.284246 -0.284903 0.000000 
-1.239750 -0.335630 0.000000 
-1.083297 0.188398 0.000000 
-1.028190 0.220070 0.000000 
-1.181630 -0.377986 0.000000 
-1.112789 -0.409413 0.000000 
-1.040643 -0.421584 0.000000 
-0.978118 -0.424670 0.000000 
-0.927392 -0.437696 0.000000 
-0.889718 -0.476830 0.000000 
-0.873564 -0.533381 0.000000 
-0.920771 -0.565575 0.000000 
-0.935346 -0.498306 0.000000 
-0.991249 -0.575151 0.000000 
-1.088918 -0.572422 0.000000 
-1.067426 -0.492770 0.000000 
-1.189474 -0.564859 0.000000 
-1.147229 -0.480103 0.000000 
-1.266509 -0.541569 0.000000 
-1.219913 -0.453926 0.000000 
-1.335307 -0.505742 0.000000 
-1.284456 -0.415927 0.000000 
-1.402357 -0.461839 0.000000 
-1.341444 -0.368126 0.000000 
-1.466758 -0.409163 0.000000 
-1.539152 -0.348364 0.000000 
-1.393011 -0.310195 0.000000 
-1.612839 -0.278093 0.000000 
-1.665320 -0.220514 0.000000 
-1.691220 -0.155688 0.000000 
-1.704696 -0.070194 0.000000 
-1.850073 0.096675 0.000000 
-1.911042 0.040850 0.000000 
-1.969645 -0.015986 0.000000 
-1.726970 0.036217 0.000000 
-0.222881 0.244047 0.000000 
-0.195707 0.216463 0.000000 
-0.164205 0.179516 0.000000 
-0.127520 0.146818 0.000000 
-0.095686 0.117327 0.000000 
-0.059027 0.088849 0.000000 
-0.018954 0.058865 0.000000 
0.030296 0.027594 0.000000 
0.086536 0.007068 0.000000 
0.141893 -0.011663 0.000000 
0.202102 -0.040943 0.000000 
0.263408 -0.080860 0.000000 
0.311661 -0.130846 0.000000 
0.333954 -0.190469 0.000000 
0.338621 -0.250919 0.000000 
0.341530 -0.304858 0.000000 
0.353165 -0.355046 0.000000 
0.365710 -0.413469 0.000000 
0.363543 -0.482998 0.000000 
[...]
POINT_DATA 899 
VECTORS X_GC float 
-3.648847 2.184066 0.000000 
-3.619410 2.143514 0.000000 
-3.578536 2.107920 0.000000 
-3.540028 2.072269 0.000000 
-3.511690 2.040073 0.000000 
-3.481362 2.010215 0.000000 
-3.451569 1.969542 0.000000 
0.772356 2.086580 0.000000 
0.774615 2.060459 0.000000 
0.769962 2.031705 0.000000 
-3.399514 1.939266 0.000000 
0.413960 -0.705576 0.000000 
0.455573 -0.701274 0.000000 
-1.762619 -0.605472 0.000000 
-1.783389 -0.570076 0.000000 
-1.714437 -0.541286 0.000000 
0.732567 2.080905 0.000000 
0.698438 2.067069 0.000000 
0.491831 -0.687071 0.000000 
0.519501 -0.656666 0.000000 
0.530556 -0.616219 0.000000 
0.532354 -0.570415 0.000000 
0.531774 -0.519908 0.000000 
-3.460923 1.877533 0.000000 
0.663989 2.045122 0.000000 
0.631675 2.017728 0.000000 
0.601833 1.993672 0.000000 
0.569607 1.970415 0.000000 
0.534059 1.948337 0.000000 
0.492599 1.927197 0.000000 
0.444403 1.908532 0.000000 
0.762807 1.990731 0.000000 
-1.708694 -0.506904 0.000000 
-1.726386 -0.466640 0.000000 
-1.761257 -0.442620 0.000000 
-1.812853 -0.434771 0.000000 
-0.690422 -0.687107 0.000000 
-0.624256 -0.705034 0.000000 
-0.561079 -0.713216 0.000000 
-0.500739 -0.714672 0.000000 
-0.445387 -0.714734 0.000000 
0.532260 -0.460825 0.000000 
0.536647 -0.391491 0.000000 
-1.881389 -0.422271 0.000000 
-0.389303 -0.712459 0.000000 
-0.340338 -0.697174 0.000000 
-0.344339 -0.643039 0.000000 
-0.358558 -0.590499 0.000000 
-0.381750 -0.549588 0.000000 
-0.406193 -0.515413 0.000000 
-0.417316 -0.483915 0.000000 
-0.428320 -0.449658 0.000000 
-0.436973 -0.405394 0.000000 
-0.444212 -0.349851 0.000000 
-0.452662 -0.290993 0.000000 
-0.468602 -0.234094 0.000000 
0.553166 -0.326776 0.000000 
0.573193 -0.269105 0.000000 
0.574450 -0.217365 0.000000 
0.561087 -0.167045 0.000000 
0.550432 -0.111722 0.000000 
0.748903 1.937413 0.000000 
0.730940 1.880920 0.000000 
0.715868 1.834761 0.000000 
0.699446 1.798633 0.000000 
0.684888 1.757644 0.000000 
0.675900 1.711439 0.000000 
0.669871 1.661879 0.000000 
0.664455 1.614022 0.000000 
0.668163 1.567603 0.000000 
0.672091 1.517769 0.000000 
0.674558 1.469746 0.000000 
0.673045 1.419667 0.000000 
0.386491 1.898852 0.000000 
0.664855 1.360928 0.000000 
0.652298 1.302850 0.000000 
0.638456 1.249200 0.000000 
0.623121 1.199690 0.000000 
0.616008 1.156663 0.000000 
0.600787 1.121721 0.000000 
0.571289 1.092272 0.000000 
0.539016 1.061111 0.000000 
0.513857 1.032212 0.000000 
0.493343 1.005976 0.000000 
0.469109 0.988164 0.000000 
0.444920 0.971719 0.000000 
0.415324 0.950754 0.000000 
0.383540 0.926001 0.000000 
0.356179 0.896669 0.000000 
0.343879 0.857769 0.000000 
0.337476 0.812249 0.000000 
0.332404 0.766963 0.000000 
0.328512 0.727273 0.000000 
0.319594 0.691193 0.000000 
0.304149 0.657782 0.000000 
0.290502 0.617391 0.000000 
0.275896 0.569529 0.000000 
0.261905 0.527560 0.000000 
0.250150 0.493965 0.000000 
0.250896 0.456160 0.000000 
0.259587 0.413556 0.000000 
0.284617 0.370783 0.000000 
0.315237 0.341122 0.000000 
0.340022 0.321685 0.000000 
0.354380 0.295836 0.000000 
0.368685 0.268694 0.000000 
0.385568 0.242297 0.000000 
0.415372 0.217501 0.000000 
0.447119 0.185788 0.000000 
0.477633 0.157872 0.000000 
0.503078 0.129935 0.000000 
0.518876 0.091881 0.000000 
0.527127 0.055912 0.000000 
0.534187 0.011367 0.000000 
0.543185 -0.049413 0.000000 
0.322519 1.887796 0.000000 
0.263849 1.874679 0.000000 
0.208223 1.869260 0.000000 
0.150441 1.865431 0.000000 
-0.687392 -0.614039 0.000000 
-3.327058 1.913034 0.000000 
-3.276080 1.866612 0.000000 
-3.224941 1.833026 0.000000 
-3.181728 1.803867 0.000000 
-3.135074 1.766937 0.000000 
-3.078123 1.742644 0.000000 
-1.944260 -0.377392 0.000000 
0.083204 1.870587 0.000000 
0.005786 1.865234 0.000000 
-0.071812 1.874473 0.000000 
-0.135705 1.904014 0.000000 
-0.182391 1.945620 0.000000 
-1.999041 -0.306424 0.000000 
-1.843230 -0.580932 0.000000 
-0.491126 -0.170134 0.000000 
-0.512312 -0.096891 0.000000 
-0.526535 -0.034059 0.000000 
-0.527935 0.028063 0.000000 
-0.524207 0.095233 0.000000 
-0.505864 0.152365 0.000000 
-0.468875 0.201577 0.000000 
-0.410369 0.230822 0.000000 
-0.354013 0.251939 0.000000 
-0.301050 0.261885 0.000000 
-0.255730 0.262657 0.000000 
-0.695595 -0.535744 0.000000 
-0.726457 -0.458862 0.000000 
-0.747352 -0.389407 0.000000 
-3.396487 1.855898 0.000000 
-3.344056 1.776511 0.000000 
-3.294256 1.733110 0.000000 
-3.248246 1.694785 0.000000 
-3.196818 1.655432 0.000000 
-3.159669 1.604122 0.000000 
-3.113281 1.557417 0.000000 
-3.056061 1.537854 0.000000 
-2.996684 1.515229 0.000000 
-2.933161 1.485613 0.000000 
-2.879064 1.449470 0.000000 
-2.813006 1.424684 0.000000 
-2.751664 1.401634 0.000000 
-2.686782 1.372311 0.000000 
-1.922020 -0.578126 0.000000 
-1.999705 -0.579625 0.000000 
-2.060018 -0.558021 0.000000 
-2.032615 -0.223033 0.000000 
-2.048550 -0.137311 0.000000 
-2.029059 -0.071418 0.000000 
-2.105228 -0.500962 0.000000 
-2.154373 -0.433368 0.000000 
-2.203584 -0.378744 0.000000 
-2.237020 -0.317309 0.000000 
-2.250593 -0.252016 0.000000 
-2.270119 -0.180232 0.000000 
-2.297898 -0.109922 0.000000 
-2.327118 -0.048342 0.000000 
-2.346747 0.005628 0.000000 
-2.362840 0.058738 0.000000 
-2.374561 0.109782 0.000000 
-2.373128 0.161758 0.000000 
-2.334174 0.228348 0.000000 
-2.331842 0.268966 0.000000 
-2.284565 0.277725 0.000000 
-0.236368 1.995155 0.000000 
-0.299146 2.038982 0.000000 
-0.346614 2.058907 0.000000 
-0.382877 2.022404 0.000000 
-0.412447 1.993354 0.000000 
-0.433989 1.953067 0.000000 
-0.446472 1.910100 0.000000 
-0.451628 1.870782 0.000000 
-0.451047 1.832320 0.000000 
-0.449242 1.796316 0.000000 
-0.453345 1.764427 0.000000 
-0.460251 1.736733 0.000000 
-0.470304 1.707948 0.000000 
-0.475290 1.678458 0.000000 
-0.478341 1.648673 0.000000 
-0.479442 1.611937 0.000000 
-2.609147 1.358522 0.000000 
-2.517189 1.353024 0.000000 
-2.434013 1.353360 0.000000 
-2.352624 1.343329 0.000000 
-2.274410 1.323958 0.000000 
-2.204499 1.289309 0.000000 
-2.180326 1.220426 0.000000 
-2.178559 1.131890 0.000000 
-2.168273 1.041861 0.000000 
-2.159086 0.943797 0.000000 
-2.144575 0.854639 0.000000 
-2.163040 0.779421 0.000000 
-2.183612 0.705330 0.000000 
-2.172907 0.640772 0.000000 
-2.161614 0.578017 0.000000 
-2.169833 0.517905 0.000000 
-2.188987 0.456152 0.000000 
-2.218663 0.404906 0.000000 
-2.229021 0.349033 0.000000 
-2.997130 1.725847 0.000000 
-3.021908 1.627709 0.000000 
-2.902046 1.694340 0.000000 
-0.770600 -0.306813 0.000000 
-0.790096 -0.215155 0.000000 
-0.811857 -0.134447 0.000000 
-0.835807 -0.055883 0.000000 
-0.859157 0.014245 0.000000 
-0.881226 0.074296 0.000000 
-0.903169 0.133647 0.000000 
-0.928196 0.197691 0.000000 
-2.785442 1.661787 0.000000 
-2.944278 1.601045 0.000000 
-2.855014 1.563899 0.000000 
-2.796189 1.503819 0.000000 
-2.651235 1.647041 0.000000 
-2.517962 1.636694 0.000000 
-2.394240 1.627531 0.000000 
-2.275192 1.619534 0.000000 
-2.180847 1.594973 0.000000 
-2.099904 1.568494 0.000000 
-2.018420 1.537254 0.000000 
-1.945469 1.541552 0.000000 
-1.885190 1.574891 0.000000 
-1.829736 1.595460 0.000000 
-1.760875 1.620692 0.000000 
-1.680504 1.649116 0.000000 
-1.617798 1.667433 0.000000 
-1.570169 1.681957 0.000000 
-1.527149 1.696147 0.000000 
-1.482581 1.708276 0.000000 
-1.433927 1.714816 0.000000 
-1.386311 1.722731 0.000000 
-1.337319 1.731461 0.000000 
-1.286363 1.738541 0.000000 
-1.235962 1.739259 0.000000 
-1.188452 1.744072 0.000000 
-1.140860 1.753523 0.000000 
-1.091558 1.752832 0.000000 
-1.038962 1.741813 0.000000 
-0.982519 1.722815 0.000000 
-0.922315 1.706073 0.000000 
-0.869867 1.695748 0.000000 
-0.827747 1.689259 0.000000 
-0.785371 1.684347 0.000000 
-0.748025 1.674610 0.000000 
-0.712781 1.664343 0.000000 
-0.681690 1.650411 0.000000 
-0.657198 1.639277 0.000000 
-0.633895 1.632613 0.000000 
-0.612002 1.628158 0.000000 
-0.594184 1.620945 0.000000 
-0.577381 1.611495 0.000000 
-0.560109 1.596212 0.000000 
-0.540091 1.563757 0.000000 
-1.243914 -0.075088 0.000000 
-1.232782 -0.061372 0.000000 
-1.257376 -0.089442 0.000000 
-1.224378 -0.042672 0.000000 
-1.271472 -0.108788 0.000000 
-1.215702 -0.020675 0.000000 
-1.204660 0.005381 0.000000 
-1.290143 -0.136530 0.000000 
-1.314447 -0.181569 0.000000 
-1.190204 0.035688 0.000000 
-1.318041 -0.234924 0.000000 
-1.171655 0.069844 0.000000 
-1.149359 0.106158 0.000000 
-1.123094 0.144407 0.000000 
-1.284246 -0.284903 0.000000 
-1.239750 -0.335630 0.000000 
-1.083297 0.188398 0.000000 
-1.028190 0.220070 0.000000 
-1.181630 -0.377986 0.000000 
-1.112789 -0.409413 0.000000 
-1.040643 -0.421584 0.000000 
-0.978118 -0.424670 0.000000 
-0.927392 -0.437696 0.000000 
-0.889718 -0.476830 0.000000 
-0.873564 -0.533381 0.000000 
-0.920771 -0.565575 0.000000 
-0.935346 -0.498306 0.000000 
-0.991249 -0.575151 0.000000 
-1.088918 -0.572422 0.000000 
-1.067426 -0.492770 0.000000 
-1.189474 -0.564859 0.000000 
-1.147229 -0.480103 0.000000 
-1.266509 -0.541569 0.000000 
-1.219913 -0.453926 0.000000 
-1.335307 -0.505742 0.000000 
-1.284456 -0.415927 0.000000 
-1.402357 -0.461839 0.000000 
-1.341444 -0.368126 0.000000 
-1.466758 -0.409163 0.000000 
-1.539152 -0.348364 0.000000 
-1.393011 -0.310195 0.000000 
-1.612839 -0.278093 0.000000 
-1.665320 -0.220514 0.000000 
-1.691220 -0.155688 0.000000 
-1.704696 -0.070194 0.000000 
-1.850073 0.096675 0.000000 
-1.911042 0.040850 0.000000 
-1.969645 -0.015986 0.000000 
-1.726970 0.036217 0.000000 
-0.222881 0.244047 0.000000 
-0.195707 0.216463 0.000000 
-0.164205 0.179516 0.000000 
-0.127520 0.146818 0.000000 
-0.095686 0.117327 0.000000 
-0.059027 0.088849 0.000000 
-0.018954 0.058865 0.000000 
0.030296 0.027594 0.000000 
0.086536 0.007068 0.000000 
0.141893 -0.011663 0.000000 
0.202102 -0.040943 0.000000 
0.263408 -0.080860 0.000000 
0.311661 -0.130846 0.000000 
0.333954 -0.190469 0.000000 
0.338621 -0.250919 0.000000 
0.341530 -0.304858 0.000000 
0.353165 -0.355046 0.000000 
0.365710 -0.413469 0.000000 
0.363543 -0.482998 0.000000 
0.357353 -0.545112 0.000000 
0.351188 -0.595855 0.000000 
0.363842 -0.642883 0.000000 
-1.737069 -0.509534 0.000000 
-0.199590 0.296664 0.000000 
-0.156305 0.266748 0.000000 
-0.462327 1.532704 0.000000 
0.741313 2.055278 0.000000 
0.482415 -0.653654 0.000000 
0.446104 -0.661550 0.000000 
0.403556 -0.667204 0.000000 
-0.104001 0.238683 0.000000 
-0.514998 1.464758 0.000000 
-0.059937 0.204278 0.000000 
0.738519 2.030013 0.000000 
0.714572 2.042313 0.000000 
-0.249752 0.323487 0.000000 
-0.036232 0.160480 0.000000 
0.000772 0.132647 0.000000 
0.035161 0.107003 0.000000 
-1.776537 -0.508976 0.000000 
-1.836238 -0.504791 0.000000 
-0.309416 0.337587 0.000000 
-0.378944 0.335323 0.000000 
-2.292732 0.214911 0.000000 
-2.315166 0.164920 0.000000 
-2.314418 0.117363 0.000000 
-2.293418 0.070977 0.000000 
-2.279687 0.021098 0.000000 
-2.253462 -0.026167 0.000000 
0.075120 0.079260 0.000000 
0.131113 0.066652 0.000000 
-0.977004 0.268636 0.000000 
-0.860050 0.258470 0.000000 
-1.912142 -0.496734 0.000000 
-1.989966 -0.505515 0.000000 
-2.023752 -0.437973 0.000000 
-2.082175 -0.366712 0.000000 
0.723889 1.998500 0.000000 
0.691466 2.017343 0.000000 
0.665980 1.984696 0.000000 
0.704783 1.957428 0.000000 
0.637970 1.946638 0.000000 
0.681732 1.910219 0.000000 
0.670916 1.864044 0.000000 
0.602858 1.914970 0.000000 
0.659584 1.823620 0.000000 
0.560783 1.888599 0.000000 
0.636111 1.787546 0.000000 
0.607495 1.737755 0.000000 
0.595324 1.674274 0.000000 
0.604052 1.609601 0.000000 
0.514160 1.859196 0.000000 
0.453857 1.831751 0.000000 
0.392525 1.829772 0.000000 
0.334098 1.828244 0.000000 
0.278675 1.809490 0.000000 
0.217273 1.791415 0.000000 
0.149449 1.774059 0.000000 
0.614128 1.557326 0.000000 
0.621313 1.509746 0.000000 
0.624262 1.464866 0.000000 
-2.197766 -0.079356 0.000000 
-2.158682 -0.154280 0.000000 
-2.124695 -0.020026 0.000000 
-2.150589 -0.320406 0.000000 
-2.141926 -0.242860 0.000000 
-0.393439 -0.659420 0.000000 
-0.412631 -0.615377 0.000000 
-0.436983 -0.574774 0.000000 
-0.445953 -0.531354 0.000000 
-0.458251 -0.498528 0.000000 
-0.479726 -0.463762 0.000000 
-0.496934 -0.415031 0.000000 
-0.509002 -0.359947 0.000000 
-0.517157 -0.305617 0.000000 
-0.545309 -0.254341 0.000000 
-0.442273 -0.656815 0.000000 
-0.496002 -0.647297 0.000000 
-0.557668 -0.649404 0.000000 
-0.618975 -0.633924 0.000000 
-0.334659 1.997094 0.000000 
-0.367985 1.967377 0.000000 
-0.385153 1.930951 0.000000 
-0.396797 1.897084 0.000000 
-0.406285 1.861562 0.000000 
-0.402558 1.822429 0.000000 
-0.406645 1.783985 0.000000 
-0.418378 1.751571 0.000000 
-0.428059 1.722446 0.000000 
-0.435849 1.692898 0.000000 
-0.442335 1.662863 0.000000 
-0.445406 1.629798 0.000000 
-0.444483 1.584082 0.000000 
0.619822 1.419134 0.000000 
-1.077870 0.315699 0.000000 
-1.149036 0.273741 0.000000 
-1.174735 0.198898 0.000000 
-1.192231 0.147175 0.000000 
-1.210811 0.105398 0.000000 
-1.228352 0.066059 0.000000 
-1.238869 0.028079 0.000000 
-1.244643 -0.003419 0.000000 
-1.248534 -0.028320 0.000000 
-1.252336 -0.047607 0.000000 
-1.262323 -0.060859 0.000000 
-1.280319 -0.071775 0.000000 
-0.451814 0.312663 0.000000 
-0.526928 0.269141 0.000000 
0.194935 0.049660 0.000000 
0.069048 1.759960 0.000000 
-0.574175 0.198457 0.000000 
-0.593607 0.117354 0.000000 
-1.764101 0.157039 0.000000 
-2.210991 0.275895 0.000000 
-0.825996 0.173193 0.000000 
-0.799223 0.102113 0.000000 
-0.760911 0.035679 0.000000 
0.605964 1.368183 0.000000 
0.587834 1.310823 0.000000 
0.576354 1.250974 0.000000 
0.574971 1.195966 0.000000 
0.580375 1.152941 0.000000 
0.545179 1.130557 0.000000 
0.509957 1.098295 0.000000 
0.484198 1.061892 0.000000 
0.468721 1.030738 0.000000 
0.449386 1.012207 0.000000 
0.422962 0.999542 0.000000 
0.391379 0.980391 0.000000 
0.357154 0.956327 0.000000 
0.323730 0.927955 0.000000 
-0.582151 -0.193474 0.000000 
0.265957 0.023230 0.000000 
0.333763 -0.022899 0.000000 
0.378371 -0.089915 0.000000 
0.400918 -0.164310 0.000000 
0.401084 -0.227299 0.000000 
0.404345 -0.281400 0.000000 
0.432648 -0.332482 0.000000 
0.450030 -0.396923 0.000000 
0.529803 -0.243769 0.000000 
0.491947 -0.291907 0.000000 
0.453243 -0.242023 0.000000 
0.449550 -0.471247 0.000000 
0.498420 -0.197896 0.000000 
0.474171 -0.137955 0.000000 
0.457863 -0.063381 0.000000 
0.462195 -0.529901 0.000000 
0.478704 -0.576237 0.000000 
0.483460 -0.617203 0.000000 
0.412910 -0.555542 0.000000 
0.398390 -0.594256 0.000000 
0.404290 -0.628543 0.000000 
0.442452 -0.623985 0.000000 
0.436659 -0.588821 0.000000 
-0.727378 -0.038454 0.000000 
-0.616071 0.043565 0.000000 
-0.623548 -0.030716 0.000000 
-0.605779 -0.111724 0.000000 
-0.706340 -0.124172 0.000000 
-0.681483 -0.210434 0.000000 
-0.032304 1.754399 0.000000 
-0.128010 1.790548 0.000000 
-0.195732 1.857672 0.000000 
-0.243911 1.911586 0.000000 
-0.287859 1.958990 0.000000 
-0.335518 1.931294 0.000000 
-0.667608 -0.295815 0.000000 
-0.584906 -0.302582 0.000000 
-0.658169 -0.375823 0.000000 
-0.578442 -0.367953 0.000000 
-0.639050 -0.447266 0.000000 
-0.607982 -0.522783 0.000000 
-0.562541 -0.430652 0.000000 
-0.536184 -0.491676 0.000000 
-0.495978 -0.529637 0.000000 
-0.500680 -0.582032 0.000000 
-0.573051 -0.586485 0.000000 
-2.690892 1.527693 0.000000 
-2.684799 1.441680 0.000000 
-2.602920 1.440418 0.000000 
-2.574381 1.525411 0.000000 
-2.518122 1.460286 0.000000 
-2.424460 1.484184 0.000000 
-2.320006 1.475252 0.000000 
-2.229986 1.451635 0.000000 
-2.146342 1.410395 0.000000 
-1.455055 -0.251214 0.000000 
-1.387692 -0.170890 0.000000 
-1.339496 -0.117562 0.000000 
-1.304977 -0.089002 0.000000 
-1.531301 -0.185721 0.000000 
-1.604385 -0.141609 0.000000 
-1.592423 -0.040928 0.000000 
-1.608296 0.083035 0.000000 
-1.827918 0.281481 0.000000 
0.477873 0.050284 0.000000 
0.477147 0.085182 0.000000 
0.465631 0.119422 0.000000 
-0.587742 1.563632 0.000000 
-0.593403 1.587735 0.000000 
-0.604579 1.600391 0.000000 
-0.619289 1.606077 0.000000 
-0.639577 1.603904 0.000000 
-0.665912 1.605520 0.000000 
-0.697937 1.612507 0.000000 
-0.595692 1.510143 0.000000 
-0.726123 1.627318 0.000000 
-0.757398 1.637889 0.000000 
-0.794522 1.635314 0.000000 
-0.841416 1.632736 0.000000 
-0.894922 1.634096 0.000000 
-0.956071 1.642512 0.000000 
-1.020951 1.661434 0.000000 
-1.077937 1.689068 0.000000 
-1.120258 1.717797 0.000000 
-1.171769 1.693536 0.000000 
0.332207 0.246927 0.000000 
0.333662 0.205192 0.000000 
0.321472 0.275544 0.000000 
0.302407 0.302357 0.000000 
0.214022 0.317019 0.000000 
0.194081 0.378043 0.000000 
0.186716 0.433556 0.000000 
0.189303 0.486328 0.000000 
0.360023 0.165510 0.000000 
0.405131 0.140377 0.000000 
0.201671 0.535574 0.000000 
0.218038 0.585835 0.000000 
0.236652 0.634769 0.000000 
0.256885 0.676703 0.000000 
0.278373 0.705197 0.000000 
0.284019 0.738595 0.000000 
0.276718 0.785342 0.000000 
0.278735 0.842155 0.000000 
0.296322 0.892422 0.000000 
-1.507867 1.645294 0.000000 
-1.548116 1.620652 0.000000 
-1.598023 1.593272 0.000000 
-1.467251 1.660068 0.000000 
-1.422160 1.667351 0.000000 
-1.373311 1.674068 0.000000 
-1.322903 1.681844 0.000000 
-1.275577 1.691090 0.000000 
-1.225048 1.689691 0.000000 
-1.662214 1.569603 0.000000 
-1.732600 1.549663 0.000000 
-1.794687 1.535288 0.000000 
-1.841773 1.506101 0.000000 
-2.078405 0.573373 0.000000 
-2.079214 0.651963 0.000000 
-2.097651 0.495773 0.000000 
-2.129318 0.424034 0.000000 
-2.096743 0.732525 0.000000 
-2.169699 0.368691 0.000000 
-1.991686 0.295691 0.000000 
-1.642187 0.221247 0.000000 
-1.989898 0.128466 0.000000 
-2.064526 0.056653 0.000000 
-1.914688 0.202000 0.000000 
-2.037969 0.985077 0.000000 
-2.021377 0.869392 0.000000 
-2.055796 1.114239 0.000000 
-2.102728 1.216892 0.000000 
-2.047875 1.359194 0.000000 
0.428030 0.105925 0.000000 
0.375625 0.084689 0.000000 
0.313454 0.097790 0.000000 
0.290352 0.243825 0.000000 
0.238487 0.954742 0.000000 
0.440631 0.067817 0.000000 
0.396678 0.028040 0.000000 
0.460488 0.002120 0.000000 
0.523747 1.178232 0.000000 
-2.262588 0.141487 0.000000 
-2.220468 0.197514 0.000000 
-2.218579 0.087976 0.000000 
-2.146376 0.139826 0.000000 
-2.206503 0.022905 0.000000 
0.473879 1.139620 0.000000 
0.446488 1.087289 0.000000 
0.440978 1.043270 0.000000 
0.409581 1.035415 0.000000 
0.629179 1.864310 0.000000 
0.593839 1.831837 0.000000 
0.550362 1.787633 0.000000 
0.483841 1.747210 0.000000 
0.202470 0.888378 0.000000 
0.241245 0.740602 0.000000 
0.205152 0.715802 0.000000 
0.175878 0.667661 0.000000 
0.153326 0.609155 0.000000 
0.132079 0.548705 0.000000 
0.113278 0.484249 0.000000 
0.106000 0.415926 0.000000 
0.109640 0.346729 0.000000 
0.121648 0.276051 0.000000 
0.032483 0.186437 0.000000 
0.246820 0.269115 0.000000 
0.099619 0.134802 0.000000 
0.373127 1.020532 0.000000 
-0.307911 1.883672 0.000000 
-0.360136 1.865203 0.000000 
-0.343252 1.810857 0.000000 
-0.270247 1.819001 0.000000 
0.168337 0.131321 0.000000 
0.242346 0.120983 0.000000 
0.270369 0.190020 0.000000 
0.505525 1.245993 0.000000 
-0.689828 0.073248 0.000000 
-0.729540 0.130652 0.000000 
-0.746154 0.205125 0.000000 
-0.657668 0.221689 0.000000 
-0.661195 0.137402 0.000000 
-0.924642 0.374365 0.000000 
-1.137284 1.637728 0.000000 
-1.072920 1.593134 0.000000 
-1.248127 1.650025 0.000000 
-1.304069 1.633703 0.000000 
-1.360197 1.626043 0.000000 
-1.411221 1.621903 0.000000 
-1.453165 1.618673 0.000000 
-1.486003 1.601211 0.000000 
-1.510814 1.557742 0.000000 
-1.558800 1.513073 0.000000 
-0.995058 1.566381 0.000000 
-0.919611 1.555905 0.000000 
-0.852227 1.562837 0.000000 
-0.796966 1.579355 0.000000 
-0.752732 1.598524 0.000000 
-1.635591 1.485740 0.000000 
-1.992480 0.760442 0.000000 
-1.965104 0.650662 0.000000 
-1.974377 0.547330 0.000000 
-2.014368 0.453708 0.000000 
-2.065453 0.370522 0.000000 
-2.071492 0.217455 0.000000 
-2.131272 0.300991 0.000000 
-1.712039 1.472417 0.000000 
-1.781280 1.472368 0.000000 
-1.884796 1.442311 0.000000 
0.516332 1.661974 0.000000 
0.538779 1.590845 0.000000 
0.517174 1.320379 0.000000 
0.552532 1.382315 0.000000 
0.576896 1.424242 0.000000 
0.583356 1.461268 0.000000 