# vtk DataFile Version 3.0 
vtk output 
ASCII 
DATASET UNSTRUCTURED_GRID 
POINTS 899 float 
-3.648847 2.336857 0.000000 
-3.619410 2.296305 0.000000 
-3.578536 2.260710 0.000000 
-3.540028 2.225060 0.000000 
-3.511690 2.192864 0.000000 
-3.481362 2.163006 0.000000 
-3.451569 2.122332 0.000000 
0.772356 2.239371 0.000000 
0.774615 2.213250 0.000000 
0.769962 2.184496 0.000000 
-3.399514 2.092056 0.000000 
0.413960 -0.552786 0.000000 
0.455573 -0.548483 0.000000 
-1.762619 -0.452681 0.000000 
-1.783389 -0.417285 0.000000 
-1.714437 -0.388496 0.000000 
0.732567 2.233696 0.000000 
0.698438 2.219859 0.000000 
0.491831 -0.534280 0.000000 
0.519501 -0.503875 0.000000 
0.530556 -0.463429 0.000000 
0.532354 -0.417624 0.000000 
0.531774 -0.367118 0.000000 
-3.460923 2.030324 0.000000 
0.663989 2.197913 0.000000 
0.631675 2.170518 0.000000 
0.601833 2.146463 0.000000 
0.569607 2.123205 0.000000 
0.534059 2.101128 0.000000 
0.492599 2.079988 0.000000 
0.444403 2.061323 0.000000 
0.762807 2.143521 0.000000 
-1.708694 -0.354113 0.000000 
-1.726386 -0.313850 0.000000 
-1.761257 -0.289829 0.000000 
-1.812853 -0.281981 0.000000 
-0.690422 -0.534316 0.000000 
-0.624256 -0.552244 0.000000 
-0.561079 -0.560425 0.000000 
-0.500739 -0.561881 0.000000 
-0.445387 -0.561943 0.000000 
0.532260 -0.308034 0.000000 
0.536647 -0.238701 0.000000 
-1.881389 -0.269480 0.000000 
-0.389303 -0.559669 0.000000 
-0.340338 -0.544383 0.000000 
-0.344339 -0.490248 0.000000 
-0.358558 -0.437709 0.000000 
-0.381750 -0.396797 0.000000 
-0.406193 -0.362622 0.000000 
-0.417316 -0.331125 0.000000 
-0.428320 -0.296868 0.000000 
-0.436973 -0.252603 0.000000 
-0.444212 -0.197060 0.000000 
-0.452662 -0.138202 0.000000 
-0.468602 -0.081303 0.000000 
0.553166 -0.173986 0.000000 
0.573193 -0.116315 0.000000 
0.574450 -0.064574 0.000000 
0.561087 -0.014254 0.000000 
0.550432 0.041069 0.000000 
0.748903 2.090204 0.000000 
0.730940 2.033711 0.000000 
0.715868 1.987552 0.000000 
0.699446 1.951424 0.000000 
0.684888 1.910434 0.000000 
0.675900 1.864230 0.000000 
0.669871 1.814670 0.000000 
0.664455 1.766813 0.000000 
0.668163 1.720394 0.000000 
0.672091 1.670560 0.000000 
0.674558 1.622537 0.000000 
0.673045 1.572457 0.000000 
0.386491 2.051643 0.000000 
0.664855 1.513719 0.000000 
0.652298 1.455641 0.000000 
0.638456 1.401991 0.000000 
0.623121 1.352481 0.000000 
0.616008 1.309454 0.000000 
0.600787 1.274511 0.000000 
0.571289 1.245063 0.000000 
0.539016 1.213901 0.000000 
0.513857 1.185002 0.000000 
0.493343 1.158767 0.000000 
0.469109 1.140955 0.000000 
0.444920 1.124510 0.000000 
0.415324 1.103544 0.000000 
0.383540 1.078792 0.000000 
0.356179 1.049460 0.000000 
0.343879 1.010560 0.000000 
0.337476 0.965040 0.000000 
0.332404 0.919753 0.000000 
0.328512 0.880063 0.000000 
0.319594 0.843984 0.000000 
0.304149 0.810573 0.000000 
0.290502 0.770182 0.000000 
0.275896 0.722320 0.000000 
0.261905 0.680351 0.000000 
0.250150 0.646755 0.000000 
0.250896 0.608950 0.000000 
0.259587 0.566347 0.000000 
0.284617 0.523574 0.000000 
0.315237 0.493913 0.000000 
0.340022 0.474476 0.000000 
0.354380 0.448627 0.000000 
0.368685 0.421484 0.000000 
0.385568 0.395088 0.000000 
0.415372 0.370291 0.000000 
0.447119 0.338579 0.000000 
0.477633 0.310662 0.000000 
0.503078 0.282726 0.000000 
0.518876 0.244672 0.000000 
0.527127 0.208703 0.000000 
0.534187 0.164158 0.000000 
0.543185 0.103378 0.000000 
0.322519 2.040587 0.000000 
0.263849 2.027470 0.000000 
0.208223 2.022051 0.000000 
0.150441 2.018222 0.000000 
-0.687392 -0.461248 0.000000 
-3.327058 2.065825 0.000000 
-3.276080 2.019403 0.000000 
-3.224941 1.985816 0.000000 
-3.181728 1.956658 0.000000 
-3.135074 1.919728 0.000000 
-3.078123 1.895435 0.000000 
-1.944260 -0.224602 0.000000 
0.083204 2.023378 0.000000 
0.005786 2.018025 0.000000 
-0.071812 2.027263 0.000000 
-0.135705 2.056805 0.000000 
-0.182391 2.098411 0.000000 
-1.999041 -0.153633 0.000000 
-1.843230 -0.428142 0.000000 
-0.491126 -0.017343 0.000000 
-0.512312 0.055900 0.000000 
-0.526535 0.118732 0.000000 
-0.527935 0.180854 0.000000 
-0.524207 0.248024 0.000000 
-0.505864 0.305156 0.000000 
-0.468875 0.354368 0.000000 
-0.410369 0.383613 0.000000 
-0.354013 0.404730 0.000000 
-0.301050 0.414675 0.000000 
-0.255730 0.415448 0.000000 
-0.695595 -0.382953 0.000000 
-0.726457 -0.306072 0.000000 
-0.747352 -0.236616 0.000000 
-3.396487 2.008689 0.000000 
-3.344056 1.929301 0.000000 
-3.294256 1.885901 0.000000 
-3.248246 1.847576 0.000000 
-3.196818 1.808223 0.000000 
-3.159669 1.756912 0.000000 
-3.113281 1.710208 0.000000 
-3.056061 1.690645 0.000000 
-2.996684 1.668020 0.000000 
-2.933161 1.638403 0.000000 
-2.879064 1.602261 0.000000 
-2.813006 1.577475 0.000000 
-2.751664 1.554425 0.000000 
-2.686782 1.525102 0.000000 
-1.922020 -0.425335 0.000000 
-1.999705 -0.426834 0.000000 
-2.060018 -0.405230 0.000000 
-2.032615 -0.070243 0.000000 
-2.048550 0.015479 0.000000 
-2.029059 0.081372 0.000000 
-2.105228 -0.348172 0.000000 
-2.154373 -0.280577 0.000000 
-2.203584 -0.225953 0.000000 
-2.237020 -0.164518 0.000000 
-2.250593 -0.099225 0.000000 
-2.270119 -0.027441 0.000000 
-2.297898 0.042869 0.000000 
-2.327118 0.104449 0.000000 
-2.346747 0.158419 0.000000 
-2.362840 0.211528 0.000000 
-2.374561 0.262573 0.000000 
-2.373128 0.314548 0.000000 
-2.334174 0.381139 0.000000 
-2.331842 0.421757 0.000000 
-2.284565 0.430516 0.000000 
-0.236368 2.147946 0.000000 
-0.299146 2.191773 0.000000 
-0.346614 2.211698 0.000000 
-0.382877 2.175195 0.000000 
-0.412447 2.146145 0.000000 
-0.433989 2.105857 0.000000 
-0.446472 2.062891 0.000000 
-0.451628 2.023573 0.000000 
-0.451047 1.985110 0.000000 
-0.449242 1.949107 0.000000 
-0.453345 1.917217 0.000000 
-0.460251 1.889524 0.000000 
-0.470304 1.860739 0.000000 
-0.475290 1.831249 0.000000 
-0.478341 1.801463 0.000000 
-0.479442 1.764727 0.000000 
-2.609147 1.511313 0.000000 
-2.517189 1.505814 0.000000 
-2.434013 1.506151 0.000000 
-2.352624 1.496119 0.000000 
-2.274410 1.476748 0.000000 
-2.204499 1.442100 0.000000 
-2.180326 1.373217 0.000000 
-2.178559 1.284681 0.000000 
-2.168273 1.194652 0.000000 
-2.159086 1.096588 0.000000 
-2.144575 1.007429 0.000000 
-2.163040 0.932212 0.000000 
-2.183612 0.858120 0.000000 
-2.172907 0.793563 0.000000 
-2.161614 0.730808 0.000000 
-2.169833 0.670696 0.000000 
-2.188987 0.608943 0.000000 
-2.218663 0.557697 0.000000 
-2.229021 0.501824 0.000000 
-2.997130 1.878638 0.000000 
-3.021908 1.780500 0.000000 
-2.902046 1.847131 0.000000 
-0.770600 -0.154023 0.000000 
-0.790096 -0.062364 0.000000 
-0.811857 0.018344 0.000000 
-0.835807 0.096908 0.000000 
-0.859157 0.167036 0.000000 
-0.881226 0.227087 0.000000 
-0.903169 0.286438 0.000000 
-0.928196 0.350482 0.000000 
-2.785442 1.814578 0.000000 
-2.944278 1.753836 0.000000 
-2.855014 1.716690 0.000000 
-2.796189 1.656610 0.000000 
-2.651235 1.799831 0.000000 
-2.517962 1.789484 0.000000 
-2.394240 1.780322 0.000000 
-2.275192 1.772325 0.000000 
-2.180847 1.747764 0.000000 
-2.099904 1.721285 0.000000 
-2.018420 1.690045 0.000000 
-1.945469 1.694342 0.000000 
-1.885190 1.727682 0.000000 
-1.829736 1.748251 0.000000 
-1.760875 1.773482 0.000000 
-1.680504 1.801907 0.000000 
-1.617798 1.820224 0.000000 
-1.570169 1.834747 0.000000 
-1.527149 1.848937 0.000000 
-1.482581 1.861066 0.000000 
-1.433927 1.867607 0.000000 
-1.386311 1.875522 0.000000 
-1.337319 1.884252 0.000000 
-1.286363 1.891332 0.000000 
-1.235962 1.892049 0.000000 
-1.188452 1.896862 0.000000 
-1.140860 1.906313 0.000000 
-1.091558 1.905622 0.000000 
-1.038962 1.894604 0.000000 
-0.982519 1.875606 0.000000 
-0.922315 1.858864 0.000000 
-0.869867 1.848539 0.000000 
-0.827747 1.842049 0.000000 
-0.785371 1.837137 0.000000 
-0.748025 1.827400 0.000000 
-0.712781 1.817133 0.000000 
-0.681690 1.803202 0.000000 
-0.657198 1.792067 0.000000 
-0.633895 1.785404 0.000000 
-0.612002 1.780949 0.000000 
-0.594184 1.773736 0.000000 
-0.577381 1.764286 0.000000 
-0.560109 1.749002 0.000000 
-0.540091 1.716548 0.000000 
-1.243914 0.077702 0.000000 
-1.232782 0.091419 0.000000 
-1.257376 0.063348 0.000000 
-1.224378 0.110119 0.000000 
-1.271472 0.044003 0.000000 
-1.215702 0.132116 0.000000 
-1.204660 0.158172 0.000000 
-1.290143 0.016261 0.000000 
-1.314447 -0.028779 0.000000 
-1.190204 0.188479 0.000000 
-1.318041 -0.082133 0.000000 
-1.171655 0.222635 0.000000 
-1.149359 0.258949 0.000000 
-1.123094 0.297198 0.000000 
-1.284246 -0.132113 0.000000 
-1.239750 -0.182839 0.000000 
-1.083297 0.341189 0.000000 
-1.028190 0.372860 0.000000 
-1.181630 -0.225195 0.000000 
-1.112789 -0.256623 0.000000 
-1.040643 -0.268793 0.000000 
-0.978118 -0.271880 0.000000 
-0.927392 -0.284905 0.000000 
-0.889718 -0.324040 0.000000 
-0.873564 -0.380590 0.000000 
-0.920771 -0.412784 0.000000 
-0.935346 -0.345515 0.000000 
-0.991249 -0.422360 0.000000 
-1.088918 -0.419632 0.000000 
-1.067426 -0.339980 0.000000 
-1.189474 -0.412068 0.000000 
-1.147229 -0.327313 0.000000 
-1.266509 -0.388778 0.000000 
-1.219913 -0.301135 0.000000 
-1.335307 -0.352952 0.000000 
-1.284456 -0.263136 0.000000 
-1.402357 -0.309048 0.000000 
-1.341444 -0.215336 0.000000 
-1.466758 -0.256372 0.000000 
-1.539152 -0.195573 0.000000 
-1.393011 -0.157405 0.000000 
-1.612839 -0.125302 0.000000 
-1.665320 -0.067724 0.000000 
-1.691220 -0.002897 0.000000 
-1.704696 0.082597 0.000000 
-1.850073 0.249466 0.000000 
-1.911042 0.193641 0.000000 
-1.969645 0.136804 0.000000 
-1.726970 0.189008 0.000000 
-0.222881 0.396837 0.000000 
-0.195707 0.369254 0.000000 
-0.164205 0.332307 0.000000 
-0.127520 0.299609 0.000000 
-0.095686 0.270117 0.000000 
-0.059027 0.241639 0.000000 
-0.018954 0.211656 0.000000 
0.030296 0.180385 0.000000 
0.086536 0.159859 0.000000 
0.141893 0.141128 0.000000 
0.202102 0.111848 0.000000 
0.263408 0.071931 0.000000 
0.311661 0.021944 0.000000 
0.333954 -0.037678 0.000000 
0.338621 -0.098129 0.000000 
0.341530 -0.152067 0.000000 
0.353165 -0.202256 0.000000 
0.365710 -0.260678 0.000000 
0.363543 -0.330207 0.000000 
[...]
POINT_DATA 899 
VECTORS X_GC float 
-3.648847 2.336857 0.000000 
-3.619410 2.296305 0.000000 
-3.578536 2.260710 0.000000 
-3.540028 2.225060 0.000000 
-3.511690 2.192864 0.000000 
-3.481362 2.163006 0.000000 
-3.451569 2.122332 0.000000 
0.772356 2.239371 0.000000 
0.774615 2.213250 0.000000 
0.769962 2.184496 0.000000 
-3.399514 2.092056 0.000000 
0.413960 -0.552786 0.000000 
0.455573 -0.548483 0.000000 
-1.762619 -0.452681 0.000000 
-1.783389 -0.417285 0.000000 
-1.714437 -0.388496 0.000000 
0.732567 2.233696 0.000000 
0.698438 2.219859 0.000000 
0.491831 -0.534280 0.000000 
0.519501 -0.503875 0.000000 
0.530556 -0.463429 0.000000 
0.532354 -0.417624 0.000000 
0.531774 -0.367118 0.000000 
-3.460923 2.030324 0.000000 
0.663989 2.197913 0.000000 
0.631675 2.170518 0.000000 
0.601833 2.146463 0.000000 
0.569607 2.123205 0.000000 
0.534059 2.101128 0.000000 
0.492599 2.079988 0.000000 
0.444403 2.061323 0.000000 
0.762807 2.143521 0.000000 
-1.708694 -0.354113 0.000000 
-1.726386 -0.313850 0.000000 
-1.761257 -0.289829 0.000000 
-1.812853 -0.281981 0.000000 
-0.690422 -0.534316 0.000000 
-0.624256 -0.552244 0.000000 
-0.561079 -0.560425 0.000000 
-0.500739 -0.561881 0.000000 
-0.445387 -0.561943 0.000000 
0.532260 -0.308034 0.000000 
0.536647 -0.238701 0.000000 
-1.881389 -0.269480 0.000000 
-0.389303 -0.559669 0.000000 
-0.340338 -0.544383 0.000000 
-0.344339 -0.490248 0.000000 
-0.358558 -0.437709 0.000000 
-0.381750 -0.396797 0.000000 
-0.406193 -0.362622 0.000000 
-0.417316 -0.331125 0.000000 
-0.428320 -0.296868 0.000000 
-0.436973 -0.252603 0.000000 
-0.444212 -0.197060 0.000000 
-0.452662 -0.138202 0.000000 
-0.468602 -0.081303 0.000000 
0.553166 -0.173986 0.000000 
0.573193 -0.116315 0.000000 
0.574450 -0.064574 0.000000 
0.561087 -0.014254 0.000000 
0.550432 0.041069 0.000000 
0.748903 2.090204 0.000000 
0.730940 2.033711 0.000000 
0.715868 1.987552 0.000000 
0.699446 1.951424 0.000000 
0.684888 1.910434 0.000000 
0.675900 1.864230 0.000000 
0.669871 1.814670 0.000000 
0.664455 1.766813 0.000000 
0.668163 1.720394 0.000000 
0.672091 1.670560 0.000000 
0.674558 1.622537 0.000000 
0.673045 1.572457 0.000000 
0.386491 2.051643 0.000000 
0.664855 1.513719 0.000000 
0.652298 1.455641 0.000000 
0.638456 1.401991 0.000000 
0.623121 1.352481 0.000000 
0.616008 1.309454 0.000000 
0.600787 1.274511 0.000000 
0.571289 1.245063 0.000000 
0.539016 1.213901 0.000000 
0.513857 1.185002 0.000000 
0.493343 1.158767 0.000000 
0.469109 1.140955 0.000000 
0.444920 1.124510 0.000000 
0.415324 1.103544 0.000000 
0.383540 1.078792 0.000000 
0.356179 1.049460 0.000000 
0.343879 1.010560 0.000000 
0.337476 0.965040 0.000000 
0.332404 0.919753 0.000000 
0.328512 0.880063 0.000000 
0.319594 0.843984 0.000000 
0.304149 0.810573 0.000000 
0.290502 0.770182 0.000000 
0.275896 0.722320 0.000000 
0.261905 0.680351 0.000000 
0.250150 0.646755 0.000000 
0.250896 0.608950 0.000000 
0.259587 0.566347 0.000000 
0.284617 0.523574 0.000000 
0.315237 0.493913 0.000000 
0.340022 0.474476 0.000000 
0.354380 0.448627 0.000000 
0.368685 0.421484 0.000000 
0.385568 0.395088 0.000000 
0.415372 0.370291 0.000000 
0.447119 0.338579 0.000000 
0.477633 0.310662 0.000000 
0.503078 0.282726 0.000000 
0.518876 0.244672 0.000000 
0.527127 0.208703 0.000000 
0.534187 0.164158 0.000000 
0.543185 0.103378 0.000000 
0.322519 2.040587 0.000000 
0.263849 2.027470 0.000000 
0.208223 2.022051 0.000000 
0.150441 2.018222 0.000000 
-0.687392 -0.461248 0.000000 
-3.327058 2.065825 0.000000 
-3.276080 2.019403 0.000000 
-3.224941 1.985816 0.000000 
-3.181728 1.956658 0.000000 
-3.135074 1.919728 0.000000 
-3.078123 1.895435 0.000000 
-1.944260 -0.224602 0.000000 
0.083204 2.023378 0.000000 
0.005786 2.018025 0.000000 
-0.071812 2.027263 0.000000 
-0.135705 2.056805 0.000000 
-0.182391 2.098411 0.000000 
-1.999041 -0.153633 0.000000 
-1.843230 -0.428142 0.000000 
-0.491126 -0.017343 0.000000 
-0.512312 0.055900 0.000000 
-0.526535 0.118732 0.000000 
-0.527935 0.180854 0.000000 
-0.524207 0.248024 0.000000 
-0.505864 0.305156 0.000000 
-0.468875 0.354368 0.000000 
-0.410369 0.383613 0.000000 
-0.354013 0.404730 0.000000 
-0.301050 0.414675 0.000000 
-0.255730 0.415448 0.000000 
-0.695595 -0.382953 0.000000 
-0.726457 -0.306072 0.000000 
-0.747352 -0.236616 0.000000 
-3.396487 2.008689 0.000000 
-3.344056 1.929301 0.000000 
-3.294256 1.885901 0.000000 
-3.248246 1.847576 0.000000 
-3.196818 1.808223 0.000000 
-3.159669 1.756912 0.000000 
-3.113281 1.710208 0.000000 
-3.056061 1.690645 0.000000 
-2.996684 1.668020 0.000000 
-2.933161 1.638403 0.000000 
-2.879064 1.602261 0.000000 
-2.813006 1.577475 0.000000 
-2.751664 1.554425 0.000000 
-2.686782 1.525102 0.000000 
-1.922020 -0.425335 0.000000 
-1.999705 -0.426834 0.000000 
-2.060018 -0.405230 0.000000 
-2.032615 -0.070243 0.000000 
-2.048550 0.015479 0.000000 
-2.029059 0.081372 0.000000 
-2.105228 -0.348172 0.000000 
-2.154373 -0.280577 0.000000 
-2.203584 -0.225953 0.000000 
-2.237020 -0.164518 0.000000 
-2.250593 -0.099225 0.000000 
-2.270119 -0.027441 0.000000 
-2.297898 0.042869 0.000000 
-2.327118 0.104449 0.000000 
-2.346747 0.158419 0.000000 
-2.362840 0.211528 0.000000 
-2.374561 0.262573 0.000000 
-2.373128 0.314548 0.000000 
-2.334174 0.381139 0.000000 
-2.331842 0.421757 0.000000 
-2.284565 0.430516 0.000000 
-0.236368 2.147946 0.000000 
-0.299146 2.191773 0.000000 
-0.346614 2.211698 0.000000 
-0.382877 2.175195 0.000000 
-0.412447 2.146145 0.000000 
-0.433989 2.105857 0.000000 
-0.446472 2.062891 0.000000 
-0.451628 2.023573 0.000000 
-0.451047 1.985110 0.000000 
-0.449242 1.949107 0.000000 
-0.453345 1.917217 0.000000 
-0.460251 1.889524 0.000000 
-0.470304 1.860739 0.000000 
-0.475290 1.831249 0.000000 
-0.478341 1.801463 0.000000 
-0.479442 1.764727 0.000000 
-2.609147 1.511313 0.000000 
-2.517189 1.505814 0.000000 
-2.434013 1.506151 0.000000 
-2.352624 1.496119 0.000000 
-2.274410 1.476748 0.000000 
-2.204499 1.442100 0.000000 
-2.180326 1.373217 0.000000 
-2.178559 1.284681 0.000000 
-2.168273 1.194652 0.000000 
-2.159086 1.096588 0.000000 
-2.144575 1.007429 0.000000 
-2.163040 0.932212 0.000000 
-2.183612 0.858120 0.000000 
-2.172907 0.793563 0.000000 
-2.161614 0.730808 0.000000 
-2.169833 0.670696 0.000000 
-2.188987 0.608943 0.000000 
-2.218663 0.557697 0.000000 
-2.229021 0.501824 0.000000 
-2.997130 1.878638 0.000000 
-3.021908 1.780500 0.000000 
-2.902046 1.847131 0.000000 
-0.770600 -0.154023 0.000000 
-0.790096 -0.062364 0.000000 
-0.811857 0.018344 0.000000 
-0.835807 0.096908 0.000000 
-0.859157 0.167036 0.000000 
-0.881226 0.227087 0.000000 
-0.903169 0.286438 0.000000 
-0.928196 0.350482 0.000000 
-2.785442 1.814578 0.000000 
-2.944278 1.753836 0.000000 
-2.855014 1.716690 0.000000 
-2.796189 1.656610 0.000000 
-2.651235 1.799831 0.000000 
-2.517962 1.789484 0.000000 
-2.394240 1.780322 0.000000 
-2.275192 1.772325 0.000000 
-2.180847 1.747764 0.000000 
-2.099904 1.721285 0.000000 
-2.018420 1.690045 0.000000 
-1.945469 1.694342 0.000000 
-1.885190 1.727682 0.000000 
-1.829736 1.748251 0.000000 
-1.760875 1.773482 0.000000 
-1.680504 1.801907 0.000000 
-1.617798 1.820224 0.000000 
-1.570169 1.834747 0.000000 
-1.527149 1.848937 0.000000 
-1.482581 1.861066 0.000000 
-1.433927 1.867607 0.000000 
-1.386311 1.875522 0.000000 
-1.337319 1.884252 0.000000 
-1.286363 1.891332 0.000000 
-1.235962 1.892049 0.000000 
-1.188452 1.896862 0.000000 
-1.140860 1.906313 0.000000 
-1.091558 1.905622 0.000000 
-1.038962 1.894604 0.000000 
-0.982519 1.875606 0.000000 
-0.922315 1.858864 0.000000 
-0.869867 1.848539 0.000000 
-0.827747 1.842049 0.000000 
-0.785371 1.837137 0.000000 
-0.748025 1.827400 0.000000 
-0.712781 1.817133 0.000000 
-0.681690 1.803202 0.000000 
-0.657198 1.792067 0.000000 
-0.633895 1.785404 0.000000 
-0.612002 1.780949 0.000000 
-0.594184 1.773736 0.000000 
-0.577381 1.764286 0.000000 
-0.560109 1.749002 0.000000 
-0.540091 1.716548 0.000000 
-1.243914 0.077702 0.000000 
-1.232782 0.091419 0.000000 
-1.257376 0.063348 0.000000 
-1.224378 0.110119 0.000000 
-1.271472 0.044003 0.000000 
-1.215702 0.132116 0.000000 
-1.204660 0.158172 0.000000 
-1.290143 0.016261 0.000000 
-1.314447 -0.028779 0.000000 
-1.190204 0.188479 0.000000 
-1.318041 -0.082133 0.000000 
-1.171655 0.222635 0.000000 
-1.149359 0.258949 0.000000 
-1.123094 0.297198 0.000000 
-1.284246 -0.132113 0.000000 
-1.239750 -0.182839 0.000000 
-1.083297 0.341189 0.000000 
-1.028190 0.372860 0.000000 
-1.181630 -0.225195 0.000000 
-1.112789 -0.256623 0.000000 
-1.040643 -0.268793 0.000000 
-0.978118 -0.271880 0.000000 
-0.927392 -0.284905 0.000000 
-0.889718 -0.324040 0.000000 
-0.873564 -0.380590 0.000000 
-0.920771 -0.412784 0.000000 
-0.935346 -0.345515 0.000000 
-0.991249 -0.422360 0.000000 
-1.088918 -0.419632 0.000000 
-1.067426 -0.339980 0.000000 
-1.189474 -0.412068 0.000000 
-1.147229 -0.327313 0.000000 
-1.266509 -0.388778 0.000000 
-1.219913 -0.301135 0.000000 
-1.335307 -0.352952 0.000000 
-1.284456 -0.263136 0.000000 
-1.402357 -0.309048 0.000000 
-1.341444 -0.215336 0.000000 
-1.466758 -0.256372 0.000000 
-1.539152 -0.195573 0.000000 
-1.393011 -0.157405 0.000000 
-1.612839 -0.125302 0.000000 
-1.665320 -0.067724 0.000000 
-1.691220 -0.002897 0.000000 
-1.704696 0.082597 0.000000 
-1.850073 0.249466 0.000000 
-1.911042 0.193641 0.000000 
-1.969645 0.136804 0.000000 
-1.726970 0.189008 0.000000 
-0.222881 0.396837 0.000000 
-0.195707 0.369254 0.000000 
-0.164205 0.332307 0.000000 
-0.127520 0.299609 0.000000 
-0.095686 0.270117 0.000000 
-0.059027 0.241639 0.000000 
-0.018954 0.211656 0.000000 
0.030296 0.180385 0.000000 
0.086536 0.159859 0.000000 
0.141893 0.141128 0.000000 
0.202102 0.111848 0.000000 
0.263408 0.071931 0.000000 
0.311661 0.021944 0.000000 
0.333954 -0.037678 0.000000 
0.338621 -0.098129 0.000000 
0.341530 -0.152067 0.000000 
0.353165 -0.202256 0.000000 
0.365710 -0.260678 0.000000 
0.363543 -0.330207 0.000000 
0.357353 -0.392322 0.000000 
0.351188 -0.443064 0.000000 
0.363842 -0.490092 0.000000 
-1.737069 -0.356743 0.000000 
-0.199590 0.449455 0.000000 
-0.156305 0.419538 0.000000 
-0.462327 1.685494 0.000000 
0.741313 2.208069 0.000000 
0.482415 -0.500863 0.000000 
0.446104 -0.508759 0.000000 
0.403556 -0.514413 0.000000 
-0.104001 0.391474 0.000000 
-0.514998 1.617549 0.000000 
-0.059937 0.357069 0.000000 
0.738519 2.182804 0.000000 
0.714572 2.195104 0.000000 
-0.249752 0.476278 0.000000 
-0.036232 0.313270 0.000000 
0.000772 0.285438 0.000000 
0.035161 0.259794 0.000000 
-1.776537 -0.356185 0.000000 
-1.836238 -0.352000 0.000000 
-0.309416 0.490378 0.000000 
-0.378944 0.488114 0.000000 
-2.292732 0.367702 0.000000 
-2.315166 0.317711 0.000000 
-2.314418 0.270154 0.000000 
-2.293418 0.223768 0.000000 
-2.279687 0.173889 0.000000 
-2.253462 0.126623 0.000000 
0.075120 0.232051 0.000000 
0.131113 0.219443 0.000000 
-0.977004 0.421426 0.000000 
-0.860050 0.411261 0.000000 
-1.912142 -0.343944 0.000000 
-1.989966 -0.352724 0.000000 
-2.023752 -0.285182 0.000000 
-2.082175 -0.213921 0.000000 
0.723889 2.151291 0.000000 
0.691466 2.170134 0.000000 
0.665980 2.137487 0.000000 
0.704783 2.110219 0.000000 
0.637970 2.099429 0.000000 
0.681732 2.063010 0.000000 
0.670916 2.016835 0.000000 
0.602858 2.067761 0.000000 
0.659584 1.976411 0.000000 
0.560783 2.041390 0.000000 
0.636111 1.940336 0.000000 
0.607495 1.890546 0.000000 
0.595324 1.827065 0.000000 
0.604052 1.762392 0.000000 
0.514160 2.011987 0.000000 
0.453857 1.984541 0.000000 
0.392525 1.982563 0.000000 
0.334098 1.981035 0.000000 
0.278675 1.962281 0.000000 
0.217273 1.944206 0.000000 
0.149449 1.926850 0.000000 
0.614128 1.710116 0.000000 
0.621313 1.662537 0.000000 
0.624262 1.617657 0.000000 
-2.197766 0.073435 0.000000 
-2.158682 -0.001489 0.000000 
-2.124695 0.132765 0.000000 
-2.150589 -0.167615 0.000000 
-2.141926 -0.090070 0.000000 
-0.393439 -0.506630 0.000000 
-0.412631 -0.462586 0.000000 
-0.436983 -0.421983 0.000000 
-0.445953 -0.378563 0.000000 
-0.458251 -0.345737 0.000000 
-0.479726 -0.310971 0.000000 
-0.496934 -0.262240 0.000000 
-0.509002 -0.207157 0.000000 
-0.517157 -0.152826 0.000000 
-0.545309 -0.101551 0.000000 
-0.442273 -0.504024 0.000000 
-0.496002 -0.494507 0.000000 
-0.557668 -0.496613 0.000000 
-0.618975 -0.481133 0.000000 
-0.334659 2.149885 0.000000 
-0.367985 2.120168 0.000000 
-0.385153 2.083742 0.000000 
-0.396797 2.049875 0.000000 
-0.406285 2.014353 0.000000 
-0.402558 1.975219 0.000000 
-0.406645 1.936776 0.000000 
-0.418378 1.904362 0.000000 
-0.428059 1.875236 0.000000 
-0.435849 1.845689 0.000000 
-0.442335 1.815654 0.000000 
-0.445406 1.782589 0.000000 
-0.444483 1.736873 0.000000 
0.619822 1.571925 0.000000 
-1.077870 0.468490 0.000000 
-1.149036 0.426532 0.000000 
-1.174735 0.351689 0.000000 
-1.192231 0.299966 0.000000 
-1.210811 0.258189 0.000000 
-1.228352 0.218849 0.000000 
-1.238869 0.180869 0.000000 
-1.244643 0.149372 0.000000 
-1.248534 0.124471 0.000000 
-1.252336 0.105183 0.000000 
-1.262323 0.091932 0.000000 
-1.280319 0.081016 0.000000 
-0.451814 0.465454 0.000000 
-0.526928 0.421932 0.000000 
0.194935 0.202451 0.000000 
0.069048 1.912750 0.000000 
-0.574175 0.351248 0.000000 
-0.593607 0.270145 0.000000 
-1.764101 0.309830 0.000000 
-2.210991 0.428686 0.000000 
-0.825996 0.325984 0.000000 
-0.799223 0.254903 0.000000 
-0.760911 0.188470 0.000000 
0.605964 1.520974 0.000000 
0.587834 1.463613 0.000000 
0.576354 1.403765 0.000000 
0.574971 1.348757 0.000000 
0.580375 1.305732 0.000000 
0.545179 1.283348 0.000000 
0.509957 1.251085 0.000000 
0.484198 1.214683 0.000000 
0.468721 1.183529 0.000000 
0.449386 1.164998 0.000000 
0.422962 1.152332 0.000000 
0.391379 1.133181 0.000000 
0.357154 1.109118 0.000000 
0.323730 1.080745 0.000000 
-0.582151 -0.040683 0.000000 
0.265957 0.176021 0.000000 
0.333763 0.129892 0.000000 
0.378371 0.062876 0.000000 
0.400918 -0.011519 0.000000 
0.401084 -0.074508 0.000000 
0.404345 -0.128609 0.000000 
0.432648 -0.179691 0.000000 
0.450030 -0.244132 0.000000 
0.529803 -0.090979 0.000000 
0.491947 -0.139116 0.000000 
0.453243 -0.089232 0.000000 
0.449550 -0.318456 0.000000 
0.498420 -0.045105 0.000000 
0.474171 0.014836 0.000000 
0.457863 0.089409 0.000000 
0.462195 -0.377110 0.000000 
0.478704 -0.423446 0.000000 
0.483460 -0.464412 0.000000 
0.412910 -0.402752 0.000000 
0.398390 -0.441465 0.000000 
0.404290 -0.475753 0.000000 
0.442452 -0.471194 0.000000 
0.436659 -0.436030 0.000000 
-0.727378 0.114337 0.000000 
-0.616071 0.196355 0.000000 
-0.623548 0.122075 0.000000 
-0.605779 0.041067 0.000000 
-0.706340 0.028619 0.000000 
-0.681483 -0.057643 0.000000 
-0.032304 1.907190 0.000000 
-0.128010 1.943339 0.000000 
-0.195732 2.010463 0.000000 
-0.243911 2.064377 0.000000 
-0.287859 2.111780 0.000000 
-0.335518 2.084085 0.000000 
-0.667608 -0.143024 0.000000 
-0.584906 -0.149792 0.000000 
-0.658169 -0.223032 0.000000 
-0.578442 -0.215162 0.000000 
-0.639050 -0.294475 0.000000 
-0.607982 -0.369992 0.000000 
-0.562541 -0.277861 0.000000 
-0.536184 -0.338885 0.000000 
-0.495978 -0.376846 0.000000 
-0.500680 -0.429241 0.000000 
-0.573051 -0.433694 0.000000 
-2.690892 1.680484 0.000000 
-2.684799 1.594471 0.000000 
-2.602920 1.593209 0.000000 
-2.574381 1.678202 0.000000 
-2.518122 1.613076 0.000000 
-2.424460 1.636974 0.000000 
-2.320006 1.628043 0.000000 
-2.229986 1.604425 0.000000 
-2.146342 1.563185 0.000000 
-1.455055 -0.098423 0.000000 
-1.387692 -0.018100 0.000000 
-1.339496 0.035229 0.000000 
-1.304977 0.063788 0.000000 
-1.531301 -0.032930 0.000000 
-1.604385 0.011182 0.000000 
-1.592423 0.111863 0.000000 
-1.608296 0.235826 0.000000 
-1.827918 0.434271 0.000000 
0.477873 0.203074 0.000000 
0.477147 0.237973 0.000000 
0.465631 0.272213 0.000000 
-0.587742 1.716422 0.000000 
-0.593403 1.740526 0.000000 
-0.604579 1.753182 0.000000 
-0.619289 1.758868 0.000000 
-0.639577 1.756695 0.000000 
-0.665912 1.758311 0.000000 
-0.697937 1.765298 0.000000 
-0.595692 1.662934 0.000000 
-0.726123 1.780109 0.000000 
-0.757398 1.790680 0.000000 
-0.794522 1.788104 0.000000 
-0.841416 1.785527 0.000000 
-0.894922 1.786887 0.000000 
-0.956071 1.795303 0.000000 
-1.020951 1.814224 0.000000 
-1.077937 1.841859 0.000000 
-1.120258 1.870587 0.000000 
-1.171769 1.846327 0.000000 
0.332207 0.399718 0.000000 
0.333662 0.357983 0.000000 
0.321472 0.428335 0.000000 
0.302407 0.455147 0.000000 
0.214022 0.469809 0.000000 
0.194081 0.530834 0.000000 
0.186716 0.586347 0.000000 
0.189303 0.639119 0.000000 
0.360023 0.318301 0.000000 
0.405131 0.293168 0.000000 
0.201671 0.688365 0.000000 
0.218038 0.738626 0.000000 
0.236652 0.787559 0.000000 
0.256885 0.829493 0.000000 
0.278373 0.857987 0.000000 
0.284019 0.891385 0.000000 
0.276718 0.938133 0.000000 
0.278735 0.994946 0.000000 
0.296322 1.045213 0.000000 
-1.507867 1.798085 0.000000 
-1.548116 1.773442 0.000000 
-1.598023 1.746063 0.000000 
-1.467251 1.812859 0.000000 
-1.422160 1.820142 0.000000 
-1.373311 1.826858 0.000000 
-1.322903 1.834635 0.000000 
-1.275577 1.843881 0.000000 
-1.225048 1.842481 0.000000 
-1.662214 1.722394 0.000000 
-1.732600 1.702454 0.000000 
-1.794687 1.688079 0.000000 
-1.841773 1.658891 0.000000 
-2.078405 0.726164 0.000000 
-2.079214 0.804753 0.000000 
-2.097651 0.648564 0.000000 
-2.129318 0.576825 0.000000 
-2.096743 0.885315 0.000000 
-2.169699 0.521481 0.000000 
-1.991686 0.448481 0.000000 
-1.642187 0.374037 0.000000 
-1.989898 0.281257 0.000000 
-2.064526 0.209444 0.000000 
-1.914688 0.354791 0.000000 
-2.037969 1.137868 0.000000 
-2.021377 1.022183 0.000000 
-2.055796 1.267029 0.000000 
-2.102728 1.369682 0.000000 
-2.047875 1.511985 0.000000 
0.428030 0.258716 0.000000 
0.375625 0.237480 0.000000 
0.313454 0.250581 0.000000 
0.290352 0.396615 0.000000 
0.238487 1.107533 0.000000 
0.440631 0.220608 0.000000 
0.396678 0.180831 0.000000 
0.460488 0.154911 0.000000 
0.523747 1.331023 0.000000 
-2.262588 0.294277 0.000000 
-2.220468 0.350305 0.000000 
-2.218579 0.240766 0.000000 
-2.146376 0.292616 0.000000 
-2.206503 0.175696 0.000000 
0.473879 1.292411 0.000000 
0.446488 1.240079 0.000000 
0.440978 1.196060 0.000000 
0.409581 1.188205 0.000000 
0.629179 2.017101 0.000000 
0.593839 1.984627 0.000000 
0.550362 1.940423 0.000000 
0.483841 1.900001 0.000000 
0.202470 1.041169 0.000000 
0.241245 0.893393 0.000000 
0.205152 0.868592 0.000000 
0.175878 0.820452 0.000000 
0.153326 0.761945 0.000000 
0.132079 0.701495 0.000000 
0.113278 0.637040 0.000000 
0.106000 0.568716 0.000000 
0.109640 0.499520 0.000000 
0.121648 0.428842 0.000000 
0.032483 0.339228 0.000000 
0.246820 0.421906 0.000000 
0.099619 0.287593 0.000000 
0.373127 1.173323 0.000000 
-0.307911 2.036463 0.000000 
-0.360136 2.017994 0.000000 
-0.343252 1.963648 0.000000 
-0.270247 1.971792 0.000000 
0.168337 0.284111 0.000000 
0.242346 0.273774 0.000000 
0.270369 0.342811 0.000000 
0.505525 1.398784 0.000000 
-0.689828 0.226039 0.000000 
-0.729540 0.283443 0.000000 
-0.746154 0.357916 0.000000 
-0.657668 0.374480 0.000000 
-0.661195 0.290193 0.000000 
-0.924642 0.527155 0.000000 
-1.137284 1.790519 0.000000 
-1.072920 1.745925 0.000000 
-1.248127 1.802816 0.000000 
-1.304069 1.786493 0.000000 
-1.360197 1.778833 0.000000 
-1.411221 1.774694 0.000000 
-1.453165 1.771464 0.000000 
-1.486003 1.754002 0.000000 
-1.510814 1.710533 0.000000 
-1.558800 1.665864 0.000000 
-0.995058 1.719172 0.000000 
-0.919611 1.708696 0.000000 
-0.852227 1.715628 0.000000 
-0.796966 1.732146 0.000000 
-0.752732 1.751315 0.000000 
-1.635591 1.638531 0.000000 
-1.992480 0.913233 0.000000 
-1.965104 0.803453 0.000000 
-1.974377 0.700120 0.000000 
-2.014368 0.606499 0.000000 
-2.065453 0.523312 0.000000 
-2.071492 0.370245 0.000000 
-2.131272 0.453782 0.000000 
-1.712039 1.625208 0.000000 
-1.781280 1.625158 0.000000 
-1.884796 1.595102 0.000000 
0.516332 1.814764 0.000000 
0.538779 1.743636 0.000000 
0.517174 1.473169 0.000000 
0.552532 1.535106 0.000000 
0.576896 1.577032 0.000000 
0.583356 1.614058 0.000000 
0.576083 1.651063 0.000000 
0.562288 1.693423 0.000000 