# vtk DataFile Version 3.0 
vtk output 
ASCII 
DATASET UNSTRUCTURED_GRID 
POINTS 899 float 
-3.648847 2.133741 0.000000 
-3.619410 2.093189 0.000000 
-3.578536 2.057594 0.000000 
-3.540028 2.021943 0.000000 
-3.511690 1.989748 0.000000 
-3.481362 1.959890 0.000000 
-3.451569 1.919216 0.000000 
0.772356 2.036255 0.000000 
0.774615 2.010134 0.000000 
0.769962 1.981380 0.000000 
-3.399514 1.888940 0.000000 
0.413908 -0.757020 0.000000 
0.455629 -0.751738 0.000000 
-1.762620 -0.655798 0.000000 
-1.783390 -0.620401 0.000000 
-1.714438 -0.591612 0.000000 
0.732567 2.030579 0.000000 
0.698438 2.016743 0.000000 
0.491966 -0.737294 0.000000 
0.519626 -0.706904 0.000000 
0.530652 -0.666475 0.000000 
0.532423 -0.620688 0.000000 
0.531815 -0.570200 0.000000 
-3.460923 1.827208 0.000000 
0.663989 1.994797 0.000000 
0.631675 1.967402 0.000000 
0.601833 1.943347 0.000000 
0.569607 1.920089 0.000000 
0.534059 1.898012 0.000000 
0.492599 1.876872 0.000000 
0.444403 1.858207 0.000000 
0.762807 1.940405 0.000000 
-1.708695 -0.557230 0.000000 
-1.726387 -0.516966 0.000000 
-1.761257 -0.492945 0.000000 
-1.812853 -0.485097 0.000000 
-0.692405 -0.736201 0.000000 
-0.625502 -0.754752 0.000000 
-0.561552 -0.765948 0.000000 
-0.500059 -0.768355 0.000000 
-0.443861 -0.768342 0.000000 
0.532267 -0.511138 0.000000 
0.536647 -0.441812 0.000000 
-1.881389 -0.472596 0.000000 
-0.386997 -0.764344 0.000000 
-0.337692 -0.745866 0.000000 
-0.342377 -0.692123 0.000000 
-0.357296 -0.639981 0.000000 
-0.381012 -0.599384 0.000000 
-0.405812 -0.565456 0.000000 
-0.417179 -0.534155 0.000000 
-0.428393 -0.500093 0.000000 
-0.437017 -0.455831 0.000000 
-0.444222 -0.400274 0.000000 
-0.452646 -0.341399 0.000000 
-0.468574 -0.284478 0.000000 
0.553166 -0.377098 0.000000 
0.573193 -0.319429 0.000000 
0.574451 -0.267689 0.000000 
0.561088 -0.217370 0.000000 
0.550433 -0.162047 0.000000 
0.748903 1.887087 0.000000 
0.730940 1.830595 0.000000 
0.715868 1.784436 0.000000 
0.699446 1.748308 0.000000 
0.684888 1.707318 0.000000 
0.675900 1.661114 0.000000 
0.669871 1.611554 0.000000 
0.664455 1.563697 0.000000 
0.668163 1.517278 0.000000 
0.672091 1.467444 0.000000 
0.674558 1.419421 0.000000 
0.673045 1.369341 0.000000 
0.386491 1.848527 0.000000 
0.664855 1.310602 0.000000 
0.652298 1.252525 0.000000 
0.638456 1.198875 0.000000 
0.623121 1.149365 0.000000 
0.616008 1.106338 0.000000 
0.600787 1.071395 0.000000 
0.571289 1.041947 0.000000 
0.539016 1.010785 0.000000 
0.513857 0.981886 0.000000 
0.493343 0.955651 0.000000 
0.469109 0.937839 0.000000 
0.444920 0.921394 0.000000 
0.415324 0.900428 0.000000 
0.383540 0.875676 0.000000 
0.356179 0.846344 0.000000 
0.343879 0.807444 0.000000 
0.337476 0.761924 0.000000 
0.332404 0.716637 0.000000 
0.328512 0.676947 0.000000 
0.319594 0.640868 0.000000 
0.304149 0.607457 0.000000 
0.290502 0.567066 0.000000 
0.275896 0.519204 0.000000 
0.261905 0.477234 0.000000 
0.250150 0.443639 0.000000 
0.250896 0.405834 0.000000 
0.259587 0.363231 0.000000 
0.284617 0.320458 0.000000 
0.315237 0.290797 0.000000 
0.340022 0.271360 0.000000 
0.354380 0.245511 0.000000 
0.368685 0.218368 0.000000 
0.385568 0.191972 0.000000 
0.415372 0.167175 0.000000 
0.447119 0.135463 0.000000 
0.477633 0.107546 0.000000 
0.503078 0.079610 0.000000 
0.518876 0.041556 0.000000 
0.527127 0.005587 0.000000 
0.534187 -0.038958 0.000000 
0.543185 -0.099738 0.000000 
0.322519 1.837471 0.000000 
0.263849 1.824354 0.000000 
0.208223 1.818934 0.000000 
0.150441 1.815106 0.000000 
-0.688720 -0.663536 0.000000 
-3.327058 1.862708 0.000000 
-3.276080 1.816287 0.000000 
-3.224941 1.782700 0.000000 
-3.181728 1.753542 0.000000 
-3.135074 1.716612 0.000000 
-3.078123 1.692319 0.000000 
-1.944260 -0.427718 0.000000 
0.083204 1.820262 0.000000 
0.005786 1.814909 0.000000 
-0.071812 1.824147 0.000000 
-0.135705 1.853689 0.000000 
-0.182391 1.895295 0.000000 
-1.999041 -0.356749 0.000000 
-1.843230 -0.631258 0.000000 
-0.491112 -0.220491 0.000000 
-0.512307 -0.147236 0.000000 
-0.526534 -0.084396 0.000000 
-0.527937 -0.022268 0.000000 
-0.524211 0.044905 0.000000 
-0.505867 0.102037 0.000000 
-0.468877 0.151250 0.000000 
-0.410370 0.180496 0.000000 
-0.354014 0.201613 0.000000 
-0.301050 0.211559 0.000000 
-0.255730 0.212332 0.000000 
-0.696312 -0.585661 0.000000 
-0.726523 -0.509188 0.000000 
-0.747330 -0.439772 0.000000 
-3.396487 1.805573 0.000000 
-3.344056 1.726185 0.000000 
-3.294256 1.682784 0.000000 
-3.248246 1.644460 0.000000 
-3.196818 1.605107 0.000000 
-3.159669 1.553796 0.000000 
-3.113281 1.507092 0.000000 
-3.056061 1.487528 0.000000 
-2.996684 1.464904 0.000000 
-2.933161 1.435287 0.000000 
-2.879064 1.399145 0.000000 
-2.813006 1.374359 0.000000 
-2.751664 1.351309 0.000000 
-2.686782 1.321986 0.000000 
-1.922020 -0.628451 0.000000 
-1.999705 -0.629950 0.000000 
-2.060018 -0.608346 0.000000 
-2.032615 -0.273359 0.000000 
-2.048550 -0.187637 0.000000 
-2.029059 -0.121744 0.000000 
-2.105228 -0.551288 0.000000 
-2.154373 -0.483693 0.000000 
-2.203584 -0.429069 0.000000 
-2.237020 -0.367634 0.000000 
-2.250593 -0.302341 0.000000 
-2.270119 -0.230557 0.000000 
-2.297898 -0.160247 0.000000 
-2.327118 -0.098667 0.000000 
-2.346747 -0.044697 0.000000 
-2.362840 0.008412 0.000000 
-2.374561 0.059457 0.000000 
-2.373128 0.111432 0.000000 
-2.334174 0.178023 0.000000 
-2.331842 0.218641 0.000000 
-2.284565 0.227400 0.000000 
-0.236368 1.944830 0.000000 
-0.299146 1.988657 0.000000 
-0.346614 2.008582 0.000000 
-0.382877 1.972079 0.000000 
-0.412447 1.943029 0.000000 
-0.433989 1.902741 0.000000 
-0.446472 1.859775 0.000000 
-0.451628 1.820457 0.000000 
-0.451047 1.781994 0.000000 
-0.449242 1.745991 0.000000 
-0.453345 1.714101 0.000000 
-0.460251 1.686408 0.000000 
-0.470304 1.657623 0.000000 
-0.475290 1.628133 0.000000 
-0.478341 1.598347 0.000000 
-0.479442 1.561611 0.000000 
-2.609147 1.308197 0.000000 
-2.517189 1.302698 0.000000 
-2.434013 1.303035 0.000000 
-2.352624 1.293003 0.000000 
-2.274410 1.273632 0.000000 
-2.204499 1.238984 0.000000 
-2.180326 1.170101 0.000000 
-2.178559 1.081565 0.000000 
-2.168273 0.991536 0.000000 
-2.159086 0.893472 0.000000 
-2.144575 0.804313 0.000000 
-2.163040 0.729096 0.000000 
-2.183612 0.655004 0.000000 
-2.172907 0.590447 0.000000 
-2.161614 0.527692 0.000000 
-2.169833 0.467580 0.000000 
-2.188987 0.405827 0.000000 
-2.218663 0.354581 0.000000 
-2.229021 0.298708 0.000000 
-2.997130 1.675522 0.000000 
-3.021908 1.577384 0.000000 
-2.902046 1.644015 0.000000 
-0.770592 -0.357152 0.000000 
-0.790093 -0.265470 0.000000 
-0.811857 -0.184758 0.000000 
-0.835808 -0.106197 0.000000 
-0.859158 -0.036075 0.000000 
-0.881225 0.023971 0.000000 
-0.903168 0.083322 0.000000 
-0.928195 0.147366 0.000000 
-2.785442 1.611462 0.000000 
-2.944278 1.550720 0.000000 
-2.855014 1.513574 0.000000 
-2.796189 1.453494 0.000000 
-2.651235 1.596715 0.000000 
-2.517962 1.586368 0.000000 
-2.394240 1.577205 0.000000 
-2.275192 1.569209 0.000000 
-2.180847 1.544648 0.000000 
-2.099904 1.518168 0.000000 
-2.018420 1.486929 0.000000 
-1.945469 1.491226 0.000000 
-1.885190 1.524566 0.000000 
-1.829736 1.545135 0.000000 
-1.760875 1.570366 0.000000 
-1.680504 1.598791 0.000000 
-1.617798 1.617108 0.000000 
-1.570169 1.631631 0.000000 
-1.527149 1.645821 0.000000 
-1.482581 1.657950 0.000000 
-1.433927 1.664491 0.000000 
-1.386311 1.672406 0.000000 
-1.337319 1.681136 0.000000 
-1.286363 1.688216 0.000000 
-1.235962 1.688933 0.000000 
-1.188452 1.693746 0.000000 
-1.140860 1.703197 0.000000 
-1.091558 1.702506 0.000000 
-1.038962 1.691488 0.000000 
-0.982519 1.672490 0.000000 
-0.922315 1.655748 0.000000 
-0.869867 1.645423 0.000000 
-0.827747 1.638933 0.000000 
-0.785371 1.634021 0.000000 
-0.748025 1.624284 0.000000 
-0.712781 1.614017 0.000000 
-0.681690 1.600085 0.000000 
-0.657198 1.588951 0.000000 
-0.633895 1.582288 0.000000 
-0.612002 1.577833 0.000000 
-0.594184 1.570620 0.000000 
-0.577381 1.561170 0.000000 
-0.560109 1.545886 0.000000 
-0.540091 1.513432 0.000000 
-1.243917 -0.125408 0.000000 
-1.232785 -0.111690 0.000000 
-1.257379 -0.139762 0.000000 
-1.224381 -0.092991 0.000000 
-1.271476 -0.159107 0.000000 
-1.215704 -0.070995 0.000000 
-1.204662 -0.044939 0.000000 
-1.290146 -0.186849 0.000000 
-1.314451 -0.231888 0.000000 
-1.190205 -0.014635 0.000000 
-1.318049 -0.285243 0.000000 
-1.171654 0.019519 0.000000 
-1.149359 0.055834 0.000000 
-1.123094 0.094082 0.000000 
-1.284259 -0.335222 0.000000 
-1.239774 -0.385945 0.000000 
-1.083296 0.138073 0.000000 
-1.028190 0.169744 0.000000 
-1.181682 -0.428285 0.000000 
-1.112879 -0.459693 0.000000 
-1.040771 -0.471841 0.000000 
-0.978252 -0.474927 0.000000 
-0.927495 -0.487978 0.000000 
-0.889945 -0.527081 0.000000 
-0.874148 -0.583499 0.000000 
-0.921339 -0.615749 0.000000 
-0.935623 -0.548557 0.000000 
-0.991504 -0.625527 0.000000 
-1.089068 -0.622804 0.000000 
-1.067566 -0.543079 0.000000 
-1.189555 -0.615216 0.000000 
-1.147321 -0.530413 0.000000 
-1.266546 -0.591909 0.000000 
-1.219962 -0.504238 0.000000 
-1.335334 -0.556073 0.000000 
-1.284482 -0.466247 0.000000 
-1.402374 -0.512163 0.000000 
-1.341461 -0.418447 0.000000 
-1.466766 -0.459488 0.000000 
-1.539155 -0.398689 0.000000 
-1.393020 -0.360517 0.000000 
-1.612841 -0.328417 0.000000 
-1.665322 -0.270839 0.000000 
-1.691221 -0.206013 0.000000 
-1.704696 -0.120519 0.000000 
-1.850073 0.046350 0.000000 
-1.911042 -0.009475 0.000000 
-1.969645 -0.066312 0.000000 
-1.726970 -0.014108 0.000000 
-0.222880 0.193721 0.000000 
-0.195706 0.166138 0.000000 
-0.164204 0.129191 0.000000 
-0.127520 0.096493 0.000000 
-0.095686 0.067001 0.000000 
-0.059027 0.038523 0.000000 
-0.018954 0.008539 0.000000 
0.030296 -0.022731 0.000000 
0.086536 -0.043257 0.000000 
0.141893 -0.061988 0.000000 
0.202102 -0.091268 0.000000 
0.263408 -0.131185 0.000000 
0.311661 -0.181171 0.000000 
0.333953 -0.240794 0.000000 
0.338620 -0.301242 0.000000 
0.341529 -0.355179 0.000000 
0.353163 -0.405367 0.000000 
0.365708 -0.463788 0.000000 
[...]
POINT_DATA 899 
VECTORS X_GC float 
-3.648847 2.133741 0.000000 
-3.619410 2.093189 0.000000 
-3.578536 2.057594 0.000000 
-3.540028 2.021943 0.000000 
-3.511690 1.989748 0.000000 
-3.481362 1.959890 0.000000 
-3.451569 1.919216 0.000000 
0.772356 2.036255 0.000000 
0.774615 2.010134 0.000000 
0.769962 1.981380 0.000000 
-3.399514 1.888940 0.000000 
0.413908 -0.757020 0.000000 
0.455629 -0.751738 0.000000 
-1.762620 -0.655798 0.000000 
-1.783390 -0.620401 0.000000 
-1.714438 -0.591612 0.000000 
0.732567 2.030579 0.000000 
0.698438 2.016743 0.000000 
0.491966 -0.737294 0.000000 
0.519626 -0.706904 0.000000 
0.530652 -0.666475 0.000000 
0.532423 -0.620688 0.000000 
0.531815 -0.570200 0.000000 
-3.460923 1.827208 0.000000 
0.663989 1.994797 0.000000 
0.631675 1.967402 0.000000 
0.601833 1.943347 0.000000 
0.569607 1.920089 0.000000 
0.534059 1.898012 0.000000 
0.492599 1.876872 0.000000 
0.444403 1.858207 0.000000 
0.762807 1.940405 0.000000 
-1.708695 -0.557230 0.000000 
-1.726387 -0.516966 0.000000 
-1.761257 -0.492945 0.000000 
-1.812853 -0.485097 0.000000 
-0.692405 -0.736201 0.000000 
-0.625502 -0.754752 0.000000 
-0.561552 -0.765948 0.000000 
-0.500059 -0.768355 0.000000 
-0.443861 -0.768342 0.000000 
0.532267 -0.511138 0.000000 
0.536647 -0.441812 0.000000 
-1.881389 -0.472596 0.000000 
-0.386997 -0.764344 0.000000 
-0.337692 -0.745866 0.000000 
-0.342377 -0.692123 0.000000 
-0.357296 -0.639981 0.000000 
-0.381012 -0.599384 0.000000 
-0.405812 -0.565456 0.000000 
-0.417179 -0.534155 0.000000 
-0.428393 -0.500093 0.000000 
-0.437017 -0.455831 0.000000 
-0.444222 -0.400274 0.000000 
-0.452646 -0.341399 0.000000 
-0.468574 -0.284478 0.000000 
0.553166 -0.377098 0.000000 
0.573193 -0.319429 0.000000 
0.574451 -0.267689 0.000000 
0.561088 -0.217370 0.000000 
0.550433 -0.162047 0.000000 
0.748903 1.887087 0.000000 
0.730940 1.830595 0.000000 
0.715868 1.784436 0.000000 
0.699446 1.748308 0.000000 
0.684888 1.707318 0.000000 
0.675900 1.661114 0.000000 
0.669871 1.611554 0.000000 
0.664455 1.563697 0.000000 
0.668163 1.517278 0.000000 
0.672091 1.467444 0.000000 
0.674558 1.419421 0.000000 
0.673045 1.369341 0.000000 
0.386491 1.848527 0.000000 
0.664855 1.310602 0.000000 
0.652298 1.252525 0.000000 
0.638456 1.198875 0.000000 
0.623121 1.149365 0.000000 
0.616008 1.106338 0.000000 
0.600787 1.071395 0.000000 
0.571289 1.041947 0.000000 
0.539016 1.010785 0.000000 
0.513857 0.981886 0.000000 
0.493343 0.955651 0.000000 
0.469109 0.937839 0.000000 
0.444920 0.921394 0.000000 
0.415324 0.900428 0.000000 
0.383540 0.875676 0.000000 
0.356179 0.846344 0.000000 
0.343879 0.807444 0.000000 
0.337476 0.761924 0.000000 
0.332404 0.716637 0.000000 
0.328512 0.676947 0.000000 
0.319594 0.640868 0.000000 
0.304149 0.607457 0.000000 
0.290502 0.567066 0.000000 
0.275896 0.519204 0.000000 
0.261905 0.477234 0.000000 
0.250150 0.443639 0.000000 
0.250896 0.405834 0.000000 
0.259587 0.363231 0.000000 
0.284617 0.320458 0.000000 
0.315237 0.290797 0.000000 
0.340022 0.271360 0.000000 
0.354380 0.245511 0.000000 
0.368685 0.218368 0.000000 
0.385568 0.191972 0.000000 
0.415372 0.167175 0.000000 
0.447119 0.135463 0.000000 
0.477633 0.107546 0.000000 
0.503078 0.079610 0.000000 
0.518876 0.041556 0.000000 
0.527127 0.005587 0.000000 
0.534187 -0.038958 0.000000 
0.543185 -0.099738 0.000000 
0.322519 1.837471 0.000000 
0.263849 1.824354 0.000000 
0.208223 1.818934 0.000000 
0.150441 1.815106 0.000000 
-0.688720 -0.663536 0.000000 
-3.327058 1.862708 0.000000 
-3.276080 1.816287 0.000000 
-3.224941 1.782700 0.000000 
-3.181728 1.753542 0.000000 
-3.135074 1.716612 0.000000 
-3.078123 1.692319 0.000000 
-1.944260 -0.427718 0.000000 
0.083204 1.820262 0.000000 
0.005786 1.814909 0.000000 
-0.071812 1.824147 0.000000 
-0.135705 1.853689 0.000000 
-0.182391 1.895295 0.000000 
-1.999041 -0.356749 0.000000 
-1.843230 -0.631258 0.000000 
-0.491112 -0.220491 0.000000 
-0.512307 -0.147236 0.000000 
-0.526534 -0.084396 0.000000 
-0.527937 -0.022268 0.000000 
-0.524211 0.044905 0.000000 
-0.505867 0.102037 0.000000 
-0.468877 0.151250 0.000000 
-0.410370 0.180496 0.000000 
-0.354014 0.201613 0.000000 
-0.301050 0.211559 0.000000 
-0.255730 0.212332 0.000000 
-0.696312 -0.585661 0.000000 
-0.726523 -0.509188 0.000000 
-0.747330 -0.439772 0.000000 
-3.396487 1.805573 0.000000 
-3.344056 1.726185 0.000000 
-3.294256 1.682784 0.000000 
-3.248246 1.644460 0.000000 
-3.196818 1.605107 0.000000 
-3.159669 1.553796 0.000000 
-3.113281 1.507092 0.000000 
-3.056061 1.487528 0.000000 
-2.996684 1.464904 0.000000 
-2.933161 1.435287 0.000000 
-2.879064 1.399145 0.000000 
-2.813006 1.374359 0.000000 
-2.751664 1.351309 0.000000 
-2.686782 1.321986 0.000000 
-1.922020 -0.628451 0.000000 
-1.999705 -0.629950 0.000000 
-2.060018 -0.608346 0.000000 
-2.032615 -0.273359 0.000000 
-2.048550 -0.187637 0.000000 
-2.029059 -0.121744 0.000000 
-2.105228 -0.551288 0.000000 
-2.154373 -0.483693 0.000000 
-2.203584 -0.429069 0.000000 
-2.237020 -0.367634 0.000000 
-2.250593 -0.302341 0.000000 
-2.270119 -0.230557 0.000000 
-2.297898 -0.160247 0.000000 
-2.327118 -0.098667 0.000000 
-2.346747 -0.044697 0.000000 
-2.362840 0.008412 0.000000 
-2.374561 0.059457 0.000000 
-2.373128 0.111432 0.000000 
-2.334174 0.178023 0.000000 
-2.331842 0.218641 0.000000 
-2.284565 0.227400 0.000000 
-0.236368 1.944830 0.000000 
-0.299146 1.988657 0.000000 
-0.346614 2.008582 0.000000 
-0.382877 1.972079 0.000000 
-0.412447 1.943029 0.000000 
-0.433989 1.902741 0.000000 
-0.446472 1.859775 0.000000 
-0.451628 1.820457 0.000000 
-0.451047 1.781994 0.000000 
-0.449242 1.745991 0.000000 
-0.453345 1.714101 0.000000 
-0.460251 1.686408 0.000000 
-0.470304 1.657623 0.000000 
-0.475290 1.628133 0.000000 
-0.478341 1.598347 0.000000 
-0.479442 1.561611 0.000000 
-2.609147 1.308197 0.000000 
-2.517189 1.302698 0.000000 
-2.434013 1.303035 0.000000 
-2.352624 1.293003 0.000000 
-2.274410 1.273632 0.000000 
-2.204499 1.238984 0.000000 
-2.180326 1.170101 0.000000 
-2.178559 1.081565 0.000000 
-2.168273 0.991536 0.000000 
-2.159086 0.893472 0.000000 
-2.144575 0.804313 0.000000 
-2.163040 0.729096 0.000000 
-2.183612 0.655004 0.000000 
-2.172907 0.590447 0.000000 
-2.161614 0.527692 0.000000 
-2.169833 0.467580 0.000000 
-2.188987 0.405827 0.000000 
-2.218663 0.354581 0.000000 
-2.229021 0.298708 0.000000 
-2.997130 1.675522 0.000000 
-3.021908 1.577384 0.000000 
-2.902046 1.644015 0.000000 
-0.770592 -0.357152 0.000000 
-0.790093 -0.265470 0.000000 
-0.811857 -0.184758 0.000000 
-0.835808 -0.106197 0.000000 
-0.859158 -0.036075 0.000000 
-0.881225 0.023971 0.000000 
-0.903168 0.083322 0.000000 
-0.928195 0.147366 0.000000 
-2.785442 1.611462 0.000000 
-2.944278 1.550720 0.000000 
-2.855014 1.513574 0.000000 
-2.796189 1.453494 0.000000 
-2.651235 1.596715 0.000000 
-2.517962 1.586368 0.000000 
-2.394240 1.577205 0.000000 
-2.275192 1.569209 0.000000 
-2.180847 1.544648 0.000000 
-2.099904 1.518168 0.000000 
-2.018420 1.486929 0.000000 
-1.945469 1.491226 0.000000 
-1.885190 1.524566 0.000000 
-1.829736 1.545135 0.000000 
-1.760875 1.570366 0.000000 
-1.680504 1.598791 0.000000 
-1.617798 1.617108 0.000000 
-1.570169 1.631631 0.000000 
-1.527149 1.645821 0.000000 
-1.482581 1.657950 0.000000 
-1.433927 1.664491 0.000000 
-1.386311 1.672406 0.000000 
-1.337319 1.681136 0.000000 
-1.286363 1.688216 0.000000 
-1.235962 1.688933 0.000000 
-1.188452 1.693746 0.000000 
-1.140860 1.703197 0.000000 
-1.091558 1.702506 0.000000 
-1.038962 1.691488 0.000000 
-0.982519 1.672490 0.000000 
-0.922315 1.655748 0.000000 
-0.869867 1.645423 0.000000 
-0.827747 1.638933 0.000000 
-0.785371 1.634021 0.000000 
-0.748025 1.624284 0.000000 
-0.712781 1.614017 0.000000 
-0.681690 1.600085 0.000000 
-0.657198 1.588951 0.000000 
-0.633895 1.582288 0.000000 
-0.612002 1.577833 0.000000 
-0.594184 1.570620 0.000000 
-0.577381 1.561170 0.000000 
-0.560109 1.545886 0.000000 
-0.540091 1.513432 0.000000 
-1.243917 -0.125408 0.000000 
-1.232785 -0.111690 0.000000 
-1.257379 -0.139762 0.000000 
-1.224381 -0.092991 0.000000 
-1.271476 -0.159107 0.000000 
-1.215704 -0.070995 0.000000 
-1.204662 -0.044939 0.000000 
-1.290146 -0.186849 0.000000 
-1.314451 -0.231888 0.000000 
-1.190205 -0.014635 0.000000 
-1.318049 -0.285243 0.000000 
-1.171654 0.019519 0.000000 
-1.149359 0.055834 0.000000 
-1.123094 0.094082 0.000000 
-1.284259 -0.335222 0.000000 
-1.239774 -0.385945 0.000000 
-1.083296 0.138073 0.000000 
-1.028190 0.169744 0.000000 
-1.181682 -0.428285 0.000000 
-1.112879 -0.459693 0.000000 
-1.040771 -0.471841 0.000000 
-0.978252 -0.474927 0.000000 
-0.927495 -0.487978 0.000000 
-0.889945 -0.527081 0.000000 
-0.874148 -0.583499 0.000000 
-0.921339 -0.615749 0.000000 
-0.935623 -0.548557 0.000000 
-0.991504 -0.625527 0.000000 
-1.089068 -0.622804 0.000000 
-1.067566 -0.543079 0.000000 
-1.189555 -0.615216 0.000000 
-1.147321 -0.530413 0.000000 
-1.266546 -0.591909 0.000000 
-1.219962 -0.504238 0.000000 
-1.335334 -0.556073 0.000000 
-1.284482 -0.466247 0.000000 
-1.402374 -0.512163 0.000000 
-1.341461 -0.418447 0.000000 
-1.466766 -0.459488 0.000000 
-1.539155 -0.398689 0.000000 
-1.393020 -0.360517 0.000000 
-1.612841 -0.328417 0.000000 
-1.665322 -0.270839 0.000000 
-1.691221 -0.206013 0.000000 
-1.704696 -0.120519 0.000000 
-1.850073 0.046350 0.000000 
-1.911042 -0.009475 0.000000 
-1.969645 -0.066312 0.000000 
-1.726970 -0.014108 0.000000 
-0.222880 0.193721 0.000000 
-0.195706 0.166138 0.000000 
-0.164204 0.129191 0.000000 
-0.127520 0.096493 0.000000 
-0.095686 0.067001 0.000000 
-0.059027 0.038523 0.000000 
-0.018954 0.008539 0.000000 
0.030296 -0.022731 0.000000 
0.086536 -0.043257 0.000000 
0.141893 -0.061988 0.000000 
0.202102 -0.091268 0.000000 
0.263408 -0.131185 0.000000 
0.311661 -0.181171 0.000000 
0.333953 -0.240794 0.000000 
0.338620 -0.301242 0.000000 
0.341529 -0.355179 0.000000 
0.353163 -0.405367 0.000000 
0.365708 -0.463788 0.000000 
0.363516 -0.533301 0.000000 
0.357278 -0.595392 0.000000 
0.351066 -0.646114 0.000000 
0.363707 -0.693124 0.000000 
-1.737069 -0.559860 0.000000 
-0.199590 0.246338 0.000000 
-0.156305 0.216422 0.000000 
-0.462327 1.482378 0.000000 
0.741313 2.004953 0.000000 
0.482512 -0.703890 0.000000 
0.446129 -0.711783 0.000000 
0.403489 -0.717435 0.000000 
-0.104001 0.188357 0.000000 
-0.514998 1.414433 0.000000 
-0.059937 0.153953 0.000000 
0.738519 1.979688 0.000000 
0.714572 1.991988 0.000000 
-0.249752 0.273162 0.000000 
-0.036232 0.110154 0.000000 
0.000772 0.082322 0.000000 
0.035161 0.056677 0.000000 
-1.776537 -0.559301 0.000000 
-1.836238 -0.555116 0.000000 
-0.309416 0.287262 0.000000 
-0.378944 0.284998 0.000000 
-2.292732 0.164586 0.000000 
-2.315166 0.114595 0.000000 
-2.314418 0.067038 0.000000 
-2.293418 0.020652 0.000000 
-2.279687 -0.029227 0.000000 
-2.253462 -0.076493 0.000000 
0.075120 0.028935 0.000000 
0.131113 0.016327 0.000000 
-0.977004 0.218310 0.000000 
-0.860050 0.208145 0.000000 
-1.912142 -0.547060 0.000000 
-1.989966 -0.555840 0.000000 
-2.023752 -0.488298 0.000000 
-2.082175 -0.417037 0.000000 
0.723889 1.948175 0.000000 
0.691466 1.967017 0.000000 
0.665980 1.934371 0.000000 
0.704783 1.907103 0.000000 
0.637970 1.896313 0.000000 
0.681732 1.859894 0.000000 
0.670916 1.813719 0.000000 
0.602858 1.864645 0.000000 
0.659584 1.773295 0.000000 
0.560783 1.838274 0.000000 
0.636111 1.737220 0.000000 
0.607495 1.687430 0.000000 
0.595324 1.623949 0.000000 
0.604052 1.559276 0.000000 
0.514160 1.808870 0.000000 
0.453857 1.781425 0.000000 
0.392525 1.779447 0.000000 
0.334098 1.777918 0.000000 
0.278675 1.759165 0.000000 
0.217273 1.741090 0.000000 
0.149449 1.723734 0.000000 
0.614128 1.507000 0.000000 
0.621313 1.459421 0.000000 
0.624262 1.414541 0.000000 
-2.197766 -0.129681 0.000000 
-2.158682 -0.204605 0.000000 
-2.124695 -0.070351 0.000000 
-2.150589 -0.370731 0.000000 
-2.141926 -0.293186 0.000000 
-0.391786 -0.708555 0.000000 
-0.411506 -0.664837 0.000000 
-0.436289 -0.624524 0.000000 
-0.445543 -0.581358 0.000000 
-0.458027 -0.548721 0.000000 
-0.479632 -0.514145 0.000000 
-0.496858 -0.465476 0.000000 
-0.508939 -0.410369 0.000000 
-0.517112 -0.356015 0.000000 
-0.545282 -0.304715 0.000000 
-0.441133 -0.706127 0.000000 
-0.495426 -0.696832 0.000000 
-0.557792 -0.698871 0.000000 
-0.619738 -0.683393 0.000000 
-0.334659 1.946769 0.000000 
-0.367985 1.917052 0.000000 
-0.385153 1.880626 0.000000 
-0.396797 1.846759 0.000000 
-0.406285 1.811237 0.000000 
-0.402558 1.772103 0.000000 
-0.406645 1.733660 0.000000 
-0.418378 1.701246 0.000000 
-0.428059 1.672120 0.000000 
-0.435849 1.642573 0.000000 
-0.442335 1.612538 0.000000 
-0.445406 1.579473 0.000000 
-0.444483 1.533757 0.000000 
0.619822 1.368809 0.000000 
-1.077870 0.265374 0.000000 
-1.149036 0.223416 0.000000 
-1.174734 0.148573 0.000000 
-1.192231 0.096850 0.000000 
-1.210811 0.055074 0.000000 
-1.228352 0.015734 0.000000 
-1.238869 -0.022244 0.000000 
-1.244644 -0.053741 0.000000 
-1.248536 -0.078641 0.000000 
-1.252338 -0.097928 0.000000 
-1.262325 -0.111180 0.000000 
-1.280321 -0.122096 0.000000 
-0.451814 0.262337 0.000000 
-0.526929 0.218815 0.000000 
0.194935 -0.000665 0.000000 
0.069048 1.709634 0.000000 
-0.574176 0.148130 0.000000 
-0.593609 0.067027 0.000000 
-1.764101 0.106714 0.000000 
-2.210991 0.225570 0.000000 
-0.825995 0.122868 0.000000 
-0.799222 0.051787 0.000000 
-0.760909 -0.014646 0.000000 
0.605964 1.317858 0.000000 
0.587834 1.260497 0.000000 
0.576354 1.200649 0.000000 
0.574971 1.145640 0.000000 
0.580375 1.102616 0.000000 
0.545179 1.080232 0.000000 
0.509957 1.047969 0.000000 
0.484198 1.011567 0.000000 
0.468721 0.980413 0.000000 
0.449386 0.961881 0.000000 
0.422962 0.949216 0.000000 
0.391379 0.930065 0.000000 
0.357154 0.906002 0.000000 
0.323730 0.877629 0.000000 
-0.582141 -0.243819 0.000000 
0.265957 -0.027095 0.000000 
0.333763 -0.073224 0.000000 
0.378371 -0.140240 0.000000 
0.400918 -0.214635 0.000000 
0.401084 -0.277623 0.000000 
0.404344 -0.331722 0.000000 
0.432647 -0.382803 0.000000 
0.450029 -0.447242 0.000000 
0.529803 -0.294093 0.000000 
0.491947 -0.342229 0.000000 
0.453243 -0.292347 0.000000 
0.449553 -0.521555 0.000000 
0.498420 -0.248221 0.000000 
0.474171 -0.188279 0.000000 
0.457863 -0.113706 0.000000 
0.462217 -0.580186 0.000000 
0.478760 -0.626504 0.000000 
0.483542 -0.667454 0.000000 
0.412887 -0.605818 0.000000 
0.398338 -0.644516 0.000000 
0.404236 -0.678790 0.000000 
0.442466 -0.674233 0.000000 
0.436662 -0.639083 0.000000 
-0.727374 -0.088779 0.000000 
-0.616072 -0.006764 0.000000 
-0.623545 -0.081048 0.000000 
-0.605772 -0.162061 0.000000 
-0.706333 -0.174499 0.000000 
-0.681470 -0.260769 0.000000 
-0.032304 1.704073 0.000000 
-0.128010 1.740223 0.000000 
-0.195732 1.807347 0.000000 
-0.243911 1.861261 0.000000 
-0.287859 1.908664 0.000000 
-0.335518 1.880969 0.000000 
-0.667583 -0.346176 0.000000 
-0.584870 -0.352964 0.000000 
-0.658131 -0.426209 0.000000 
-0.578389 -0.418359 0.000000 
-0.638999 -0.497674 0.000000 
-0.608199 -0.572830 0.000000 
-0.562470 -0.481084 0.000000 
-0.536090 -0.541919 0.000000 
-0.495694 -0.579720 0.000000 
-0.500293 -0.631879 0.000000 
-0.573234 -0.636242 0.000000 
-2.690892 1.477368 0.000000 
-2.684799 1.391355 0.000000 
-2.602920 1.390093 0.000000 
-2.574381 1.475086 0.000000 
-2.518122 1.409960 0.000000 
-2.424460 1.433858 0.000000 
-2.320006 1.424927 0.000000 
-2.229986 1.401309 0.000000 
-2.146342 1.360069 0.000000 
-1.455059 -0.301537 0.000000 
-1.387696 -0.221211 0.000000 
-1.339499 -0.167883 0.000000 
-1.304980 -0.139323 0.000000 
-1.531303 -0.236045 0.000000 
-1.604386 -0.191933 0.000000 
-1.592424 -0.091253 0.000000 
-1.608296 0.032710 0.000000 
-1.827918 0.231155 0.000000 
0.477873 -0.000042 0.000000 
0.477147 0.034857 0.000000 
0.465631 0.069097 0.000000 
-0.587742 1.513306 0.000000 
-0.593403 1.537410 0.000000 
-0.604579 1.550066 0.000000 
-0.619289 1.555752 0.000000 
-0.639577 1.553579 0.000000 
-0.665912 1.555195 0.000000 
-0.697937 1.562182 0.000000 
-0.595692 1.459818 0.000000 
-0.726123 1.576993 0.000000 
-0.757398 1.587564 0.000000 
-0.794522 1.584988 0.000000 
-0.841416 1.582410 0.000000 
-0.894922 1.583771 0.000000 
-0.956071 1.592187 0.000000 
-1.020951 1.611108 0.000000 
-1.077937 1.638743 0.000000 
-1.120258 1.667471 0.000000 
-1.171769 1.643211 0.000000 
0.332207 0.196602 0.000000 
0.333662 0.154867 0.000000 
0.321472 0.225219 0.000000 
0.302407 0.252031 0.000000 
0.214022 0.266693 0.000000 
0.194081 0.327718 0.000000 
0.186716 0.383231 0.000000 
0.189303 0.436003 0.000000 
0.360023 0.115185 0.000000 
0.405131 0.090052 0.000000 
0.201671 0.485249 0.000000 
0.218038 0.535510 0.000000 
0.236652 0.584443 0.000000 
0.256885 0.626377 0.000000 
0.278373 0.654871 0.000000 
0.284019 0.688269 0.000000 
0.276718 0.735017 0.000000 
0.278735 0.791830 0.000000 
0.296322 0.842097 0.000000 
-1.507867 1.594969 0.000000 
-1.548116 1.570326 0.000000 
-1.598023 1.542947 0.000000 
-1.467251 1.609742 0.000000 
-1.422160 1.617026 0.000000 
-1.373311 1.623742 0.000000 
-1.322903 1.631519 0.000000 
-1.275577 1.640765 0.000000 
-1.225048 1.639365 0.000000 
-1.662214 1.519278 0.000000 
-1.732600 1.499338 0.000000 
-1.794687 1.484962 0.000000 
-1.841773 1.455775 0.000000 
-2.078405 0.523048 0.000000 
-2.079214 0.601637 0.000000 
-2.097651 0.445448 0.000000 
-2.129318 0.373709 0.000000 
-2.096743 0.682199 0.000000 
-2.169699 0.318365 0.000000 
-1.991686 0.245365 0.000000 
-1.642187 0.170921 0.000000 
-1.989898 0.078140 0.000000 
-2.064526 0.006328 0.000000 
-1.914688 0.151675 0.000000 
-2.037969 0.934752 0.000000 
-2.021377 0.819067 0.000000 
-2.055796 1.063913 0.000000 
-2.102728 1.166566 0.000000 
-2.047875 1.308869 0.000000 
0.428030 0.055600 0.000000 
0.375625 0.034364 0.000000 
0.313454 0.047464 0.000000 
0.290352 0.193499 0.000000 
0.238487 0.904417 0.000000 
0.440631 0.017492 0.000000 
0.396678 -0.022285 0.000000 
0.460488 -0.048205 0.000000 
0.523747 1.127907 0.000000 
-2.262588 0.091161 0.000000 
-2.220468 0.147189 0.000000 
-2.218579 0.037650 0.000000 
-2.146376 0.089500 0.000000 
-2.206503 -0.027420 0.000000 
0.473879 1.089295 0.000000 
0.446488 1.036963 0.000000 
0.440978 0.992944 0.000000 
0.409581 0.985089 0.000000 
0.629179 1.813985 0.000000 
0.593839 1.781511 0.000000 
0.550362 1.737307 0.000000 
0.483841 1.696885 0.000000 
0.202470 0.838052 0.000000 
0.241245 0.690277 0.000000 
0.205152 0.665476 0.000000 
0.175878 0.617336 0.000000 
0.153326 0.558829 0.000000 
0.132079 0.498379 0.000000 
0.113278 0.433923 0.000000 
0.106000 0.365600 0.000000 
0.109640 0.296404 0.000000 
0.121648 0.225726 0.000000 
0.032483 0.136111 0.000000 
0.246820 0.218790 0.000000 
0.099619 0.084477 0.000000 
0.373127 0.970207 0.000000 
-0.307911 1.833347 0.000000 
-0.360136 1.814878 0.000000 
-0.343252 1.760532 0.000000 
-0.270247 1.768676 0.000000 
0.168337 0.080995 0.000000 
0.242346 0.070658 0.000000 
0.270369 0.139695 0.000000 
0.505525 1.195668 0.000000 
-0.689828 0.022922 0.000000 
-0.729539 0.080326 0.000000 
-0.746153 0.154799 0.000000 
-0.657668 0.171363 0.000000 
-0.661196 0.087076 0.000000 
-0.924642 0.324040 0.000000 
-1.137284 1.587403 0.000000 
-1.072920 1.542809 0.000000 
-1.248127 1.599700 0.000000 
-1.304069 1.583377 0.000000 
-1.360197 1.575717 0.000000 
-1.411221 1.571578 0.000000 
-1.453165 1.568348 0.000000 
-1.486003 1.550886 0.000000 
-1.510814 1.507417 0.000000 
-1.558800 1.462748 0.000000 
-0.995058 1.516056 0.000000 
-0.919611 1.505579 0.000000 
-0.852227 1.512512 0.000000 
-0.796966 1.529030 0.000000 
-0.752732 1.548199 0.000000 
-1.635591 1.435415 0.000000 
-1.992480 0.710116 0.000000 
-1.965104 0.600337 0.000000 
-1.974377 0.497004 0.000000 
-2.014368 0.403383 0.000000 
-2.065453 0.320196 0.000000 
-2.071492 0.167129 0.000000 
-2.131272 0.250666 0.000000 
-1.712039 1.422092 0.000000 
-1.781280 1.422042 0.000000 
-1.884796 1.391986 0.000000 
0.516332 1.611648 0.000000 
0.538779 1.540520 0.000000 
0.517174 1.270053 0.000000 
0.552532 1.331990 0.000000 
0.576896 1.373916 0.000000 
0.583356 1.410942 0.000000 