# vtk DataFile Version 3.0 
vtk output 
ASCII 
DATASET UNSTRUCTURED_GRID 
POINTS 899 float 
-3.648847 2.164427 0.000000 
-3.619410 2.123875 0.000000 
-3.578536 2.088280 0.000000 
-3.540028 2.052629 0.000000 
-3.511690 2.020434 0.000000 
-3.481362 1.990575 0.000000 
-3.451569 1.949902 0.000000 
0.772356 2.066941 0.000000 
0.774615 2.040820 0.000000 
0.769962 2.012065 0.000000 
-3.399514 1.919626 0.000000 
0.413960 -0.725216 0.000000 
0.455573 -0.720913 0.000000 
-1.762619 -0.625112 0.000000 
-1.783389 -0.589715 0.000000 
-1.714437 -0.560926 0.000000 
0.732567 2.061265 0.000000 
0.698438 2.047429 0.000000 
0.491831 -0.706711 0.000000 
0.519501 -0.676305 0.000000 
0.530556 -0.635859 0.000000 
0.532354 -0.590055 0.000000 
0.531774 -0.539548 0.000000 
-3.460923 1.857893 0.000000 
0.663989 2.025483 0.000000 
0.631675 1.998088 0.000000 
0.601833 1.974032 0.000000 
0.569607 1.950775 0.000000 
0.534059 1.928697 0.000000 
0.492599 1.907558 0.000000 
0.444403 1.888893 0.000000 
0.762807 1.971091 0.000000 
-1.708694 -0.526544 0.000000 
-1.726386 -0.486280 0.000000 
-1.761257 -0.462259 0.000000 
-1.812853 -0.454411 0.000000 
-0.690422 -0.706746 0.000000 
-0.624256 -0.724674 0.000000 
-0.561079 -0.732856 0.000000 
-0.500739 -0.734311 0.000000 
-0.445387 -0.734373 0.000000 
0.532260 -0.480464 0.000000 
0.536647 -0.411131 0.000000 
-1.881389 -0.441910 0.000000 
-0.389303 -0.732099 0.000000 
-0.340338 -0.716814 0.000000 
-0.344339 -0.662679 0.000000 
-0.358558 -0.610139 0.000000 
-0.381750 -0.569228 0.000000 
-0.406193 -0.535053 0.000000 
-0.417316 -0.503555 0.000000 
-0.428320 -0.469298 0.000000 
-0.436973 -0.425034 0.000000 
-0.444212 -0.369491 0.000000 
-0.452662 -0.310633 0.000000 
-0.468602 -0.253733 0.000000 
0.553166 -0.346416 0.000000 
0.573193 -0.288745 0.000000 
0.574450 -0.237005 0.000000 
0.561087 -0.186685 0.000000 
0.550432 -0.131362 0.000000 
0.748903 1.917773 0.000000 
0.730940 1.861281 0.000000 
0.715868 1.815122 0.000000 
0.699446 1.778994 0.000000 
0.684888 1.738004 0.000000 
0.675900 1.691800 0.000000 
0.669871 1.642240 0.000000 
0.664455 1.594383 0.000000 
0.668163 1.547963 0.000000 
0.672091 1.498130 0.000000 
0.674558 1.450106 0.000000 
0.673045 1.400027 0.000000 
0.386491 1.879212 0.000000 
0.664855 1.341288 0.000000 
0.652298 1.283210 0.000000 
0.638456 1.229561 0.000000 
0.623121 1.180050 0.000000 
0.616008 1.137023 0.000000 
0.600787 1.102081 0.000000 
0.571289 1.072632 0.000000 
0.539016 1.041471 0.000000 
0.513857 1.012572 0.000000 
0.493343 0.986337 0.000000 
0.469109 0.968524 0.000000 
0.444920 0.952080 0.000000 
0.415324 0.931114 0.000000 
0.383540 0.906362 0.000000 
0.356179 0.877029 0.000000 
0.343879 0.838130 0.000000 
0.337476 0.792609 0.000000 
0.332404 0.747323 0.000000 
0.328512 0.707633 0.000000 
0.319594 0.671554 0.000000 
0.304149 0.638143 0.000000 
0.290502 0.597752 0.000000 
0.275896 0.549889 0.000000 
0.261905 0.507920 0.000000 
0.250150 0.474325 0.000000 
0.250896 0.436520 0.000000 
0.259587 0.393917 0.000000 
0.284617 0.351144 0.000000 
0.315237 0.321482 0.000000 
0.340022 0.302046 0.000000 
0.354380 0.276197 0.000000 
0.368685 0.249054 0.000000 
0.385568 0.222658 0.000000 
0.415372 0.197861 0.000000 
0.447119 0.166148 0.000000 
0.477633 0.138232 0.000000 
0.503078 0.110295 0.000000 
0.518876 0.072241 0.000000 
0.527127 0.036273 0.000000 
0.534187 -0.008273 0.000000 
0.543185 -0.069053 0.000000 
0.322519 1.868157 0.000000 
0.263849 1.855040 0.000000 
0.208223 1.849620 0.000000 
0.150441 1.845791 0.000000 
-0.687392 -0.633679 0.000000 
-3.327058 1.893394 0.000000 
-3.276080 1.846973 0.000000 
-3.224941 1.813386 0.000000 
-3.181728 1.784228 0.000000 
-3.135074 1.747298 0.000000 
-3.078123 1.723005 0.000000 
-1.944260 -0.397032 0.000000 
0.083204 1.850948 0.000000 
0.005786 1.845595 0.000000 
-0.071812 1.854833 0.000000 
-0.135705 1.884375 0.000000 
-0.182391 1.925980 0.000000 
-1.999041 -0.326063 0.000000 
-1.843230 -0.600572 0.000000 
-0.491126 -0.189774 0.000000 
-0.512312 -0.116531 0.000000 
-0.526535 -0.053698 0.000000 
-0.527935 0.008424 0.000000 
-0.524207 0.075593 0.000000 
-0.505864 0.132725 0.000000 
-0.468875 0.181937 0.000000 
-0.410369 0.211182 0.000000 
-0.354013 0.232299 0.000000 
-0.301050 0.242245 0.000000 
-0.255730 0.243018 0.000000 
-0.695595 -0.555384 0.000000 
-0.726457 -0.478502 0.000000 
-0.747352 -0.409047 0.000000 
-3.396487 1.836259 0.000000 
-3.344056 1.756871 0.000000 
-3.294256 1.713470 0.000000 
-3.248246 1.675146 0.000000 
-3.196818 1.635792 0.000000 
-3.159669 1.584482 0.000000 
-3.113281 1.537777 0.000000 
-3.056061 1.518214 0.000000 
-2.996684 1.495589 0.000000 
-2.933161 1.465973 0.000000 
-2.879064 1.429830 0.000000 
-2.813006 1.405045 0.000000 
-2.751664 1.381995 0.000000 
-2.686782 1.352672 0.000000 
-1.922020 -0.597765 0.000000 
-1.999705 -0.599264 0.000000 
-2.060018 -0.577660 0.000000 
-2.032615 -0.242673 0.000000 
-2.048550 -0.156951 0.000000 
-2.029059 -0.091058 0.000000 
-2.105228 -0.520602 0.000000 
-2.154373 -0.453007 0.000000 
-2.203584 -0.398384 0.000000 
-2.237020 -0.336948 0.000000 
-2.250593 -0.271656 0.000000 
-2.270119 -0.199872 0.000000 
-2.297898 -0.129561 0.000000 
-2.327118 -0.067981 0.000000 
-2.346747 -0.014011 0.000000 
-2.362840 0.039098 0.000000 
-2.374561 0.090143 0.000000 
-2.373128 0.142118 0.000000 
-2.334174 0.208708 0.000000 
-2.331842 0.249327 0.000000 
-2.284565 0.258085 0.000000 
-0.236368 1.975516 0.000000 
-0.299146 2.019342 0.000000 
-0.346614 2.039268 0.000000 
-0.382877 2.002764 0.000000 
-0.412447 1.973715 0.000000 
-0.433989 1.933427 0.000000 
-0.446472 1.890461 0.000000 
-0.451628 1.851143 0.000000 
-0.451047 1.812680 0.000000 
-0.449242 1.776677 0.000000 
-0.453345 1.744787 0.000000 
-0.460251 1.717094 0.000000 
-0.470304 1.688309 0.000000 
-0.475290 1.658819 0.000000 
-0.478341 1.629033 0.000000 
-0.479442 1.592297 0.000000 
-2.609147 1.338882 0.000000 
-2.517189 1.333384 0.000000 
-2.434013 1.333721 0.000000 
-2.352624 1.323689 0.000000 
-2.274410 1.304318 0.000000 
-2.204499 1.269670 0.000000 
-2.180326 1.200787 0.000000 
-2.178559 1.112251 0.000000 
-2.168273 1.022222 0.000000 
-2.159086 0.924158 0.000000 
-2.144575 0.834999 0.000000 
-2.163040 0.759782 0.000000 
-2.183612 0.685690 0.000000 
-2.172907 0.621133 0.000000 
-2.161614 0.558378 0.000000 
-2.169833 0.498266 0.000000 
-2.188987 0.436512 0.000000 
-2.218663 0.385267 0.000000 
-2.229021 0.329393 0.000000 
-2.997130 1.706208 0.000000 
-3.021908 1.608070 0.000000 
-2.902046 1.674700 0.000000 
-0.770600 -0.326453 0.000000 
-0.790096 -0.234794 0.000000 
-0.811857 -0.154086 0.000000 
-0.835807 -0.075522 0.000000 
-0.859157 -0.005395 0.000000 
-0.881226 0.054657 0.000000 
-0.903169 0.114007 0.000000 
-0.928196 0.178052 0.000000 
-2.785442 1.642147 0.000000 
-2.944278 1.581405 0.000000 
-2.855014 1.544259 0.000000 
-2.796189 1.484179 0.000000 
-2.651235 1.627401 0.000000 
-2.517962 1.617054 0.000000 
-2.394240 1.607891 0.000000 
-2.275192 1.599895 0.000000 
-2.180847 1.575334 0.000000 
-2.099904 1.548854 0.000000 
-2.018420 1.517614 0.000000 
-1.945469 1.521912 0.000000 
-1.885190 1.555252 0.000000 
-1.829736 1.575820 0.000000 
-1.760875 1.601052 0.000000 
-1.680504 1.629476 0.000000 
-1.617798 1.647793 0.000000 
-1.570169 1.662317 0.000000 
-1.527149 1.676507 0.000000 
-1.482581 1.688636 0.000000 
-1.433927 1.695176 0.000000 
-1.386311 1.703091 0.000000 
-1.337319 1.711822 0.000000 
-1.286363 1.718901 0.000000 
-1.235962 1.719619 0.000000 
-1.188452 1.724432 0.000000 
-1.140860 1.733883 0.000000 
-1.091558 1.733192 0.000000 
-1.038962 1.722173 0.000000 
-0.982519 1.703175 0.000000 
-0.922315 1.686433 0.000000 
-0.869867 1.676109 0.000000 
-0.827747 1.669619 0.000000 
-0.785371 1.664707 0.000000 
-0.748025 1.654970 0.000000 
-0.712781 1.644703 0.000000 
-0.681690 1.630771 0.000000 
-0.657198 1.619637 0.000000 
-0.633895 1.612974 0.000000 
-0.612002 1.608518 0.000000 
-0.594184 1.601305 0.000000 
-0.577381 1.591855 0.000000 
-0.560109 1.576572 0.000000 
-0.540091 1.544118 0.000000 
-1.243914 -0.094728 0.000000 
-1.232782 -0.081011 0.000000 
-1.257376 -0.109082 0.000000 
-1.224378 -0.062312 0.000000 
-1.271472 -0.128427 0.000000 
-1.215702 -0.040315 0.000000 
-1.204660 -0.014258 0.000000 
-1.290143 -0.156169 0.000000 
-1.314447 -0.201209 0.000000 
-1.190204 0.016048 0.000000 
-1.318041 -0.254563 0.000000 
-1.171655 0.050204 0.000000 
-1.149359 0.086519 0.000000 
-1.123094 0.124767 0.000000 
-1.284246 -0.304543 0.000000 
-1.239750 -0.355269 0.000000 
-1.083297 0.168759 0.000000 
-1.028190 0.200430 0.000000 
-1.181630 -0.397626 0.000000 
-1.112789 -0.429053 0.000000 
-1.040643 -0.441223 0.000000 
-0.978118 -0.444310 0.000000 
-0.927392 -0.457336 0.000000 
-0.889718 -0.496470 0.000000 
-0.873564 -0.553020 0.000000 
-0.920771 -0.585214 0.000000 
-0.935346 -0.517946 0.000000 
-0.991249 -0.594790 0.000000 
-1.088918 -0.592062 0.000000 
-1.067426 -0.512410 0.000000 
-1.189474 -0.584499 0.000000 
-1.147229 -0.499743 0.000000 
-1.266509 -0.561209 0.000000 
-1.219913 -0.473566 0.000000 
-1.335307 -0.525382 0.000000 
-1.284456 -0.435566 0.000000 
-1.402357 -0.481478 0.000000 
-1.341444 -0.387766 0.000000 
-1.466758 -0.428803 0.000000 
-1.539152 -0.368004 0.000000 
-1.393011 -0.329835 0.000000 
-1.612839 -0.297732 0.000000 
-1.665320 -0.240154 0.000000 
-1.691220 -0.175327 0.000000 
-1.704696 -0.089834 0.000000 
-1.850073 0.077036 0.000000 
-1.911042 0.021211 0.000000 
-1.969645 -0.035626 0.000000 
-1.726970 0.016577 0.000000 
-0.222881 0.224407 0.000000 
-0.195707 0.196824 0.000000 
-0.164205 0.159876 0.000000 
-0.127520 0.127179 0.000000 
-0.095686 0.097687 0.000000 
-0.059027 0.069209 0.000000 
-0.018954 0.039225 0.000000 
0.030296 0.007955 0.000000 
0.086536 -0.012571 0.000000 
0.141893 -0.031303 0.000000 
0.202102 -0.060582 0.000000 
0.263408 -0.100499 0.000000 
0.311661 -0.150486 0.000000 
0.333954 -0.210109 0.000000 
0.338621 -0.270559 0.000000 
0.341530 -0.324497 0.000000 
0.353165 -0.374686 0.000000 
0.365710 -0.433109 0.000000 
[...]
POINT_DATA 899 
VECTORS X_GC float 
-3.648847 2.164427 0.000000 
-3.619410 2.123875 0.000000 
-3.578536 2.088280 0.000000 
-3.540028 2.052629 0.000000 
-3.511690 2.020434 0.000000 
-3.481362 1.990575 0.000000 
-3.451569 1.949902 0.000000 
0.772356 2.066941 0.000000 
0.774615 2.040820 0.000000 
0.769962 2.012065 0.000000 
-3.399514 1.919626 0.000000 
0.413960 -0.725216 0.000000 
0.455573 -0.720913 0.000000 
-1.762619 -0.625112 0.000000 
-1.783389 -0.589715 0.000000 
-1.714437 -0.560926 0.000000 
0.732567 2.061265 0.000000 
0.698438 2.047429 0.000000 
0.491831 -0.706711 0.000000 
0.519501 -0.676305 0.000000 
0.530556 -0.635859 0.000000 
0.532354 -0.590055 0.000000 
0.531774 -0.539548 0.000000 
-3.460923 1.857893 0.000000 
0.663989 2.025483 0.000000 
0.631675 1.998088 0.000000 
0.601833 1.974032 0.000000 
0.569607 1.950775 0.000000 
0.534059 1.928697 0.000000 
0.492599 1.907558 0.000000 
0.444403 1.888893 0.000000 
0.762807 1.971091 0.000000 
-1.708694 -0.526544 0.000000 
-1.726386 -0.486280 0.000000 
-1.761257 -0.462259 0.000000 
-1.812853 -0.454411 0.000000 
-0.690422 -0.706746 0.000000 
-0.624256 -0.724674 0.000000 
-0.561079 -0.732856 0.000000 
-0.500739 -0.734311 0.000000 
-0.445387 -0.734373 0.000000 
0.532260 -0.480464 0.000000 
0.536647 -0.411131 0.000000 
-1.881389 -0.441910 0.000000 
-0.389303 -0.732099 0.000000 
-0.340338 -0.716814 0.000000 
-0.344339 -0.662679 0.000000 
-0.358558 -0.610139 0.000000 
-0.381750 -0.569228 0.000000 
-0.406193 -0.535053 0.000000 
-0.417316 -0.503555 0.000000 
-0.428320 -0.469298 0.000000 
-0.436973 -0.425034 0.000000 
-0.444212 -0.369491 0.000000 
-0.452662 -0.310633 0.000000 
-0.468602 -0.253733 0.000000 
0.553166 -0.346416 0.000000 
0.573193 -0.288745 0.000000 
0.574450 -0.237005 0.000000 
0.561087 -0.186685 0.000000 
0.550432 -0.131362 0.000000 
0.748903 1.917773 0.000000 
0.730940 1.861281 0.000000 
0.715868 1.815122 0.000000 
0.699446 1.778994 0.000000 
0.684888 1.738004 0.000000 
0.675900 1.691800 0.000000 
0.669871 1.642240 0.000000 
0.664455 1.594383 0.000000 
0.668163 1.547963 0.000000 
0.672091 1.498130 0.000000 
0.674558 1.450106 0.000000 
0.673045 1.400027 0.000000 
0.386491 1.879212 0.000000 
0.664855 1.341288 0.000000 
0.652298 1.283210 0.000000 
0.638456 1.229561 0.000000 
0.623121 1.180050 0.000000 
0.616008 1.137023 0.000000 
0.600787 1.102081 0.000000 
0.571289 1.072632 0.000000 
0.539016 1.041471 0.000000 
0.513857 1.012572 0.000000 
0.493343 0.986337 0.000000 
0.469109 0.968524 0.000000 
0.444920 0.952080 0.000000 
0.415324 0.931114 0.000000 
0.383540 0.906362 0.000000 
0.356179 0.877029 0.000000 
0.343879 0.838130 0.000000 
0.337476 0.792609 0.000000 
0.332404 0.747323 0.000000 
0.328512 0.707633 0.000000 
0.319594 0.671554 0.000000 
0.304149 0.638143 0.000000 
0.290502 0.597752 0.000000 
0.275896 0.549889 0.000000 
0.261905 0.507920 0.000000 
0.250150 0.474325 0.000000 
0.250896 0.436520 0.000000 
0.259587 0.393917 0.000000 
0.284617 0.351144 0.000000 
0.315237 0.321482 0.000000 
0.340022 0.302046 0.000000 
0.354380 0.276197 0.000000 
0.368685 0.249054 0.000000 
0.385568 0.222658 0.000000 
0.415372 0.197861 0.000000 
0.447119 0.166148 0.000000 
0.477633 0.138232 0.000000 
0.503078 0.110295 0.000000 
0.518876 0.072241 0.000000 
0.527127 0.036273 0.000000 
0.534187 -0.008273 0.000000 
0.543185 -0.069053 0.000000 
0.322519 1.868157 0.000000 
0.263849 1.855040 0.000000 
0.208223 1.849620 0.000000 
0.150441 1.845791 0.000000 
-0.687392 -0.633679 0.000000 
-3.327058 1.893394 0.000000 
-3.276080 1.846973 0.000000 
-3.224941 1.813386 0.000000 
-3.181728 1.784228 0.000000 
-3.135074 1.747298 0.000000 
-3.078123 1.723005 0.000000 
-1.944260 -0.397032 0.000000 
0.083204 1.850948 0.000000 
0.005786 1.845595 0.000000 
-0.071812 1.854833 0.000000 
-0.135705 1.884375 0.000000 
-0.182391 1.925980 0.000000 
-1.999041 -0.326063 0.000000 
-1.843230 -0.600572 0.000000 
-0.491126 -0.189774 0.000000 
-0.512312 -0.116531 0.000000 
-0.526535 -0.053698 0.000000 
-0.527935 0.008424 0.000000 
-0.524207 0.075593 0.000000 
-0.505864 0.132725 0.000000 
-0.468875 0.181937 0.000000 
-0.410369 0.211182 0.000000 
-0.354013 0.232299 0.000000 
-0.301050 0.242245 0.000000 
-0.255730 0.243018 0.000000 
-0.695595 -0.555384 0.000000 
-0.726457 -0.478502 0.000000 
-0.747352 -0.409047 0.000000 
-3.396487 1.836259 0.000000 
-3.344056 1.756871 0.000000 
-3.294256 1.713470 0.000000 
-3.248246 1.675146 0.000000 
-3.196818 1.635792 0.000000 
-3.159669 1.584482 0.000000 
-3.113281 1.537777 0.000000 
-3.056061 1.518214 0.000000 
-2.996684 1.495589 0.000000 
-2.933161 1.465973 0.000000 
-2.879064 1.429830 0.000000 
-2.813006 1.405045 0.000000 
-2.751664 1.381995 0.000000 
-2.686782 1.352672 0.000000 
-1.922020 -0.597765 0.000000 
-1.999705 -0.599264 0.000000 
-2.060018 -0.577660 0.000000 
-2.032615 -0.242673 0.000000 
-2.048550 -0.156951 0.000000 
-2.029059 -0.091058 0.000000 
-2.105228 -0.520602 0.000000 
-2.154373 -0.453007 0.000000 
-2.203584 -0.398384 0.000000 
-2.237020 -0.336948 0.000000 
-2.250593 -0.271656 0.000000 
-2.270119 -0.199872 0.000000 
-2.297898 -0.129561 0.000000 
-2.327118 -0.067981 0.000000 
-2.346747 -0.014011 0.000000 
-2.362840 0.039098 0.000000 
-2.374561 0.090143 0.000000 
-2.373128 0.142118 0.000000 
-2.334174 0.208708 0.000000 
-2.331842 0.249327 0.000000 
-2.284565 0.258085 0.000000 
-0.236368 1.975516 0.000000 
-0.299146 2.019342 0.000000 
-0.346614 2.039268 0.000000 
-0.382877 2.002764 0.000000 
-0.412447 1.973715 0.000000 
-0.433989 1.933427 0.000000 
-0.446472 1.890461 0.000000 
-0.451628 1.851143 0.000000 
-0.451047 1.812680 0.000000 
-0.449242 1.776677 0.000000 
-0.453345 1.744787 0.000000 
-0.460251 1.717094 0.000000 
-0.470304 1.688309 0.000000 
-0.475290 1.658819 0.000000 
-0.478341 1.629033 0.000000 
-0.479442 1.592297 0.000000 
-2.609147 1.338882 0.000000 
-2.517189 1.333384 0.000000 
-2.434013 1.333721 0.000000 
-2.352624 1.323689 0.000000 
-2.274410 1.304318 0.000000 
-2.204499 1.269670 0.000000 
-2.180326 1.200787 0.000000 
-2.178559 1.112251 0.000000 
-2.168273 1.022222 0.000000 
-2.159086 0.924158 0.000000 
-2.144575 0.834999 0.000000 
-2.163040 0.759782 0.000000 
-2.183612 0.685690 0.000000 
-2.172907 0.621133 0.000000 
-2.161614 0.558378 0.000000 
-2.169833 0.498266 0.000000 
-2.188987 0.436512 0.000000 
-2.218663 0.385267 0.000000 
-2.229021 0.329393 0.000000 
-2.997130 1.706208 0.000000 
-3.021908 1.608070 0.000000 
-2.902046 1.674700 0.000000 
-0.770600 -0.326453 0.000000 
-0.790096 -0.234794 0.000000 
-0.811857 -0.154086 0.000000 
-0.835807 -0.075522 0.000000 
-0.859157 -0.005395 0.000000 
-0.881226 0.054657 0.000000 
-0.903169 0.114007 0.000000 
-0.928196 0.178052 0.000000 
-2.785442 1.642147 0.000000 
-2.944278 1.581405 0.000000 
-2.855014 1.544259 0.000000 
-2.796189 1.484179 0.000000 
-2.651235 1.627401 0.000000 
-2.517962 1.617054 0.000000 
-2.394240 1.607891 0.000000 
-2.275192 1.599895 0.000000 
-2.180847 1.575334 0.000000 
-2.099904 1.548854 0.000000 
-2.018420 1.517614 0.000000 
-1.945469 1.521912 0.000000 
-1.885190 1.555252 0.000000 
-1.829736 1.575820 0.000000 
-1.760875 1.601052 0.000000 
-1.680504 1.629476 0.000000 
-1.617798 1.647793 0.000000 
-1.570169 1.662317 0.000000 
-1.527149 1.676507 0.000000 
-1.482581 1.688636 0.000000 
-1.433927 1.695176 0.000000 
-1.386311 1.703091 0.000000 
-1.337319 1.711822 0.000000 
-1.286363 1.718901 0.000000 
-1.235962 1.719619 0.000000 
-1.188452 1.724432 0.000000 
-1.140860 1.733883 0.000000 
-1.091558 1.733192 0.000000 
-1.038962 1.722173 0.000000 
-0.982519 1.703175 0.000000 
-0.922315 1.686433 0.000000 
-0.869867 1.676109 0.000000 
-0.827747 1.669619 0.000000 
-0.785371 1.664707 0.000000 
-0.748025 1.654970 0.000000 
-0.712781 1.644703 0.000000 
-0.681690 1.630771 0.000000 
-0.657198 1.619637 0.000000 
-0.633895 1.612974 0.000000 
-0.612002 1.608518 0.000000 
-0.594184 1.601305 0.000000 
-0.577381 1.591855 0.000000 
-0.560109 1.576572 0.000000 
-0.540091 1.544118 0.000000 
-1.243914 -0.094728 0.000000 
-1.232782 -0.081011 0.000000 
-1.257376 -0.109082 0.000000 
-1.224378 -0.062312 0.000000 
-1.271472 -0.128427 0.000000 
-1.215702 -0.040315 0.000000 
-1.204660 -0.014258 0.000000 
-1.290143 -0.156169 0.000000 
-1.314447 -0.201209 0.000000 
-1.190204 0.016048 0.000000 
-1.318041 -0.254563 0.000000 
-1.171655 0.050204 0.000000 
-1.149359 0.086519 0.000000 
-1.123094 0.124767 0.000000 
-1.284246 -0.304543 0.000000 
-1.239750 -0.355269 0.000000 
-1.083297 0.168759 0.000000 
-1.028190 0.200430 0.000000 
-1.181630 -0.397626 0.000000 
-1.112789 -0.429053 0.000000 
-1.040643 -0.441223 0.000000 
-0.978118 -0.444310 0.000000 
-0.927392 -0.457336 0.000000 
-0.889718 -0.496470 0.000000 
-0.873564 -0.553020 0.000000 
-0.920771 -0.585214 0.000000 
-0.935346 -0.517946 0.000000 
-0.991249 -0.594790 0.000000 
-1.088918 -0.592062 0.000000 
-1.067426 -0.512410 0.000000 
-1.189474 -0.584499 0.000000 
-1.147229 -0.499743 0.000000 
-1.266509 -0.561209 0.000000 
-1.219913 -0.473566 0.000000 
-1.335307 -0.525382 0.000000 
-1.284456 -0.435566 0.000000 
-1.402357 -0.481478 0.000000 
-1.341444 -0.387766 0.000000 
-1.466758 -0.428803 0.000000 
-1.539152 -0.368004 0.000000 
-1.393011 -0.329835 0.000000 
-1.612839 -0.297732 0.000000 
-1.665320 -0.240154 0.000000 
-1.691220 -0.175327 0.000000 
-1.704696 -0.089834 0.000000 
-1.850073 0.077036 0.000000 
-1.911042 0.021211 0.000000 
-1.969645 -0.035626 0.000000 
-1.726970 0.016577 0.000000 
-0.222881 0.224407 0.000000 
-0.195707 0.196824 0.000000 
-0.164205 0.159876 0.000000 
-0.127520 0.127179 0.000000 
-0.095686 0.097687 0.000000 
-0.059027 0.069209 0.000000 
-0.018954 0.039225 0.000000 
0.030296 0.007955 0.000000 
0.086536 -0.012571 0.000000 
0.141893 -0.031303 0.000000 
0.202102 -0.060582 0.000000 
0.263408 -0.100499 0.000000 
0.311661 -0.150486 0.000000 
0.333954 -0.210109 0.000000 
0.338621 -0.270559 0.000000 
0.341530 -0.324497 0.000000 
0.353165 -0.374686 0.000000 
0.365710 -0.433109 0.000000 
0.363543 -0.502637 0.000000 
0.357353 -0.564752 0.000000 
0.351188 -0.615494 0.000000 
0.363842 -0.662523 0.000000 
-1.737069 -0.529174 0.000000 
-0.199590 0.277024 0.000000 
-0.156305 0.247108 0.000000 
-0.462327 1.513064 0.000000 
0.741313 2.035638 0.000000 
0.482415 -0.673293 0.000000 
0.446104 -0.681189 0.000000 
0.403556 -0.686844 0.000000 
-0.104001 0.219043 0.000000 
-0.514998 1.445118 0.000000 
-0.059937 0.184638 0.000000 
0.738519 2.010373 0.000000 
0.714572 2.022674 0.000000 
-0.249752 0.303848 0.000000 
-0.036232 0.140840 0.000000 
0.000772 0.113008 0.000000 
0.035161 0.087363 0.000000 
-1.776537 -0.528615 0.000000 
-1.836238 -0.524431 0.000000 
-0.309416 0.317948 0.000000 
-0.378944 0.315684 0.000000 
-2.292732 0.195272 0.000000 
-2.315166 0.145281 0.000000 
-2.314418 0.097724 0.000000 
-2.293418 0.051338 0.000000 
-2.279687 0.001459 0.000000 
-2.253462 -0.045807 0.000000 
0.075120 0.059620 0.000000 
0.131113 0.047013 0.000000 
-0.977004 0.248996 0.000000 
-0.860050 0.238831 0.000000 
-1.912142 -0.516374 0.000000 
-1.989966 -0.525154 0.000000 
-2.023752 -0.457613 0.000000 
-2.082175 -0.386352 0.000000 
0.723889 1.978860 0.000000 
0.691466 1.997703 0.000000 
0.665980 1.965056 0.000000 
0.704783 1.937788 0.000000 
0.637970 1.926998 0.000000 
0.681732 1.890580 0.000000 
0.670916 1.844405 0.000000 
0.602858 1.895330 0.000000 
0.659584 1.803981 0.000000 
0.560783 1.868960 0.000000 
0.636111 1.767906 0.000000 
0.607495 1.718115 0.000000 
0.595324 1.654635 0.000000 
0.604052 1.589962 0.000000 
0.514160 1.839556 0.000000 
0.453857 1.812111 0.000000 
0.392525 1.810133 0.000000 
0.334098 1.808604 0.000000 
0.278675 1.789850 0.000000 
0.217273 1.771775 0.000000 
0.149449 1.754420 0.000000 
0.614128 1.537686 0.000000 
0.621313 1.490107 0.000000 
0.624262 1.445227 0.000000 
-2.197766 -0.098996 0.000000 
-2.158682 -0.173919 0.000000 
-2.124695 -0.039665 0.000000 
-2.150589 -0.340046 0.000000 
-2.141926 -0.262500 0.000000 
-0.393439 -0.679060 0.000000 
-0.412631 -0.635017 0.000000 
-0.436983 -0.594413 0.000000 
-0.445953 -0.550994 0.000000 
-0.458251 -0.518168 0.000000 
-0.479726 -0.483401 0.000000 
-0.496934 -0.434671 0.000000 
-0.509002 -0.379587 0.000000 
-0.517157 -0.325256 0.000000 
-0.545309 -0.273981 0.000000 
-0.442273 -0.676454 0.000000 
-0.496002 -0.666937 0.000000 
-0.557668 -0.669044 0.000000 
-0.618975 -0.653564 0.000000 
-0.334659 1.977455 0.000000 
-0.367985 1.947737 0.000000 
-0.385153 1.911312 0.000000 
-0.396797 1.877444 0.000000 
-0.406285 1.841922 0.000000 
-0.402558 1.802789 0.000000 
-0.406645 1.764346 0.000000 
-0.418378 1.731931 0.000000 
-0.428059 1.702806 0.000000 
-0.435849 1.673258 0.000000 
-0.442335 1.643224 0.000000 
-0.445406 1.610159 0.000000 
-0.444483 1.564442 0.000000 
0.619822 1.399495 0.000000 
-1.077870 0.296060 0.000000 
-1.149036 0.254101 0.000000 
-1.174735 0.179259 0.000000 
-1.192231 0.127535 0.000000 
-1.210811 0.085759 0.000000 
-1.228352 0.046419 0.000000 
-1.238869 0.008439 0.000000 
-1.244643 -0.023058 0.000000 
-1.248534 -0.047959 0.000000 
-1.252336 -0.067247 0.000000 
-1.262323 -0.080499 0.000000 
-1.280319 -0.091415 0.000000 
-0.451814 0.293023 0.000000 
-0.526928 0.249502 0.000000 
0.194935 0.030020 0.000000 
0.069048 1.740320 0.000000 
-0.574175 0.178817 0.000000 
-0.593607 0.097714 0.000000 
-1.764101 0.137399 0.000000 
-2.210991 0.256256 0.000000 
-0.825996 0.153554 0.000000 
-0.799223 0.082473 0.000000 
-0.760911 0.016040 0.000000 
0.605964 1.348543 0.000000 
0.587834 1.291183 0.000000 
0.576354 1.231335 0.000000 
0.574971 1.176326 0.000000 
0.580375 1.133302 0.000000 
0.545179 1.110918 0.000000 
0.509957 1.078655 0.000000 
0.484198 1.042253 0.000000 
0.468721 1.011098 0.000000 
0.449386 0.992567 0.000000 
0.422962 0.979902 0.000000 
0.391379 0.960751 0.000000 
0.357154 0.936687 0.000000 
0.323730 0.908315 0.000000 
-0.582151 -0.213113 0.000000 
0.265957 0.003591 0.000000 
0.333763 -0.042539 0.000000 
0.378371 -0.109555 0.000000 
0.400918 -0.183949 0.000000 
0.401084 -0.246938 0.000000 
0.404345 -0.301039 0.000000 
0.432648 -0.352121 0.000000 
0.450030 -0.416562 0.000000 
0.529803 -0.263409 0.000000 
0.491947 -0.311546 0.000000 
0.453243 -0.261663 0.000000 
0.449550 -0.490886 0.000000 
0.498420 -0.217536 0.000000 
0.474171 -0.157594 0.000000 
0.457863 -0.083021 0.000000 
0.462195 -0.549541 0.000000 
0.478704 -0.595876 0.000000 
0.483460 -0.636842 0.000000 
0.412910 -0.575182 0.000000 
0.398390 -0.613895 0.000000 
0.404290 -0.648183 0.000000 
0.442452 -0.643625 0.000000 
0.436659 -0.608460 0.000000 
-0.727378 -0.058093 0.000000 
-0.616071 0.023925 0.000000 
-0.623548 -0.050356 0.000000 
-0.605779 -0.131363 0.000000 
-0.706340 -0.143811 0.000000 
-0.681483 -0.230073 0.000000 
-0.032304 1.734759 0.000000 
-0.128010 1.770909 0.000000 
-0.195732 1.838033 0.000000 
-0.243911 1.891947 0.000000 
-0.287859 1.939350 0.000000 
-0.335518 1.911654 0.000000 
-0.667608 -0.315454 0.000000 
-0.584906 -0.322222 0.000000 
-0.658169 -0.395463 0.000000 
-0.578442 -0.387592 0.000000 
-0.639050 -0.466905 0.000000 
-0.607982 -0.542422 0.000000 
-0.562541 -0.450292 0.000000 
-0.536184 -0.511315 0.000000 
-0.495978 -0.549277 0.000000 
-0.500680 -0.601671 0.000000 
-0.573051 -0.606124 0.000000 
-2.690892 1.508053 0.000000 
-2.684799 1.422041 0.000000 
-2.602920 1.420779 0.000000 
-2.574381 1.505772 0.000000 
-2.518122 1.440646 0.000000 
-2.424460 1.464544 0.000000 
-2.320006 1.455613 0.000000 
-2.229986 1.431995 0.000000 
-2.146342 1.390755 0.000000 
-1.455055 -0.270854 0.000000 
-1.387692 -0.190530 0.000000 
-1.339496 -0.137202 0.000000 
-1.304977 -0.108642 0.000000 
-1.531301 -0.205361 0.000000 
-1.604385 -0.161248 0.000000 
-1.592423 -0.060568 0.000000 
-1.608296 0.063395 0.000000 
-1.827918 0.261841 0.000000 
0.477873 0.030644 0.000000 
0.477147 0.065543 0.000000 
0.465631 0.099783 0.000000 
-0.587742 1.543992 0.000000 
-0.593403 1.568096 0.000000 
-0.604579 1.580752 0.000000 
-0.619289 1.586438 0.000000 
-0.639577 1.584264 0.000000 
-0.665912 1.585881 0.000000 
-0.697937 1.592867 0.000000 
-0.595692 1.490504 0.000000 
-0.726123 1.607679 0.000000 
-0.757398 1.618249 0.000000 
-0.794522 1.615674 0.000000 
-0.841416 1.613096 0.000000 
-0.894922 1.614457 0.000000 
-0.956071 1.622873 0.000000 
-1.020951 1.641794 0.000000 
-1.077937 1.669429 0.000000 
-1.120258 1.698157 0.000000 
-1.171769 1.673897 0.000000 
0.332207 0.227288 0.000000 
0.333662 0.185552 0.000000 
0.321472 0.255904 0.000000 
0.302407 0.282717 0.000000 
0.214022 0.297379 0.000000 
0.194081 0.358404 0.000000 
0.186716 0.413916 0.000000 
0.189303 0.466689 0.000000 
0.360023 0.145871 0.000000 
0.405131 0.120738 0.000000 
0.201671 0.515934 0.000000 
0.218038 0.566195 0.000000 
0.236652 0.615129 0.000000 
0.256885 0.657063 0.000000 
0.278373 0.685557 0.000000 
0.284019 0.718955 0.000000 
0.276718 0.765702 0.000000 
0.278735 0.822515 0.000000 
0.296322 0.872783 0.000000 
-1.507867 1.625654 0.000000 
-1.548116 1.601012 0.000000 
-1.598023 1.573633 0.000000 
-1.467251 1.640428 0.000000 
-1.422160 1.647712 0.000000 
-1.373311 1.654428 0.000000 
-1.322903 1.662205 0.000000 
-1.275577 1.671450 0.000000 
-1.225048 1.670051 0.000000 
-1.662214 1.549963 0.000000 
-1.732600 1.530024 0.000000 
-1.794687 1.515648 0.000000 
-1.841773 1.486461 0.000000 
-2.078405 0.553734 0.000000 
-2.079214 0.632323 0.000000 
-2.097651 0.476134 0.000000 
-2.129318 0.404395 0.000000 
-2.096743 0.712885 0.000000 
-2.169699 0.349051 0.000000 
-1.991686 0.276051 0.000000 
-1.642187 0.201607 0.000000 
-1.989898 0.108826 0.000000 
-2.064526 0.037014 0.000000 
-1.914688 0.182361 0.000000 
-2.037969 0.965437 0.000000 
-2.021377 0.849753 0.000000 
-2.055796 1.094599 0.000000 
-2.102728 1.197252 0.000000 
-2.047875 1.339554 0.000000 
0.428030 0.086285 0.000000 
0.375625 0.065049 0.000000 
0.313454 0.078150 0.000000 
0.290352 0.224185 0.000000 
0.238487 0.935102 0.000000 
0.440631 0.048178 0.000000 
0.396678 0.008401 0.000000 
0.460488 -0.017520 0.000000 
0.523747 1.158592 0.000000 
-2.262588 0.121847 0.000000 
-2.220468 0.177874 0.000000 
-2.218579 0.068336 0.000000 
-2.146376 0.120186 0.000000 
-2.206503 0.003266 0.000000 
0.473879 1.119980 0.000000 
0.446488 1.067649 0.000000 
0.440978 1.023630 0.000000 
0.409581 1.015775 0.000000 
0.629179 1.844670 0.000000 
0.593839 1.812197 0.000000 
0.550362 1.767993 0.000000 
0.483841 1.727570 0.000000 
0.202470 0.868738 0.000000 
0.241245 0.720962 0.000000 
0.205152 0.696162 0.000000 
0.175878 0.648021 0.000000 
0.153326 0.589515 0.000000 
0.132079 0.529065 0.000000 
0.113278 0.464609 0.000000 
0.106000 0.396286 0.000000 
0.109640 0.327090 0.000000 
0.121648 0.256412 0.000000 
0.032483 0.166797 0.000000 
0.246820 0.249476 0.000000 
0.099619 0.115163 0.000000 
0.373127 1.000893 0.000000 
-0.307911 1.864033 0.000000 
-0.360136 1.845563 0.000000 
-0.343252 1.791218 0.000000 
-0.270247 1.799362 0.000000 
0.168337 0.111681 0.000000 
0.242346 0.101344 0.000000 
0.270369 0.170380 0.000000 
0.505525 1.226354 0.000000 
-0.689828 0.053609 0.000000 
-0.729540 0.111013 0.000000 
-0.746154 0.185485 0.000000 
-0.657668 0.202049 0.000000 
-0.661195 0.117763 0.000000 
-0.924642 0.354725 0.000000 
-1.137284 1.618088 0.000000 
-1.072920 1.573494 0.000000 
-1.248127 1.630385 0.000000 
-1.304069 1.614063 0.000000 
-1.360197 1.606403 0.000000 
-1.411221 1.602263 0.000000 
-1.453165 1.599034 0.000000 
-1.486003 1.581572 0.000000 
-1.510814 1.538103 0.000000 
-1.558800 1.493434 0.000000 
-0.995058 1.546741 0.000000 
-0.919611 1.536265 0.000000 
-0.852227 1.543197 0.000000 
-0.796966 1.559716 0.000000 
-0.752732 1.578884 0.000000 
-1.635591 1.466101 0.000000 
-1.992480 0.740802 0.000000 
-1.965104 0.631023 0.000000 
-1.974377 0.527690 0.000000 
-2.014368 0.434068 0.000000 
-2.065453 0.350882 0.000000 
-2.071492 0.197815 0.000000 
-2.131272 0.281352 0.000000 
-1.712039 1.452778 0.000000 
-1.781280 1.452728 0.000000 
-1.884796 1.422671 0.000000 
0.516332 1.642334 0.000000 
0.538779 1.571206 0.000000 
0.517174 1.300739 0.000000 
0.552532 1.362675 0.000000 
0.576896 1.404602 0.000000 
0.583356 1.441628 0.000000 