# vtk DataFile Version 3.0 
vtk output 
ASCII 
DATASET UNSTRUCTURED_GRID 
POINTS 899 float 
-3.648847 2.275888 0.000000 
-3.619410 2.235336 0.000000 
-3.578536 2.199741 0.000000 
-3.540028 2.164090 0.000000 
-3.511690 2.131895 0.000000 
-3.481362 2.102037 0.000000 
-3.451569 2.061363 0.000000 
0.772356 2.178402 0.000000 
0.774615 2.152281 0.000000 
0.769962 2.123527 0.000000 
-3.399514 2.031087 0.000000 
0.413960 -0.613755 0.000000 
0.455573 -0.609452 0.000000 
-1.762619 -0.513650 0.000000 
-1.783389 -0.478254 0.000000 
-1.714437 -0.449465 0.000000 
0.732567 2.172726 0.000000 
0.698438 2.158890 0.000000 
0.491831 -0.595249 0.000000 
0.519501 -0.564844 0.000000 
0.530556 -0.524398 0.000000 
0.532354 -0.478594 0.000000 
0.531774 -0.428087 0.000000 
-3.460923 1.969354 0.000000 
0.663989 2.136944 0.000000 
0.631675 2.109549 0.000000 
0.601833 2.085494 0.000000 
0.569607 2.062236 0.000000 
0.534059 2.040159 0.000000 
0.492599 2.019019 0.000000 
0.444403 2.000354 0.000000 
0.762807 2.082552 0.000000 
-1.708694 -0.415082 0.000000 
-1.726386 -0.374819 0.000000 
-1.761257 -0.350798 0.000000 
-1.812853 -0.342950 0.000000 
-0.690422 -0.595285 0.000000 
-0.624256 -0.613213 0.000000 
-0.561079 -0.621394 0.000000 
-0.500739 -0.622850 0.000000 
-0.445387 -0.622912 0.000000 
0.532260 -0.369003 0.000000 
0.536647 -0.299670 0.000000 
-1.881389 -0.330449 0.000000 
-0.389303 -0.620638 0.000000 
-0.340338 -0.605352 0.000000 
-0.344339 -0.551217 0.000000 
-0.358558 -0.498678 0.000000 
-0.381750 -0.457766 0.000000 
-0.406193 -0.423592 0.000000 
-0.417316 -0.392094 0.000000 
-0.428320 -0.357837 0.000000 
-0.436973 -0.313572 0.000000 
-0.444212 -0.258030 0.000000 
-0.452662 -0.199171 0.000000 
-0.468602 -0.142272 0.000000 
0.553166 -0.234955 0.000000 
0.573193 -0.177284 0.000000 
0.574450 -0.125543 0.000000 
0.561087 -0.075224 0.000000 
0.550432 -0.019900 0.000000 
0.748903 2.029234 0.000000 
0.730940 1.972742 0.000000 
0.715868 1.926583 0.000000 
0.699446 1.890455 0.000000 
0.684888 1.849465 0.000000 
0.675900 1.803261 0.000000 
0.669871 1.753701 0.000000 
0.664455 1.705844 0.000000 
0.668163 1.659425 0.000000 
0.672091 1.609591 0.000000 
0.674558 1.561568 0.000000 
0.673045 1.511488 0.000000 
0.386491 1.990674 0.000000 
0.664855 1.452749 0.000000 
0.652298 1.394672 0.000000 
0.638456 1.341022 0.000000 
0.623121 1.291512 0.000000 
0.616008 1.248485 0.000000 
0.600787 1.213542 0.000000 
0.571289 1.184093 0.000000 
0.539016 1.152932 0.000000 
0.513857 1.124033 0.000000 
0.493343 1.097798 0.000000 
0.469109 1.079985 0.000000 
0.444920 1.063541 0.000000 
0.415324 1.042575 0.000000 
0.383540 1.017823 0.000000 
0.356179 0.988491 0.000000 
0.343879 0.949591 0.000000 
0.337476 0.904071 0.000000 
0.332404 0.858784 0.000000 
0.328512 0.819094 0.000000 
0.319594 0.783015 0.000000 
0.304149 0.749604 0.000000 
0.290502 0.709213 0.000000 
0.275896 0.661351 0.000000 
0.261905 0.619381 0.000000 
0.250150 0.585786 0.000000 
0.250896 0.547981 0.000000 
0.259587 0.505378 0.000000 
0.284617 0.462605 0.000000 
0.315237 0.432943 0.000000 
0.340022 0.413507 0.000000 
0.354380 0.387658 0.000000 
0.368685 0.360515 0.000000 
0.385568 0.334119 0.000000 
0.415372 0.309322 0.000000 
0.447119 0.277610 0.000000 
0.477633 0.249693 0.000000 
0.503078 0.221757 0.000000 
0.518876 0.183702 0.000000 
0.527127 0.147734 0.000000 
0.534187 0.103189 0.000000 
0.543185 0.042408 0.000000 
0.322519 1.979618 0.000000 
0.263849 1.966501 0.000000 
0.208223 1.961081 0.000000 
0.150441 1.957253 0.000000 
-0.687392 -0.522218 0.000000 
-3.327058 2.004855 0.000000 
-3.276080 1.958434 0.000000 
-3.224941 1.924847 0.000000 
-3.181728 1.895689 0.000000 
-3.135074 1.858759 0.000000 
-3.078123 1.834466 0.000000 
-1.944260 -0.285571 0.000000 
0.083204 1.962409 0.000000 
0.005786 1.957056 0.000000 
-0.071812 1.966294 0.000000 
-0.135705 1.995836 0.000000 
-0.182391 2.037441 0.000000 
-1.999041 -0.214602 0.000000 
-1.843230 -0.489111 0.000000 
-0.491126 -0.078312 0.000000 
-0.512312 -0.005069 0.000000 
-0.526535 0.057763 0.000000 
-0.527935 0.119885 0.000000 
-0.524207 0.187055 0.000000 
-0.505864 0.244187 0.000000 
-0.468875 0.293399 0.000000 
-0.410369 0.322644 0.000000 
-0.354013 0.343761 0.000000 
-0.301050 0.353706 0.000000 
-0.255730 0.354479 0.000000 
-0.695595 -0.443922 0.000000 
-0.726457 -0.367041 0.000000 
-0.747352 -0.297585 0.000000 
-3.396487 1.947720 0.000000 
-3.344056 1.868332 0.000000 
-3.294256 1.824931 0.000000 
-3.248246 1.786607 0.000000 
-3.196818 1.747253 0.000000 
-3.159669 1.695943 0.000000 
-3.113281 1.649239 0.000000 
-3.056061 1.629675 0.000000 
-2.996684 1.607050 0.000000 
-2.933161 1.577434 0.000000 
-2.879064 1.541291 0.000000 
-2.813006 1.516506 0.000000 
-2.751664 1.493456 0.000000 
-2.686782 1.464133 0.000000 
-1.922020 -0.486304 0.000000 
-1.999705 -0.487803 0.000000 
-2.060018 -0.466199 0.000000 
-2.032615 -0.131212 0.000000 
-2.048550 -0.045490 0.000000 
-2.029059 0.020403 0.000000 
-2.105228 -0.409141 0.000000 
-2.154373 -0.341546 0.000000 
-2.203584 -0.286922 0.000000 
-2.237020 -0.225487 0.000000 
-2.250593 -0.160194 0.000000 
-2.270119 -0.088410 0.000000 
-2.297898 -0.018100 0.000000 
-2.327118 0.043480 0.000000 
-2.346747 0.097450 0.000000 
-2.362840 0.150559 0.000000 
-2.374561 0.201604 0.000000 
-2.373128 0.253579 0.000000 
-2.334174 0.320170 0.000000 
-2.331842 0.360788 0.000000 
-2.284565 0.369546 0.000000 
-0.236368 2.086977 0.000000 
-0.299146 2.130804 0.000000 
-0.346614 2.150729 0.000000 
-0.382877 2.114226 0.000000 
-0.412447 2.085176 0.000000 
-0.433989 2.044888 0.000000 
-0.446472 2.001922 0.000000 
-0.451628 1.962604 0.000000 
-0.451047 1.924141 0.000000 
-0.449242 1.888138 0.000000 
-0.453345 1.856248 0.000000 
-0.460251 1.828555 0.000000 
-0.470304 1.799770 0.000000 
-0.475290 1.770280 0.000000 
-0.478341 1.740494 0.000000 
-0.479442 1.703758 0.000000 
-2.609147 1.450344 0.000000 
-2.517189 1.444845 0.000000 
-2.434013 1.445182 0.000000 
-2.352624 1.435150 0.000000 
-2.274410 1.415779 0.000000 
-2.204499 1.381131 0.000000 
-2.180326 1.312248 0.000000 
-2.178559 1.223712 0.000000 
-2.168273 1.133683 0.000000 
-2.159086 1.035619 0.000000 
-2.144575 0.946460 0.000000 
-2.163040 0.871243 0.000000 
-2.183612 0.797151 0.000000 
-2.172907 0.732594 0.000000 
-2.161614 0.669839 0.000000 
-2.169833 0.609727 0.000000 
-2.188987 0.547973 0.000000 
-2.218663 0.496728 0.000000 
-2.229021 0.440855 0.000000 
-2.997130 1.817669 0.000000 
-3.021908 1.719531 0.000000 
-2.902046 1.786162 0.000000 
-0.770600 -0.214992 0.000000 
-0.790096 -0.123333 0.000000 
-0.811857 -0.042625 0.000000 
-0.835807 0.035939 0.000000 
-0.859157 0.106067 0.000000 
-0.881226 0.166118 0.000000 
-0.903169 0.225469 0.000000 
-0.928196 0.289513 0.000000 
-2.785442 1.753608 0.000000 
-2.944278 1.692866 0.000000 
-2.855014 1.655721 0.000000 
-2.796189 1.595641 0.000000 
-2.651235 1.738862 0.000000 
-2.517962 1.728515 0.000000 
-2.394240 1.719352 0.000000 
-2.275192 1.711356 0.000000 
-2.180847 1.686795 0.000000 
-2.099904 1.660315 0.000000 
-2.018420 1.629076 0.000000 
-1.945469 1.633373 0.000000 
-1.885190 1.666713 0.000000 
-1.829736 1.687282 0.000000 
-1.760875 1.712513 0.000000 
-1.680504 1.740938 0.000000 
-1.617798 1.759254 0.000000 
-1.570169 1.773778 0.000000 
-1.527149 1.787968 0.000000 
-1.482581 1.800097 0.000000 
-1.433927 1.806638 0.000000 
-1.386311 1.814552 0.000000 
-1.337319 1.823283 0.000000 
-1.286363 1.830362 0.000000 
-1.235962 1.831080 0.000000 
-1.188452 1.835893 0.000000 
-1.140860 1.845344 0.000000 
-1.091558 1.844653 0.000000 
-1.038962 1.833635 0.000000 
-0.982519 1.814637 0.000000 
-0.922315 1.797895 0.000000 
-0.869867 1.787570 0.000000 
-0.827747 1.781080 0.000000 
-0.785371 1.776168 0.000000 
-0.748025 1.766431 0.000000 
-0.712781 1.756164 0.000000 
-0.681690 1.742232 0.000000 
-0.657198 1.731098 0.000000 
-0.633895 1.724435 0.000000 
-0.612002 1.719980 0.000000 
-0.594184 1.712767 0.000000 
-0.577381 1.703316 0.000000 
-0.560109 1.688033 0.000000 
-0.540091 1.655579 0.000000 
-1.243914 0.016733 0.000000 
-1.232782 0.030450 0.000000 
-1.257376 0.002379 0.000000 
-1.224378 0.049150 0.000000 
-1.271472 -0.016966 0.000000 
-1.215702 0.071147 0.000000 
-1.204660 0.097203 0.000000 
-1.290143 -0.044708 0.000000 
-1.314447 -0.089748 0.000000 
-1.190204 0.127510 0.000000 
-1.318041 -0.143102 0.000000 
-1.171655 0.161666 0.000000 
-1.149359 0.197980 0.000000 
-1.123094 0.236229 0.000000 
-1.284246 -0.193082 0.000000 
-1.239750 -0.243808 0.000000 
-1.083297 0.280220 0.000000 
-1.028190 0.311891 0.000000 
-1.181630 -0.286164 0.000000 
-1.112789 -0.317592 0.000000 
-1.040643 -0.329762 0.000000 
-0.978118 -0.332849 0.000000 
-0.927392 -0.345874 0.000000 
-0.889718 -0.385009 0.000000 
-0.873564 -0.441559 0.000000 
-0.920771 -0.473753 0.000000 
-0.935346 -0.406485 0.000000 
-0.991249 -0.483329 0.000000 
-1.088918 -0.480601 0.000000 
-1.067426 -0.400949 0.000000 
-1.189474 -0.473038 0.000000 
-1.147229 -0.388282 0.000000 
-1.266509 -0.449748 0.000000 
-1.219913 -0.362104 0.000000 
-1.335307 -0.413921 0.000000 
-1.284456 -0.324105 0.000000 
-1.402357 -0.370017 0.000000 
-1.341444 -0.276305 0.000000 
-1.466758 -0.317342 0.000000 
-1.539152 -0.256542 0.000000 
-1.393011 -0.218374 0.000000 
-1.612839 -0.186271 0.000000 
-1.665320 -0.128693 0.000000 
-1.691220 -0.063866 0.000000 
-1.704696 0.021628 0.000000 
-1.850073 0.188497 0.000000 
-1.911042 0.132672 0.000000 
-1.969645 0.075835 0.000000 
-1.726970 0.128038 0.000000 
-0.222881 0.335868 0.000000 
-0.195707 0.308285 0.000000 
-0.164205 0.271338 0.000000 
-0.127520 0.238640 0.000000 
-0.095686 0.209148 0.000000 
-0.059027 0.180670 0.000000 
-0.018954 0.150687 0.000000 
0.030296 0.119416 0.000000 
0.086536 0.098890 0.000000 
0.141893 0.080159 0.000000 
0.202102 0.050879 0.000000 
0.263408 0.010962 0.000000 
0.311661 -0.039025 0.000000 
0.333954 -0.098647 0.000000 
0.338621 -0.159098 0.000000 
0.341530 -0.213036 0.000000 
0.353165 -0.263225 0.000000 
0.365710 -0.321648 0.000000 
0.363543 -0.391176 0.000000 
[...]
POINT_DATA 899 
VECTORS X_GC float 
-3.648847 2.275888 0.000000 
-3.619410 2.235336 0.000000 
-3.578536 2.199741 0.000000 
-3.540028 2.164090 0.000000 
-3.511690 2.131895 0.000000 
-3.481362 2.102037 0.000000 
-3.451569 2.061363 0.000000 
0.772356 2.178402 0.000000 
0.774615 2.152281 0.000000 
0.769962 2.123527 0.000000 
-3.399514 2.031087 0.000000 
0.413960 -0.613755 0.000000 
0.455573 -0.609452 0.000000 
-1.762619 -0.513650 0.000000 
-1.783389 -0.478254 0.000000 
-1.714437 -0.449465 0.000000 
0.732567 2.172726 0.000000 
0.698438 2.158890 0.000000 
0.491831 -0.595249 0.000000 
0.519501 -0.564844 0.000000 
0.530556 -0.524398 0.000000 
0.532354 -0.478594 0.000000 
0.531774 -0.428087 0.000000 
-3.460923 1.969354 0.000000 
0.663989 2.136944 0.000000 
0.631675 2.109549 0.000000 
0.601833 2.085494 0.000000 
0.569607 2.062236 0.000000 
0.534059 2.040159 0.000000 
0.492599 2.019019 0.000000 
0.444403 2.000354 0.000000 
0.762807 2.082552 0.000000 
-1.708694 -0.415082 0.000000 
-1.726386 -0.374819 0.000000 
-1.761257 -0.350798 0.000000 
-1.812853 -0.342950 0.000000 
-0.690422 -0.595285 0.000000 
-0.624256 -0.613213 0.000000 
-0.561079 -0.621394 0.000000 
-0.500739 -0.622850 0.000000 
-0.445387 -0.622912 0.000000 
0.532260 -0.369003 0.000000 
0.536647 -0.299670 0.000000 
-1.881389 -0.330449 0.000000 
-0.389303 -0.620638 0.000000 
-0.340338 -0.605352 0.000000 
-0.344339 -0.551217 0.000000 
-0.358558 -0.498678 0.000000 
-0.381750 -0.457766 0.000000 
-0.406193 -0.423592 0.000000 
-0.417316 -0.392094 0.000000 
-0.428320 -0.357837 0.000000 
-0.436973 -0.313572 0.000000 
-0.444212 -0.258030 0.000000 
-0.452662 -0.199171 0.000000 
-0.468602 -0.142272 0.000000 
0.553166 -0.234955 0.000000 
0.573193 -0.177284 0.000000 
0.574450 -0.125543 0.000000 
0.561087 -0.075224 0.000000 
0.550432 -0.019900 0.000000 
0.748903 2.029234 0.000000 
0.730940 1.972742 0.000000 
0.715868 1.926583 0.000000 
0.699446 1.890455 0.000000 
0.684888 1.849465 0.000000 
0.675900 1.803261 0.000000 
0.669871 1.753701 0.000000 
0.664455 1.705844 0.000000 
0.668163 1.659425 0.000000 
0.672091 1.609591 0.000000 
0.674558 1.561568 0.000000 
0.673045 1.511488 0.000000 
0.386491 1.990674 0.000000 
0.664855 1.452749 0.000000 
0.652298 1.394672 0.000000 
0.638456 1.341022 0.000000 
0.623121 1.291512 0.000000 
0.616008 1.248485 0.000000 
0.600787 1.213542 0.000000 
0.571289 1.184093 0.000000 
0.539016 1.152932 0.000000 
0.513857 1.124033 0.000000 
0.493343 1.097798 0.000000 
0.469109 1.079985 0.000000 
0.444920 1.063541 0.000000 
0.415324 1.042575 0.000000 
0.383540 1.017823 0.000000 
0.356179 0.988491 0.000000 
0.343879 0.949591 0.000000 
0.337476 0.904071 0.000000 
0.332404 0.858784 0.000000 
0.328512 0.819094 0.000000 
0.319594 0.783015 0.000000 
0.304149 0.749604 0.000000 
0.290502 0.709213 0.000000 
0.275896 0.661351 0.000000 
0.261905 0.619381 0.000000 
0.250150 0.585786 0.000000 
0.250896 0.547981 0.000000 
0.259587 0.505378 0.000000 
0.284617 0.462605 0.000000 
0.315237 0.432943 0.000000 
0.340022 0.413507 0.000000 
0.354380 0.387658 0.000000 
0.368685 0.360515 0.000000 
0.385568 0.334119 0.000000 
0.415372 0.309322 0.000000 
0.447119 0.277610 0.000000 
0.477633 0.249693 0.000000 
0.503078 0.221757 0.000000 
0.518876 0.183702 0.000000 
0.527127 0.147734 0.000000 
0.534187 0.103189 0.000000 
0.543185 0.042408 0.000000 
0.322519 1.979618 0.000000 
0.263849 1.966501 0.000000 
0.208223 1.961081 0.000000 
0.150441 1.957253 0.000000 
-0.687392 -0.522218 0.000000 
-3.327058 2.004855 0.000000 
-3.276080 1.958434 0.000000 
-3.224941 1.924847 0.000000 
-3.181728 1.895689 0.000000 
-3.135074 1.858759 0.000000 
-3.078123 1.834466 0.000000 
-1.944260 -0.285571 0.000000 
0.083204 1.962409 0.000000 
0.005786 1.957056 0.000000 
-0.071812 1.966294 0.000000 
-0.135705 1.995836 0.000000 
-0.182391 2.037441 0.000000 
-1.999041 -0.214602 0.000000 
-1.843230 -0.489111 0.000000 
-0.491126 -0.078312 0.000000 
-0.512312 -0.005069 0.000000 
-0.526535 0.057763 0.000000 
-0.527935 0.119885 0.000000 
-0.524207 0.187055 0.000000 
-0.505864 0.244187 0.000000 
-0.468875 0.293399 0.000000 
-0.410369 0.322644 0.000000 
-0.354013 0.343761 0.000000 
-0.301050 0.353706 0.000000 
-0.255730 0.354479 0.000000 
-0.695595 -0.443922 0.000000 
-0.726457 -0.367041 0.000000 
-0.747352 -0.297585 0.000000 
-3.396487 1.947720 0.000000 
-3.344056 1.868332 0.000000 
-3.294256 1.824931 0.000000 
-3.248246 1.786607 0.000000 
-3.196818 1.747253 0.000000 
-3.159669 1.695943 0.000000 
-3.113281 1.649239 0.000000 
-3.056061 1.629675 0.000000 
-2.996684 1.607050 0.000000 
-2.933161 1.577434 0.000000 
-2.879064 1.541291 0.000000 
-2.813006 1.516506 0.000000 
-2.751664 1.493456 0.000000 
-2.686782 1.464133 0.000000 
-1.922020 -0.486304 0.000000 
-1.999705 -0.487803 0.000000 
-2.060018 -0.466199 0.000000 
-2.032615 -0.131212 0.000000 
-2.048550 -0.045490 0.000000 
-2.029059 0.020403 0.000000 
-2.105228 -0.409141 0.000000 
-2.154373 -0.341546 0.000000 
-2.203584 -0.286922 0.000000 
-2.237020 -0.225487 0.000000 
-2.250593 -0.160194 0.000000 
-2.270119 -0.088410 0.000000 
-2.297898 -0.018100 0.000000 
-2.327118 0.043480 0.000000 
-2.346747 0.097450 0.000000 
-2.362840 0.150559 0.000000 
-2.374561 0.201604 0.000000 
-2.373128 0.253579 0.000000 
-2.334174 0.320170 0.000000 
-2.331842 0.360788 0.000000 
-2.284565 0.369546 0.000000 
-0.236368 2.086977 0.000000 
-0.299146 2.130804 0.000000 
-0.346614 2.150729 0.000000 
-0.382877 2.114226 0.000000 
-0.412447 2.085176 0.000000 
-0.433989 2.044888 0.000000 
-0.446472 2.001922 0.000000 
-0.451628 1.962604 0.000000 
-0.451047 1.924141 0.000000 
-0.449242 1.888138 0.000000 
-0.453345 1.856248 0.000000 
-0.460251 1.828555 0.000000 
-0.470304 1.799770 0.000000 
-0.475290 1.770280 0.000000 
-0.478341 1.740494 0.000000 
-0.479442 1.703758 0.000000 
-2.609147 1.450344 0.000000 
-2.517189 1.444845 0.000000 
-2.434013 1.445182 0.000000 
-2.352624 1.435150 0.000000 
-2.274410 1.415779 0.000000 
-2.204499 1.381131 0.000000 
-2.180326 1.312248 0.000000 
-2.178559 1.223712 0.000000 
-2.168273 1.133683 0.000000 
-2.159086 1.035619 0.000000 
-2.144575 0.946460 0.000000 
-2.163040 0.871243 0.000000 
-2.183612 0.797151 0.000000 
-2.172907 0.732594 0.000000 
-2.161614 0.669839 0.000000 
-2.169833 0.609727 0.000000 
-2.188987 0.547973 0.000000 
-2.218663 0.496728 0.000000 
-2.229021 0.440855 0.000000 
-2.997130 1.817669 0.000000 
-3.021908 1.719531 0.000000 
-2.902046 1.786162 0.000000 
-0.770600 -0.214992 0.000000 
-0.790096 -0.123333 0.000000 
-0.811857 -0.042625 0.000000 
-0.835807 0.035939 0.000000 
-0.859157 0.106067 0.000000 
-0.881226 0.166118 0.000000 
-0.903169 0.225469 0.000000 
-0.928196 0.289513 0.000000 
-2.785442 1.753608 0.000000 
-2.944278 1.692866 0.000000 
-2.855014 1.655721 0.000000 
-2.796189 1.595641 0.000000 
-2.651235 1.738862 0.000000 
-2.517962 1.728515 0.000000 
-2.394240 1.719352 0.000000 
-2.275192 1.711356 0.000000 
-2.180847 1.686795 0.000000 
-2.099904 1.660315 0.000000 
-2.018420 1.629076 0.000000 
-1.945469 1.633373 0.000000 
-1.885190 1.666713 0.000000 
-1.829736 1.687282 0.000000 
-1.760875 1.712513 0.000000 
-1.680504 1.740938 0.000000 
-1.617798 1.759254 0.000000 
-1.570169 1.773778 0.000000 
-1.527149 1.787968 0.000000 
-1.482581 1.800097 0.000000 
-1.433927 1.806638 0.000000 
-1.386311 1.814552 0.000000 
-1.337319 1.823283 0.000000 
-1.286363 1.830362 0.000000 
-1.235962 1.831080 0.000000 
-1.188452 1.835893 0.000000 
-1.140860 1.845344 0.000000 
-1.091558 1.844653 0.000000 
-1.038962 1.833635 0.000000 
-0.982519 1.814637 0.000000 
-0.922315 1.797895 0.000000 
-0.869867 1.787570 0.000000 
-0.827747 1.781080 0.000000 
-0.785371 1.776168 0.000000 
-0.748025 1.766431 0.000000 
-0.712781 1.756164 0.000000 
-0.681690 1.742232 0.000000 
-0.657198 1.731098 0.000000 
-0.633895 1.724435 0.000000 
-0.612002 1.719980 0.000000 
-0.594184 1.712767 0.000000 
-0.577381 1.703316 0.000000 
-0.560109 1.688033 0.000000 
-0.540091 1.655579 0.000000 
-1.243914 0.016733 0.000000 
-1.232782 0.030450 0.000000 
-1.257376 0.002379 0.000000 
-1.224378 0.049150 0.000000 
-1.271472 -0.016966 0.000000 
-1.215702 0.071147 0.000000 
-1.204660 0.097203 0.000000 
-1.290143 -0.044708 0.000000 
-1.314447 -0.089748 0.000000 
-1.190204 0.127510 0.000000 
-1.318041 -0.143102 0.000000 
-1.171655 0.161666 0.000000 
-1.149359 0.197980 0.000000 
-1.123094 0.236229 0.000000 
-1.284246 -0.193082 0.000000 
-1.239750 -0.243808 0.000000 
-1.083297 0.280220 0.000000 
-1.028190 0.311891 0.000000 
-1.181630 -0.286164 0.000000 
-1.112789 -0.317592 0.000000 
-1.040643 -0.329762 0.000000 
-0.978118 -0.332849 0.000000 
-0.927392 -0.345874 0.000000 
-0.889718 -0.385009 0.000000 
-0.873564 -0.441559 0.000000 
-0.920771 -0.473753 0.000000 
-0.935346 -0.406485 0.000000 
-0.991249 -0.483329 0.000000 
-1.088918 -0.480601 0.000000 
-1.067426 -0.400949 0.000000 
-1.189474 -0.473038 0.000000 
-1.147229 -0.388282 0.000000 
-1.266509 -0.449748 0.000000 
-1.219913 -0.362104 0.000000 
-1.335307 -0.413921 0.000000 
-1.284456 -0.324105 0.000000 
-1.402357 -0.370017 0.000000 
-1.341444 -0.276305 0.000000 
-1.466758 -0.317342 0.000000 
-1.539152 -0.256542 0.000000 
-1.393011 -0.218374 0.000000 
-1.612839 -0.186271 0.000000 
-1.665320 -0.128693 0.000000 
-1.691220 -0.063866 0.000000 
-1.704696 0.021628 0.000000 
-1.850073 0.188497 0.000000 
-1.911042 0.132672 0.000000 
-1.969645 0.075835 0.000000 
-1.726970 0.128038 0.000000 
-0.222881 0.335868 0.000000 
-0.195707 0.308285 0.000000 
-0.164205 0.271338 0.000000 
-0.127520 0.238640 0.000000 
-0.095686 0.209148 0.000000 
-0.059027 0.180670 0.000000 
-0.018954 0.150687 0.000000 
0.030296 0.119416 0.000000 
0.086536 0.098890 0.000000 
0.141893 0.080159 0.000000 
0.202102 0.050879 0.000000 
0.263408 0.010962 0.000000 
0.311661 -0.039025 0.000000 
0.333954 -0.098647 0.000000 
0.338621 -0.159098 0.000000 
0.341530 -0.213036 0.000000 
0.353165 -0.263225 0.000000 
0.365710 -0.321648 0.000000 
0.363543 -0.391176 0.000000 
0.357353 -0.453291 0.000000 
0.351188 -0.504033 0.000000 
0.363842 -0.551061 0.000000 
-1.737069 -0.417712 0.000000 
-0.199590 0.388485 0.000000 
-0.156305 0.358569 0.000000 
-0.462327 1.624525 0.000000 
0.741313 2.147100 0.000000 
0.482415 -0.561832 0.000000 
0.446104 -0.569728 0.000000 
0.403556 -0.575382 0.000000 
-0.104001 0.330504 0.000000 
-0.514998 1.556580 0.000000 
-0.059937 0.296100 0.000000 
0.738519 2.121835 0.000000 
0.714572 2.134135 0.000000 
-0.249752 0.415309 0.000000 
-0.036232 0.252301 0.000000 
0.000772 0.224469 0.000000 
0.035161 0.198824 0.000000 
-1.776537 -0.417154 0.000000 
-1.836238 -0.412969 0.000000 
-0.309416 0.429409 0.000000 
-0.378944 0.427145 0.000000 
-2.292732 0.306733 0.000000 
-2.315166 0.256742 0.000000 
-2.314418 0.209185 0.000000 
-2.293418 0.162799 0.000000 
-2.279687 0.112920 0.000000 
-2.253462 0.065654 0.000000 
0.075120 0.171082 0.000000 
0.131113 0.158474 0.000000 
-0.977004 0.360457 0.000000 
-0.860050 0.350292 0.000000 
-1.912142 -0.404913 0.000000 
-1.989966 -0.413693 0.000000 
-2.023752 -0.346151 0.000000 
-2.082175 -0.274890 0.000000 
0.723889 2.090322 0.000000 
0.691466 2.109164 0.000000 
0.665980 2.076518 0.000000 
0.704783 2.049249 0.000000 
0.637970 2.038460 0.000000 
0.681732 2.002041 0.000000 
0.670916 1.955866 0.000000 
0.602858 2.006792 0.000000 
0.659584 1.915442 0.000000 
0.560783 1.980421 0.000000 
0.636111 1.879367 0.000000 
0.607495 1.829577 0.000000 
0.595324 1.766096 0.000000 
0.604052 1.701423 0.000000 
0.514160 1.951017 0.000000 
0.453857 1.923572 0.000000 
0.392525 1.921594 0.000000 
0.334098 1.920065 0.000000 
0.278675 1.901312 0.000000 
0.217273 1.883236 0.000000 
0.149449 1.865881 0.000000 
0.614128 1.649147 0.000000 
0.621313 1.601568 0.000000 
0.624262 1.556688 0.000000 
-2.197766 0.012466 0.000000 
-2.158682 -0.062458 0.000000 
-2.124695 0.071796 0.000000 
-2.150589 -0.228584 0.000000 
-2.141926 -0.151039 0.000000 
-0.393439 -0.567599 0.000000 
-0.412631 -0.523555 0.000000 
-0.436983 -0.482952 0.000000 
-0.445953 -0.439533 0.000000 
-0.458251 -0.406707 0.000000 
-0.479726 -0.371940 0.000000 
-0.496934 -0.323209 0.000000 
-0.509002 -0.268126 0.000000 
-0.517157 -0.213795 0.000000 
-0.545309 -0.162520 0.000000 
-0.442273 -0.564993 0.000000 
-0.496002 -0.555476 0.000000 
-0.557668 -0.557583 0.000000 
-0.618975 -0.542102 0.000000 
-0.334659 2.088916 0.000000 
-0.367985 2.059199 0.000000 
-0.385153 2.022773 0.000000 
-0.396797 1.988906 0.000000 
-0.406285 1.953383 0.000000 
-0.402558 1.914250 0.000000 
-0.406645 1.875807 0.000000 
-0.418378 1.843393 0.000000 
-0.428059 1.814267 0.000000 
-0.435849 1.784720 0.000000 
-0.442335 1.754685 0.000000 
-0.445406 1.721620 0.000000 
-0.444483 1.675903 0.000000 
0.619822 1.510956 0.000000 
-1.077870 0.407521 0.000000 
-1.149036 0.365562 0.000000 
-1.174735 0.290720 0.000000 
-1.192231 0.238997 0.000000 
-1.210811 0.197220 0.000000 
-1.228352 0.157880 0.000000 
-1.238869 0.119900 0.000000 
-1.244643 0.088403 0.000000 
-1.248534 0.063502 0.000000 
-1.252336 0.044214 0.000000 
-1.262323 0.030963 0.000000 
-1.280319 0.020047 0.000000 
-0.451814 0.404485 0.000000 
-0.526928 0.360963 0.000000 
0.194935 0.141482 0.000000 
0.069048 1.851781 0.000000 
-0.574175 0.290279 0.000000 
-0.593607 0.209176 0.000000 
-1.764101 0.248860 0.000000 
-2.210991 0.367717 0.000000 
-0.825996 0.265015 0.000000 
-0.799223 0.193934 0.000000 
-0.760911 0.127501 0.000000 
0.605964 1.460004 0.000000 
0.587834 1.402644 0.000000 
0.576354 1.342796 0.000000 
0.574971 1.287787 0.000000 
0.580375 1.244763 0.000000 
0.545179 1.222379 0.000000 
0.509957 1.190116 0.000000 
0.484198 1.153714 0.000000 
0.468721 1.122560 0.000000 
0.449386 1.104028 0.000000 
0.422962 1.091363 0.000000 
0.391379 1.072212 0.000000 
0.357154 1.048149 0.000000 
0.323730 1.019776 0.000000 
-0.582151 -0.101652 0.000000 
0.265957 0.115052 0.000000 
0.333763 0.068922 0.000000 
0.378371 0.001907 0.000000 
0.400918 -0.072488 0.000000 
0.401084 -0.135477 0.000000 
0.404345 -0.189578 0.000000 
0.432648 -0.240660 0.000000 
0.450030 -0.305101 0.000000 
0.529803 -0.151948 0.000000 
0.491947 -0.200085 0.000000 
0.453243 -0.150202 0.000000 
0.449550 -0.379425 0.000000 
0.498420 -0.106074 0.000000 
0.474171 -0.046133 0.000000 
0.457863 0.028440 0.000000 
0.462195 -0.438079 0.000000 
0.478704 -0.484415 0.000000 
0.483460 -0.525381 0.000000 
0.412910 -0.463721 0.000000 
0.398390 -0.502434 0.000000 
0.404290 -0.536722 0.000000 
0.442452 -0.532163 0.000000 
0.436659 -0.496999 0.000000 
-0.727378 0.053368 0.000000 
-0.616071 0.135386 0.000000 
-0.623548 0.061105 0.000000 
-0.605779 -0.019902 0.000000 
-0.706340 -0.032350 0.000000 
-0.681483 -0.118612 0.000000 
-0.032304 1.846220 0.000000 
-0.128010 1.882370 0.000000 
-0.195732 1.949494 0.000000 
-0.243911 2.003408 0.000000 
-0.287859 2.050811 0.000000 
-0.335518 2.023116 0.000000 
-0.667608 -0.203993 0.000000 
-0.584906 -0.210761 0.000000 
-0.658169 -0.284002 0.000000 
-0.578442 -0.276131 0.000000 
-0.639050 -0.355444 0.000000 
-0.607982 -0.430961 0.000000 
-0.562541 -0.338831 0.000000 
-0.536184 -0.399854 0.000000 
-0.495978 -0.437816 0.000000 
-0.500680 -0.490210 0.000000 
-0.573051 -0.494663 0.000000 
-2.690892 1.619515 0.000000 
-2.684799 1.533502 0.000000 
-2.602920 1.532240 0.000000 
-2.574381 1.617233 0.000000 
-2.518122 1.552107 0.000000 
-2.424460 1.576005 0.000000 
-2.320006 1.567074 0.000000 
-2.229986 1.543456 0.000000 
-2.146342 1.502216 0.000000 
-1.455055 -0.159393 0.000000 
-1.387692 -0.079069 0.000000 
-1.339496 -0.025741 0.000000 
-1.304977 0.002819 0.000000 
-1.531301 -0.093899 0.000000 
-1.604385 -0.049787 0.000000 
-1.592423 0.050894 0.000000 
-1.608296 0.174856 0.000000 
-1.827918 0.373302 0.000000 
0.477873 0.142105 0.000000 
0.477147 0.177004 0.000000 
0.465631 0.211244 0.000000 
-0.587742 1.655453 0.000000 
-0.593403 1.679557 0.000000 
-0.604579 1.692213 0.000000 
-0.619289 1.697899 0.000000 
-0.639577 1.695726 0.000000 
-0.665912 1.697342 0.000000 
-0.697937 1.704328 0.000000 
-0.595692 1.601965 0.000000 
-0.726123 1.719140 0.000000 
-0.757398 1.729710 0.000000 
-0.794522 1.727135 0.000000 
-0.841416 1.724557 0.000000 
-0.894922 1.725918 0.000000 
-0.956071 1.734334 0.000000 
-1.020951 1.753255 0.000000 
-1.077937 1.780890 0.000000 
-1.120258 1.809618 0.000000 
-1.171769 1.785358 0.000000 
0.332207 0.338749 0.000000 
0.333662 0.297014 0.000000 
0.321472 0.367365 0.000000 
0.302407 0.394178 0.000000 
0.214022 0.408840 0.000000 
0.194081 0.469865 0.000000 
0.186716 0.525378 0.000000 
0.189303 0.578150 0.000000 
0.360023 0.257332 0.000000 
0.405131 0.232199 0.000000 
0.201671 0.627396 0.000000 
0.218038 0.677657 0.000000 
0.236652 0.726590 0.000000 
0.256885 0.768524 0.000000 
0.278373 0.797018 0.000000 
0.284019 0.830416 0.000000 
0.276718 0.877164 0.000000 
0.278735 0.933977 0.000000 
0.296322 0.984244 0.000000 
-1.507867 1.737116 0.000000 
-1.548116 1.712473 0.000000 
-1.598023 1.685094 0.000000 
-1.467251 1.751889 0.000000 
-1.422160 1.759173 0.000000 
-1.373311 1.765889 0.000000 
-1.322903 1.773666 0.000000 
-1.275577 1.782912 0.000000 
-1.225048 1.781512 0.000000 
-1.662214 1.661424 0.000000 
-1.732600 1.641485 0.000000 
-1.794687 1.627109 0.000000 
-1.841773 1.597922 0.000000 
-2.078405 0.665195 0.000000 
-2.079214 0.743784 0.000000 
-2.097651 0.587595 0.000000 
-2.129318 0.515856 0.000000 
-2.096743 0.824346 0.000000 
-2.169699 0.460512 0.000000 
-1.991686 0.387512 0.000000 
-1.642187 0.313068 0.000000 
-1.989898 0.220287 0.000000 
-2.064526 0.148475 0.000000 
-1.914688 0.293822 0.000000 
-2.037969 1.076898 0.000000 
-2.021377 0.961214 0.000000 
-2.055796 1.206060 0.000000 
-2.102728 1.308713 0.000000 
-2.047875 1.451016 0.000000 
0.428030 0.197746 0.000000 
0.375625 0.176511 0.000000 
0.313454 0.189611 0.000000 
0.290352 0.335646 0.000000 
0.238487 1.046564 0.000000 
0.440631 0.159639 0.000000 
0.396678 0.119862 0.000000 
0.460488 0.093941 0.000000 
0.523747 1.270054 0.000000 
-2.262588 0.233308 0.000000 
-2.220468 0.289335 0.000000 
-2.218579 0.179797 0.000000 
-2.146376 0.231647 0.000000 
-2.206503 0.114727 0.000000 
0.473879 1.231442 0.000000 
0.446488 1.179110 0.000000 
0.440978 1.135091 0.000000 
0.409581 1.127236 0.000000 
0.629179 1.956132 0.000000 
0.593839 1.923658 0.000000 
0.550362 1.879454 0.000000 
0.483841 1.839032 0.000000 
0.202470 0.980199 0.000000 
0.241245 0.832424 0.000000 
0.205152 0.807623 0.000000 
0.175878 0.759482 0.000000 
0.153326 0.700976 0.000000 
0.132079 0.640526 0.000000 
0.113278 0.576070 0.000000 
0.106000 0.507747 0.000000 
0.109640 0.438551 0.000000 
0.121648 0.367873 0.000000 
0.032483 0.278258 0.000000 
0.246820 0.360937 0.000000 
0.099619 0.226624 0.000000 
0.373127 1.112354 0.000000 
-0.307911 1.975494 0.000000 
-0.360136 1.957024 0.000000 
-0.343252 1.902679 0.000000 
-0.270247 1.910823 0.000000 
0.168337 0.223142 0.000000 
0.242346 0.212805 0.000000 
0.270369 0.281841 0.000000 
0.505525 1.337815 0.000000 
-0.689828 0.165070 0.000000 
-0.729540 0.222474 0.000000 
-0.746154 0.296946 0.000000 
-0.657668 0.313511 0.000000 
-0.661195 0.229224 0.000000 
-0.924642 0.466186 0.000000 
-1.137284 1.729550 0.000000 
-1.072920 1.684956 0.000000 
-1.248127 1.741847 0.000000 
-1.304069 1.725524 0.000000 
-1.360197 1.717864 0.000000 
-1.411221 1.713724 0.000000 
-1.453165 1.710495 0.000000 
-1.486003 1.693033 0.000000 
-1.510814 1.649564 0.000000 
-1.558800 1.604895 0.000000 
-0.995058 1.658202 0.000000 
-0.919611 1.647726 0.000000 
-0.852227 1.654658 0.000000 
-0.796966 1.671177 0.000000 
-0.752732 1.690345 0.000000 
-1.635591 1.577562 0.000000 
-1.992480 0.852263 0.000000 
-1.965104 0.742484 0.000000 
-1.974377 0.639151 0.000000 
-2.014368 0.545529 0.000000 
-2.065453 0.462343 0.000000 
-2.071492 0.309276 0.000000 
-2.131272 0.392813 0.000000 
-1.712039 1.564239 0.000000 
-1.781280 1.564189 0.000000 
-1.884796 1.534132 0.000000 
0.516332 1.753795 0.000000 
0.538779 1.682667 0.000000 
0.517174 1.412200 0.000000 
0.552532 1.474137 0.000000 
0.576896 1.516063 0.000000 
0.583356 1.553089 0.000000 
0.576083 1.590094 0.000000 