# vtk DataFile Version 3.0 
vtk output 
ASCII 
DATASET UNSTRUCTURED_GRID 
POINTS 899 float 
-3.648847 2.336867 0.000000 
-3.619410 2.296315 0.000000 
-3.578536 2.260720 0.000000 
-3.540028 2.225069 0.000000 
-3.511690 2.192874 0.000000 
-3.481362 2.163016 0.000000 
-3.451569 2.122342 0.000000 
0.772356 2.239381 0.000000 
0.774615 2.213260 0.000000 
0.769962 2.184505 0.000000 
-3.399514 2.092066 0.000000 
0.413960 -0.552776 0.000000 
0.455573 -0.548473 0.000000 
-1.762619 -0.452671 0.000000 
-1.783389 -0.417275 0.000000 
-1.714437 -0.388486 0.000000 
0.732567 2.233705 0.000000 
0.698438 2.219869 0.000000 
0.491831 -0.534270 0.000000 
0.519501 -0.503865 0.000000 
0.530556 -0.463419 0.000000 
0.532354 -0.417615 0.000000 
0.531774 -0.367108 0.000000 
-3.460923 2.030333 0.000000 
0.663989 2.197923 0.000000 
0.631675 2.170528 0.000000 
0.601833 2.146473 0.000000 
0.569607 2.123215 0.000000 
0.534059 2.101138 0.000000 
0.492599 2.079998 0.000000 
0.444403 2.061333 0.000000 
0.762807 2.143531 0.000000 
-1.708694 -0.354103 0.000000 
-1.726386 -0.313840 0.000000 
-1.761257 -0.289819 0.000000 
-1.812853 -0.281971 0.000000 
-0.690422 -0.534306 0.000000 
-0.624256 -0.552234 0.000000 
-0.561079 -0.560415 0.000000 
-0.500739 -0.561871 0.000000 
-0.445387 -0.561933 0.000000 
0.532260 -0.308024 0.000000 
0.536647 -0.238691 0.000000 
-1.881389 -0.269470 0.000000 
-0.389303 -0.559659 0.000000 
-0.340338 -0.544373 0.000000 
-0.344339 -0.490238 0.000000 
-0.358558 -0.437699 0.000000 
-0.381750 -0.396787 0.000000 
-0.406193 -0.362613 0.000000 
-0.417316 -0.331115 0.000000 
-0.428320 -0.296858 0.000000 
-0.436973 -0.252593 0.000000 
-0.444212 -0.197051 0.000000 
-0.452662 -0.138192 0.000000 
-0.468602 -0.081293 0.000000 
0.553166 -0.173976 0.000000 
0.573193 -0.116305 0.000000 
0.574450 -0.064564 0.000000 
0.561087 -0.014245 0.000000 
0.550432 0.041078 0.000000 
0.748903 2.090213 0.000000 
0.730940 2.033721 0.000000 
0.715868 1.987562 0.000000 
0.699446 1.951434 0.000000 
0.684888 1.910444 0.000000 
0.675900 1.864240 0.000000 
0.669871 1.814680 0.000000 
0.664455 1.766823 0.000000 
0.668163 1.720404 0.000000 
0.672091 1.670570 0.000000 
0.674558 1.622546 0.000000 
0.673045 1.572467 0.000000 
0.386491 2.051653 0.000000 
0.664855 1.513728 0.000000 
0.652298 1.455651 0.000000 
0.638456 1.402001 0.000000 
0.623121 1.352491 0.000000 
0.616008 1.309463 0.000000 
0.600787 1.274521 0.000000 
0.571289 1.245072 0.000000 
0.539016 1.213911 0.000000 
0.513857 1.185012 0.000000 
0.493343 1.158777 0.000000 
0.469109 1.140964 0.000000 
0.444920 1.124520 0.000000 
0.415324 1.103554 0.000000 
0.383540 1.078802 0.000000 
0.356179 1.049470 0.000000 
0.343879 1.010570 0.000000 
0.337476 0.965050 0.000000 
0.332404 0.919763 0.000000 
0.328512 0.880073 0.000000 
0.319594 0.843994 0.000000 
0.304149 0.810583 0.000000 
0.290502 0.770192 0.000000 
0.275896 0.722329 0.000000 
0.261905 0.680360 0.000000 
0.250150 0.646765 0.000000 
0.250896 0.608960 0.000000 
0.259587 0.566357 0.000000 
0.284617 0.523584 0.000000 
0.315237 0.493922 0.000000 
0.340022 0.474486 0.000000 
0.354380 0.448637 0.000000 
0.368685 0.421494 0.000000 
0.385568 0.395098 0.000000 
0.415372 0.370301 0.000000 
0.447119 0.338589 0.000000 
0.477633 0.310672 0.000000 
0.503078 0.282736 0.000000 
0.518876 0.244681 0.000000 
0.527127 0.208713 0.000000 
0.534187 0.164167 0.000000 
0.543185 0.103387 0.000000 
0.322519 2.040597 0.000000 
0.263849 2.027480 0.000000 
0.208223 2.022060 0.000000 
0.150441 2.018232 0.000000 
-0.687392 -0.461239 0.000000 
-3.327058 2.065834 0.000000 
-3.276080 2.019413 0.000000 
-3.224941 1.985826 0.000000 
-3.181728 1.956668 0.000000 
-3.135074 1.919738 0.000000 
-3.078123 1.895445 0.000000 
-1.944260 -0.224592 0.000000 
0.083204 2.023388 0.000000 
0.005786 2.018035 0.000000 
-0.071812 2.027273 0.000000 
-0.135705 2.056815 0.000000 
-0.182391 2.098420 0.000000 
-1.999041 -0.153623 0.000000 
-1.843230 -0.428132 0.000000 
-0.491126 -0.017333 0.000000 
-0.512312 0.055909 0.000000 
-0.526535 0.118742 0.000000 
-0.527935 0.180864 0.000000 
-0.524207 0.248034 0.000000 
-0.505864 0.305166 0.000000 
-0.468875 0.354377 0.000000 
-0.410369 0.383623 0.000000 
-0.354013 0.404740 0.000000 
-0.301050 0.414685 0.000000 
-0.255730 0.415458 0.000000 
-0.695595 -0.382943 0.000000 
-0.726457 -0.306062 0.000000 
-0.747352 -0.236606 0.000000 
-3.396487 2.008699 0.000000 
-3.344056 1.929311 0.000000 
-3.294256 1.885910 0.000000 
-3.248246 1.847586 0.000000 
-3.196818 1.808232 0.000000 
-3.159669 1.756922 0.000000 
-3.113281 1.710218 0.000000 
-3.056061 1.690654 0.000000 
-2.996684 1.668029 0.000000 
-2.933161 1.638413 0.000000 
-2.879064 1.602270 0.000000 
-2.813006 1.577485 0.000000 
-2.751664 1.554435 0.000000 
-2.686782 1.525112 0.000000 
-1.922020 -0.425325 0.000000 
-1.999705 -0.426824 0.000000 
-2.060018 -0.405220 0.000000 
-2.032615 -0.070233 0.000000 
-2.048550 0.015489 0.000000 
-2.029059 0.081382 0.000000 
-2.105228 -0.348162 0.000000 
-2.154373 -0.280567 0.000000 
-2.203584 -0.225944 0.000000 
-2.237020 -0.164508 0.000000 
-2.250593 -0.099215 0.000000 
-2.270119 -0.027431 0.000000 
-2.297898 0.042879 0.000000 
-2.327118 0.104459 0.000000 
-2.346747 0.158429 0.000000 
-2.362840 0.211538 0.000000 
-2.374561 0.262583 0.000000 
-2.373128 0.314558 0.000000 
-2.334174 0.381149 0.000000 
-2.331842 0.421767 0.000000 
-2.284565 0.430525 0.000000 
-0.236368 2.147956 0.000000 
-0.299146 2.191782 0.000000 
-0.346614 2.211708 0.000000 
-0.382877 2.175205 0.000000 
-0.412447 2.146155 0.000000 
-0.433989 2.105867 0.000000 
-0.446472 2.062901 0.000000 
-0.451628 2.023583 0.000000 
-0.451047 1.985120 0.000000 
-0.449242 1.949117 0.000000 
-0.453345 1.917227 0.000000 
-0.460251 1.889534 0.000000 
-0.470304 1.860749 0.000000 
-0.475290 1.831259 0.000000 
-0.478341 1.801473 0.000000 
-0.479442 1.764737 0.000000 
-2.609147 1.511323 0.000000 
-2.517189 1.505824 0.000000 
-2.434013 1.506161 0.000000 
-2.352624 1.496129 0.000000 
-2.274410 1.476758 0.000000 
-2.204499 1.442110 0.000000 
-2.180326 1.373227 0.000000 
-2.178559 1.284691 0.000000 
-2.168273 1.194662 0.000000 
-2.159086 1.096598 0.000000 
-2.144575 1.007439 0.000000 
-2.163040 0.932222 0.000000 
-2.183612 0.858130 0.000000 
-2.172907 0.793573 0.000000 
-2.161614 0.730818 0.000000 
-2.169833 0.670706 0.000000 
-2.188987 0.608952 0.000000 
-2.218663 0.557707 0.000000 
-2.229021 0.501834 0.000000 
-2.997130 1.878648 0.000000 
-3.021908 1.780510 0.000000 
-2.902046 1.847141 0.000000 
-0.770600 -0.154013 0.000000 
-0.790096 -0.062354 0.000000 
-0.811857 0.018354 0.000000 
-0.835807 0.096918 0.000000 
-0.859157 0.167046 0.000000 
-0.881226 0.227097 0.000000 
-0.903169 0.286448 0.000000 
-0.928196 0.350492 0.000000 
-2.785442 1.814587 0.000000 
-2.944278 1.753845 0.000000 
-2.855014 1.716700 0.000000 
-2.796189 1.656620 0.000000 
-2.651235 1.799841 0.000000 
-2.517962 1.789494 0.000000 
-2.394240 1.780331 0.000000 
-2.275192 1.772335 0.000000 
-2.180847 1.747774 0.000000 
-2.099904 1.721294 0.000000 
-2.018420 1.690055 0.000000 
-1.945469 1.694352 0.000000 
-1.885190 1.727692 0.000000 
-1.829736 1.748261 0.000000 
-1.760875 1.773492 0.000000 
-1.680504 1.801917 0.000000 
-1.617798 1.820233 0.000000 
-1.570169 1.834757 0.000000 
-1.527149 1.848947 0.000000 
-1.482581 1.861076 0.000000 
-1.433927 1.867617 0.000000 
-1.386311 1.875531 0.000000 
-1.337319 1.884262 0.000000 
-1.286363 1.891341 0.000000 
-1.235962 1.892059 0.000000 
-1.188452 1.896872 0.000000 
-1.140860 1.906323 0.000000 
-1.091558 1.905632 0.000000 
-1.038962 1.894614 0.000000 
-0.982519 1.875616 0.000000 
-0.922315 1.858874 0.000000 
-0.869867 1.848549 0.000000 
-0.827747 1.842059 0.000000 
-0.785371 1.837147 0.000000 
-0.748025 1.827410 0.000000 
-0.712781 1.817143 0.000000 
-0.681690 1.803211 0.000000 
-0.657198 1.792077 0.000000 
-0.633895 1.785414 0.000000 
-0.612002 1.780958 0.000000 
-0.594184 1.773746 0.000000 
-0.577381 1.764295 0.000000 
-0.560109 1.749012 0.000000 
-0.540091 1.716558 0.000000 
-1.243914 0.077712 0.000000 
-1.232782 0.091429 0.000000 
-1.257376 0.063358 0.000000 
-1.224378 0.110129 0.000000 
-1.271472 0.044013 0.000000 
-1.215702 0.132126 0.000000 
-1.204660 0.158182 0.000000 
-1.290143 0.016271 0.000000 
-1.314447 -0.028769 0.000000 
-1.190204 0.188488 0.000000 
-1.318041 -0.082123 0.000000 
-1.171655 0.222645 0.000000 
-1.149359 0.258959 0.000000 
-1.123094 0.297207 0.000000 
-1.284246 -0.132103 0.000000 
-1.239750 -0.182829 0.000000 
-1.083297 0.341199 0.000000 
-1.028190 0.372870 0.000000 
-1.181630 -0.225185 0.000000 
-1.112789 -0.256613 0.000000 
-1.040643 -0.268783 0.000000 
-0.978118 -0.271870 0.000000 
-0.927392 -0.284895 0.000000 
-0.889718 -0.324030 0.000000 
-0.873564 -0.380580 0.000000 
-0.920771 -0.412774 0.000000 
-0.935346 -0.345506 0.000000 
-0.991249 -0.422350 0.000000 
-1.088918 -0.419622 0.000000 
-1.067426 -0.339970 0.000000 
-1.189474 -0.412059 0.000000 
-1.147229 -0.327303 0.000000 
-1.266509 -0.388769 0.000000 
-1.219913 -0.301125 0.000000 
-1.335307 -0.352942 0.000000 
-1.284456 -0.263126 0.000000 
-1.402357 -0.309038 0.000000 
-1.341444 -0.215326 0.000000 
-1.466758 -0.256363 0.000000 
-1.539152 -0.195563 0.000000 
-1.393011 -0.157395 0.000000 
-1.612839 -0.125292 0.000000 
-1.665320 -0.067714 0.000000 
-1.691220 -0.002887 0.000000 
-1.704696 0.082607 0.000000 
-1.850073 0.249476 0.000000 
-1.911042 0.193651 0.000000 
-1.969645 0.136814 0.000000 
-1.726970 0.189017 0.000000 
-0.222881 0.396847 0.000000 
-0.195707 0.369264 0.000000 
-0.164205 0.332317 0.000000 
-0.127520 0.299619 0.000000 
-0.095686 0.270127 0.000000 
-0.059027 0.241649 0.000000 
-0.018954 0.211666 0.000000 
0.030296 0.180395 0.000000 
0.086536 0.159869 0.000000 
0.141893 0.141138 0.000000 
0.202102 0.111858 0.000000 
0.263408 0.071941 0.000000 
0.311661 0.021954 0.000000 
0.333954 -0.037669 0.000000 
0.338621 -0.098119 0.000000 
0.341530 -0.152057 0.000000 
0.353165 -0.202246 0.000000 
0.365710 -0.260669 0.000000 
0.363543 -0.330197 0.000000 
[...]
POINT_DATA 899 
VECTORS X_GC float 
-3.648847 2.336867 0.000000 
-3.619410 2.296315 0.000000 
-3.578536 2.260720 0.000000 
-3.540028 2.225069 0.000000 
-3.511690 2.192874 0.000000 
-3.481362 2.163016 0.000000 
-3.451569 2.122342 0.000000 
0.772356 2.239381 0.000000 
0.774615 2.213260 0.000000 
0.769962 2.184505 0.000000 
-3.399514 2.092066 0.000000 
0.413960 -0.552776 0.000000 
0.455573 -0.548473 0.000000 
-1.762619 -0.452671 0.000000 
-1.783389 -0.417275 0.000000 
-1.714437 -0.388486 0.000000 
0.732567 2.233705 0.000000 
0.698438 2.219869 0.000000 
0.491831 -0.534270 0.000000 
0.519501 -0.503865 0.000000 
0.530556 -0.463419 0.000000 
0.532354 -0.417615 0.000000 
0.531774 -0.367108 0.000000 
-3.460923 2.030333 0.000000 
0.663989 2.197923 0.000000 
0.631675 2.170528 0.000000 
0.601833 2.146473 0.000000 
0.569607 2.123215 0.000000 
0.534059 2.101138 0.000000 
0.492599 2.079998 0.000000 
0.444403 2.061333 0.000000 
0.762807 2.143531 0.000000 
-1.708694 -0.354103 0.000000 
-1.726386 -0.313840 0.000000 
-1.761257 -0.289819 0.000000 
-1.812853 -0.281971 0.000000 
-0.690422 -0.534306 0.000000 
-0.624256 -0.552234 0.000000 
-0.561079 -0.560415 0.000000 
-0.500739 -0.561871 0.000000 
-0.445387 -0.561933 0.000000 
0.532260 -0.308024 0.000000 
0.536647 -0.238691 0.000000 
-1.881389 -0.269470 0.000000 
-0.389303 -0.559659 0.000000 
-0.340338 -0.544373 0.000000 
-0.344339 -0.490238 0.000000 
-0.358558 -0.437699 0.000000 
-0.381750 -0.396787 0.000000 
-0.406193 -0.362613 0.000000 
-0.417316 -0.331115 0.000000 
-0.428320 -0.296858 0.000000 
-0.436973 -0.252593 0.000000 
-0.444212 -0.197051 0.000000 
-0.452662 -0.138192 0.000000 
-0.468602 -0.081293 0.000000 
0.553166 -0.173976 0.000000 
0.573193 -0.116305 0.000000 
0.574450 -0.064564 0.000000 
0.561087 -0.014245 0.000000 
0.550432 0.041078 0.000000 
0.748903 2.090213 0.000000 
0.730940 2.033721 0.000000 
0.715868 1.987562 0.000000 
0.699446 1.951434 0.000000 
0.684888 1.910444 0.000000 
0.675900 1.864240 0.000000 
0.669871 1.814680 0.000000 
0.664455 1.766823 0.000000 
0.668163 1.720404 0.000000 
0.672091 1.670570 0.000000 
0.674558 1.622546 0.000000 
0.673045 1.572467 0.000000 
0.386491 2.051653 0.000000 
0.664855 1.513728 0.000000 
0.652298 1.455651 0.000000 
0.638456 1.402001 0.000000 
0.623121 1.352491 0.000000 
0.616008 1.309463 0.000000 
0.600787 1.274521 0.000000 
0.571289 1.245072 0.000000 
0.539016 1.213911 0.000000 
0.513857 1.185012 0.000000 
0.493343 1.158777 0.000000 
0.469109 1.140964 0.000000 
0.444920 1.124520 0.000000 
0.415324 1.103554 0.000000 
0.383540 1.078802 0.000000 
0.356179 1.049470 0.000000 
0.343879 1.010570 0.000000 
0.337476 0.965050 0.000000 
0.332404 0.919763 0.000000 
0.328512 0.880073 0.000000 
0.319594 0.843994 0.000000 
0.304149 0.810583 0.000000 
0.290502 0.770192 0.000000 
0.275896 0.722329 0.000000 
0.261905 0.680360 0.000000 
0.250150 0.646765 0.000000 
0.250896 0.608960 0.000000 
0.259587 0.566357 0.000000 
0.284617 0.523584 0.000000 
0.315237 0.493922 0.000000 
0.340022 0.474486 0.000000 
0.354380 0.448637 0.000000 
0.368685 0.421494 0.000000 
0.385568 0.395098 0.000000 
0.415372 0.370301 0.000000 
0.447119 0.338589 0.000000 
0.477633 0.310672 0.000000 
0.503078 0.282736 0.000000 
0.518876 0.244681 0.000000 
0.527127 0.208713 0.000000 
0.534187 0.164167 0.000000 
0.543185 0.103387 0.000000 
0.322519 2.040597 0.000000 
0.263849 2.027480 0.000000 
0.208223 2.022060 0.000000 
0.150441 2.018232 0.000000 
-0.687392 -0.461239 0.000000 
-3.327058 2.065834 0.000000 
-3.276080 2.019413 0.000000 
-3.224941 1.985826 0.000000 
-3.181728 1.956668 0.000000 
-3.135074 1.919738 0.000000 
-3.078123 1.895445 0.000000 
-1.944260 -0.224592 0.000000 
0.083204 2.023388 0.000000 
0.005786 2.018035 0.000000 
-0.071812 2.027273 0.000000 
-0.135705 2.056815 0.000000 
-0.182391 2.098420 0.000000 
-1.999041 -0.153623 0.000000 
-1.843230 -0.428132 0.000000 
-0.491126 -0.017333 0.000000 
-0.512312 0.055909 0.000000 
-0.526535 0.118742 0.000000 
-0.527935 0.180864 0.000000 
-0.524207 0.248034 0.000000 
-0.505864 0.305166 0.000000 
-0.468875 0.354377 0.000000 
-0.410369 0.383623 0.000000 
-0.354013 0.404740 0.000000 
-0.301050 0.414685 0.000000 
-0.255730 0.415458 0.000000 
-0.695595 -0.382943 0.000000 
-0.726457 -0.306062 0.000000 
-0.747352 -0.236606 0.000000 
-3.396487 2.008699 0.000000 
-3.344056 1.929311 0.000000 
-3.294256 1.885910 0.000000 
-3.248246 1.847586 0.000000 
-3.196818 1.808232 0.000000 
-3.159669 1.756922 0.000000 
-3.113281 1.710218 0.000000 
-3.056061 1.690654 0.000000 
-2.996684 1.668029 0.000000 
-2.933161 1.638413 0.000000 
-2.879064 1.602270 0.000000 
-2.813006 1.577485 0.000000 
-2.751664 1.554435 0.000000 
-2.686782 1.525112 0.000000 
-1.922020 -0.425325 0.000000 
-1.999705 -0.426824 0.000000 
-2.060018 -0.405220 0.000000 
-2.032615 -0.070233 0.000000 
-2.048550 0.015489 0.000000 
-2.029059 0.081382 0.000000 
-2.105228 -0.348162 0.000000 
-2.154373 -0.280567 0.000000 
-2.203584 -0.225944 0.000000 
-2.237020 -0.164508 0.000000 
-2.250593 -0.099215 0.000000 
-2.270119 -0.027431 0.000000 
-2.297898 0.042879 0.000000 
-2.327118 0.104459 0.000000 
-2.346747 0.158429 0.000000 
-2.362840 0.211538 0.000000 
-2.374561 0.262583 0.000000 
-2.373128 0.314558 0.000000 
-2.334174 0.381149 0.000000 
-2.331842 0.421767 0.000000 
-2.284565 0.430525 0.000000 
-0.236368 2.147956 0.000000 
-0.299146 2.191782 0.000000 
-0.346614 2.211708 0.000000 
-0.382877 2.175205 0.000000 
-0.412447 2.146155 0.000000 
-0.433989 2.105867 0.000000 
-0.446472 2.062901 0.000000 
-0.451628 2.023583 0.000000 
-0.451047 1.985120 0.000000 
-0.449242 1.949117 0.000000 
-0.453345 1.917227 0.000000 
-0.460251 1.889534 0.000000 
-0.470304 1.860749 0.000000 
-0.475290 1.831259 0.000000 
-0.478341 1.801473 0.000000 
-0.479442 1.764737 0.000000 
-2.609147 1.511323 0.000000 
-2.517189 1.505824 0.000000 
-2.434013 1.506161 0.000000 
-2.352624 1.496129 0.000000 
-2.274410 1.476758 0.000000 
-2.204499 1.442110 0.000000 
-2.180326 1.373227 0.000000 
-2.178559 1.284691 0.000000 
-2.168273 1.194662 0.000000 
-2.159086 1.096598 0.000000 
-2.144575 1.007439 0.000000 
-2.163040 0.932222 0.000000 
-2.183612 0.858130 0.000000 
-2.172907 0.793573 0.000000 
-2.161614 0.730818 0.000000 
-2.169833 0.670706 0.000000 
-2.188987 0.608952 0.000000 
-2.218663 0.557707 0.000000 
-2.229021 0.501834 0.000000 
-2.997130 1.878648 0.000000 
-3.021908 1.780510 0.000000 
-2.902046 1.847141 0.000000 
-0.770600 -0.154013 0.000000 
-0.790096 -0.062354 0.000000 
-0.811857 0.018354 0.000000 
-0.835807 0.096918 0.000000 
-0.859157 0.167046 0.000000 
-0.881226 0.227097 0.000000 
-0.903169 0.286448 0.000000 
-0.928196 0.350492 0.000000 
-2.785442 1.814587 0.000000 
-2.944278 1.753845 0.000000 
-2.855014 1.716700 0.000000 
-2.796189 1.656620 0.000000 
-2.651235 1.799841 0.000000 
-2.517962 1.789494 0.000000 
-2.394240 1.780331 0.000000 
-2.275192 1.772335 0.000000 
-2.180847 1.747774 0.000000 
-2.099904 1.721294 0.000000 
-2.018420 1.690055 0.000000 
-1.945469 1.694352 0.000000 
-1.885190 1.727692 0.000000 
-1.829736 1.748261 0.000000 
-1.760875 1.773492 0.000000 
-1.680504 1.801917 0.000000 
-1.617798 1.820233 0.000000 
-1.570169 1.834757 0.000000 
-1.527149 1.848947 0.000000 
-1.482581 1.861076 0.000000 
-1.433927 1.867617 0.000000 
-1.386311 1.875531 0.000000 
-1.337319 1.884262 0.000000 
-1.286363 1.891341 0.000000 
-1.235962 1.892059 0.000000 
-1.188452 1.896872 0.000000 
-1.140860 1.906323 0.000000 
-1.091558 1.905632 0.000000 
-1.038962 1.894614 0.000000 
-0.982519 1.875616 0.000000 
-0.922315 1.858874 0.000000 
-0.869867 1.848549 0.000000 
-0.827747 1.842059 0.000000 
-0.785371 1.837147 0.000000 
-0.748025 1.827410 0.000000 
-0.712781 1.817143 0.000000 
-0.681690 1.803211 0.000000 
-0.657198 1.792077 0.000000 
-0.633895 1.785414 0.000000 
-0.612002 1.780958 0.000000 
-0.594184 1.773746 0.000000 
-0.577381 1.764295 0.000000 
-0.560109 1.749012 0.000000 
-0.540091 1.716558 0.000000 
-1.243914 0.077712 0.000000 
-1.232782 0.091429 0.000000 
-1.257376 0.063358 0.000000 
-1.224378 0.110129 0.000000 
-1.271472 0.044013 0.000000 
-1.215702 0.132126 0.000000 
-1.204660 0.158182 0.000000 
-1.290143 0.016271 0.000000 
-1.314447 -0.028769 0.000000 
-1.190204 0.188488 0.000000 
-1.318041 -0.082123 0.000000 
-1.171655 0.222645 0.000000 
-1.149359 0.258959 0.000000 
-1.123094 0.297207 0.000000 
-1.284246 -0.132103 0.000000 
-1.239750 -0.182829 0.000000 
-1.083297 0.341199 0.000000 
-1.028190 0.372870 0.000000 
-1.181630 -0.225185 0.000000 
-1.112789 -0.256613 0.000000 
-1.040643 -0.268783 0.000000 
-0.978118 -0.271870 0.000000 
-0.927392 -0.284895 0.000000 
-0.889718 -0.324030 0.000000 
-0.873564 -0.380580 0.000000 
-0.920771 -0.412774 0.000000 
-0.935346 -0.345506 0.000000 
-0.991249 -0.422350 0.000000 
-1.088918 -0.419622 0.000000 
-1.067426 -0.339970 0.000000 
-1.189474 -0.412059 0.000000 
-1.147229 -0.327303 0.000000 
-1.266509 -0.388769 0.000000 
-1.219913 -0.301125 0.000000 
-1.335307 -0.352942 0.000000 
-1.284456 -0.263126 0.000000 
-1.402357 -0.309038 0.000000 
-1.341444 -0.215326 0.000000 
-1.466758 -0.256363 0.000000 
-1.539152 -0.195563 0.000000 
-1.393011 -0.157395 0.000000 
-1.612839 -0.125292 0.000000 
-1.665320 -0.067714 0.000000 
-1.691220 -0.002887 0.000000 
-1.704696 0.082607 0.000000 
-1.850073 0.249476 0.000000 
-1.911042 0.193651 0.000000 
-1.969645 0.136814 0.000000 
-1.726970 0.189017 0.000000 
-0.222881 0.396847 0.000000 
-0.195707 0.369264 0.000000 
-0.164205 0.332317 0.000000 
-0.127520 0.299619 0.000000 
-0.095686 0.270127 0.000000 
-0.059027 0.241649 0.000000 
-0.018954 0.211666 0.000000 
0.030296 0.180395 0.000000 
0.086536 0.159869 0.000000 
0.141893 0.141138 0.000000 
0.202102 0.111858 0.000000 
0.263408 0.071941 0.000000 
0.311661 0.021954 0.000000 
0.333954 -0.037669 0.000000 
0.338621 -0.098119 0.000000 
0.341530 -0.152057 0.000000 
0.353165 -0.202246 0.000000 
0.365710 -0.260669 0.000000 
0.363543 -0.330197 0.000000 
0.357353 -0.392312 0.000000 
0.351188 -0.443054 0.000000 
0.363842 -0.490082 0.000000 
-1.737069 -0.356734 0.000000 
-0.199590 0.449464 0.000000 
-0.156305 0.419548 0.000000 
-0.462327 1.685504 0.000000 
0.741313 2.208079 0.000000 
0.482415 -0.500853 0.000000 
0.446104 -0.508749 0.000000 
0.403556 -0.514404 0.000000 
-0.104001 0.391483 0.000000 
-0.514998 1.617559 0.000000 
-0.059937 0.357079 0.000000 
0.738519 2.182814 0.000000 
0.714572 2.195114 0.000000 
-0.249752 0.476288 0.000000 
-0.036232 0.313280 0.000000 
0.000772 0.285448 0.000000 
0.035161 0.259803 0.000000 
-1.776537 -0.356175 0.000000 
-1.836238 -0.351990 0.000000 
-0.309416 0.490388 0.000000 
-0.378944 0.488124 0.000000 
-2.292732 0.367712 0.000000 
-2.315166 0.317721 0.000000 
-2.314418 0.270164 0.000000 
-2.293418 0.223778 0.000000 
-2.279687 0.173899 0.000000 
-2.253462 0.126633 0.000000 
0.075120 0.232061 0.000000 
0.131113 0.219453 0.000000 
-0.977004 0.421436 0.000000 
-0.860050 0.411271 0.000000 
-1.912142 -0.343934 0.000000 
-1.989966 -0.352714 0.000000 
-2.023752 -0.285172 0.000000 
-2.082175 -0.213911 0.000000 
0.723889 2.151300 0.000000 
0.691466 2.170143 0.000000 
0.665980 2.137497 0.000000 
0.704783 2.110228 0.000000 
0.637970 2.099439 0.000000 
0.681732 2.063020 0.000000 
0.670916 2.016845 0.000000 
0.602858 2.067771 0.000000 
0.659584 1.976421 0.000000 
0.560783 2.041400 0.000000 
0.636111 1.940346 0.000000 
0.607495 1.890555 0.000000 
0.595324 1.827075 0.000000 
0.604052 1.762402 0.000000 
0.514160 2.011996 0.000000 
0.453857 1.984551 0.000000 
0.392525 1.982573 0.000000 
0.334098 1.981044 0.000000 
0.278675 1.962291 0.000000 
0.217273 1.944215 0.000000 
0.149449 1.926860 0.000000 
0.614128 1.710126 0.000000 
0.621313 1.662547 0.000000 
0.624262 1.617667 0.000000 
-2.197766 0.073445 0.000000 
-2.158682 -0.001479 0.000000 
-2.124695 0.132775 0.000000 
-2.150589 -0.167606 0.000000 
-2.141926 -0.090060 0.000000 
-0.393439 -0.506620 0.000000 
-0.412631 -0.462577 0.000000 
-0.436983 -0.421973 0.000000 
-0.445953 -0.378554 0.000000 
-0.458251 -0.345728 0.000000 
-0.479726 -0.310961 0.000000 
-0.496934 -0.262230 0.000000 
-0.509002 -0.207147 0.000000 
-0.517157 -0.152816 0.000000 
-0.545309 -0.101541 0.000000 
-0.442273 -0.504014 0.000000 
-0.496002 -0.494497 0.000000 
-0.557668 -0.496604 0.000000 
-0.618975 -0.481123 0.000000 
-0.334659 2.149895 0.000000 
-0.367985 2.120178 0.000000 
-0.385153 2.083752 0.000000 
-0.396797 2.049885 0.000000 
-0.406285 2.014362 0.000000 
-0.402558 1.975229 0.000000 
-0.406645 1.936786 0.000000 
-0.418378 1.904371 0.000000 
-0.428059 1.875246 0.000000 
-0.435849 1.845699 0.000000 
-0.442335 1.815664 0.000000 
-0.445406 1.782599 0.000000 
-0.444483 1.736882 0.000000 
0.619822 1.571935 0.000000 
-1.077870 0.468500 0.000000 
-1.149036 0.426541 0.000000 
-1.174735 0.351699 0.000000 
-1.192231 0.299975 0.000000 
-1.210811 0.258199 0.000000 
-1.228352 0.218859 0.000000 
-1.238869 0.180879 0.000000 
-1.244643 0.149382 0.000000 
-1.248534 0.124481 0.000000 
-1.252336 0.105193 0.000000 
-1.262323 0.091942 0.000000 
-1.280319 0.081026 0.000000 
-0.451814 0.465464 0.000000 
-0.526928 0.421942 0.000000 
0.194935 0.202461 0.000000 
0.069048 1.912760 0.000000 
-0.574175 0.351258 0.000000 
-0.593607 0.270155 0.000000 
-1.764101 0.309839 0.000000 
-2.210991 0.428696 0.000000 
-0.825996 0.325994 0.000000 
-0.799223 0.254913 0.000000 
-0.760911 0.188480 0.000000 
0.605964 1.520983 0.000000 
0.587834 1.463623 0.000000 
0.576354 1.403775 0.000000 
0.574971 1.348766 0.000000 
0.580375 1.305742 0.000000 
0.545179 1.283358 0.000000 
0.509957 1.251095 0.000000 
0.484198 1.214693 0.000000 
0.468721 1.183539 0.000000 
0.449386 1.165007 0.000000 
0.422962 1.152342 0.000000 
0.391379 1.133191 0.000000 
0.357154 1.109128 0.000000 
0.323730 1.080755 0.000000 
-0.582151 -0.040673 0.000000 
0.265957 0.176031 0.000000 
0.333763 0.129901 0.000000 
0.378371 0.062886 0.000000 
0.400918 -0.011509 0.000000 
0.401084 -0.074498 0.000000 
0.404345 -0.128599 0.000000 
0.432648 -0.179681 0.000000 
0.450030 -0.244122 0.000000 
0.529803 -0.090969 0.000000 
0.491947 -0.139106 0.000000 
0.453243 -0.089223 0.000000 
0.449550 -0.318446 0.000000 
0.498420 -0.045095 0.000000 
0.474171 0.014846 0.000000 
0.457863 0.089419 0.000000 
0.462195 -0.377100 0.000000 
0.478704 -0.423436 0.000000 
0.483460 -0.464402 0.000000 
0.412910 -0.402742 0.000000 
0.398390 -0.441455 0.000000 
0.404290 -0.475743 0.000000 
0.442452 -0.471184 0.000000 
0.436659 -0.436020 0.000000 
-0.727378 0.114347 0.000000 
-0.616071 0.196365 0.000000 
-0.623548 0.122084 0.000000 
-0.605779 0.041077 0.000000 
-0.706340 0.028629 0.000000 
-0.681483 -0.057633 0.000000 
-0.032304 1.907199 0.000000 
-0.128010 1.943349 0.000000 
-0.195732 2.010473 0.000000 
-0.243911 2.064387 0.000000 
-0.287859 2.111790 0.000000 
-0.335518 2.084095 0.000000 
-0.667608 -0.143014 0.000000 
-0.584906 -0.149782 0.000000 
-0.658169 -0.223023 0.000000 
-0.578442 -0.215152 0.000000 
-0.639050 -0.294465 0.000000 
-0.607982 -0.369982 0.000000 
-0.562541 -0.277852 0.000000 
-0.536184 -0.338875 0.000000 
-0.495978 -0.376837 0.000000 
-0.500680 -0.429231 0.000000 
-0.573051 -0.433684 0.000000 
-2.690892 1.680494 0.000000 
-2.684799 1.594481 0.000000 
-2.602920 1.593219 0.000000 
-2.574381 1.678212 0.000000 
-2.518122 1.613086 0.000000 
-2.424460 1.636984 0.000000 
-2.320006 1.628053 0.000000 
-2.229986 1.604435 0.000000 
-2.146342 1.563195 0.000000 
-1.455055 -0.098414 0.000000 
-1.387692 -0.018090 0.000000 
-1.339496 0.035238 0.000000 
-1.304977 0.063798 0.000000 
-1.531301 -0.032921 0.000000 
-1.604385 0.011192 0.000000 
-1.592423 0.111873 0.000000 
-1.608296 0.235835 0.000000 
-1.827918 0.434281 0.000000 
0.477873 0.203084 0.000000 
0.477147 0.237983 0.000000 
0.465631 0.272223 0.000000 
-0.587742 1.716432 0.000000 
-0.593403 1.740536 0.000000 
-0.604579 1.753192 0.000000 
-0.619289 1.758878 0.000000 
-0.639577 1.756704 0.000000 
-0.665912 1.758321 0.000000 
-0.697937 1.765307 0.000000 
-0.595692 1.662944 0.000000 
-0.726123 1.780119 0.000000 
-0.757398 1.790689 0.000000 
-0.794522 1.788114 0.000000 
-0.841416 1.785536 0.000000 
-0.894922 1.786897 0.000000 
-0.956071 1.795313 0.000000 
-1.020951 1.814234 0.000000 
-1.077937 1.841869 0.000000 
-1.120258 1.870597 0.000000 
-1.171769 1.846337 0.000000 
0.332207 0.399728 0.000000 
0.333662 0.357993 0.000000 
0.321472 0.428344 0.000000 
0.302407 0.455157 0.000000 
0.214022 0.469819 0.000000 
0.194081 0.530844 0.000000 
0.186716 0.586357 0.000000 
0.189303 0.639129 0.000000 
0.360023 0.318311 0.000000 
0.405131 0.293178 0.000000 
0.201671 0.688375 0.000000 
0.218038 0.738636 0.000000 
0.236652 0.787569 0.000000 
0.256885 0.829503 0.000000 
0.278373 0.857997 0.000000 
0.284019 0.891395 0.000000 
0.276718 0.938143 0.000000 
0.278735 0.994956 0.000000 
0.296322 1.045223 0.000000 
-1.507867 1.798095 0.000000 
-1.548116 1.773452 0.000000 
-1.598023 1.746073 0.000000 
-1.467251 1.812868 0.000000 
-1.422160 1.820152 0.000000 
-1.373311 1.826868 0.000000 
-1.322903 1.834645 0.000000 
-1.275577 1.843891 0.000000 
-1.225048 1.842491 0.000000 
-1.662214 1.722403 0.000000 
-1.732600 1.702464 0.000000 
-1.794687 1.688088 0.000000 
-1.841773 1.658901 0.000000 
-2.078405 0.726174 0.000000 
-2.079214 0.804763 0.000000 
-2.097651 0.648574 0.000000 
-2.129318 0.576835 0.000000 
-2.096743 0.885325 0.000000 
-2.169699 0.521491 0.000000 
-1.991686 0.448491 0.000000 
-1.642187 0.374047 0.000000 
-1.989898 0.281266 0.000000 
-2.064526 0.209454 0.000000 
-1.914688 0.354801 0.000000 
-2.037969 1.137877 0.000000 
-2.021377 1.022193 0.000000 
-2.055796 1.267039 0.000000 
-2.102728 1.369692 0.000000 
-2.047875 1.511995 0.000000 
0.428030 0.258725 0.000000 
0.375625 0.237489 0.000000 
0.313454 0.250590 0.000000 
0.290352 0.396625 0.000000 
0.238487 1.107542 0.000000 
0.440631 0.220618 0.000000 
0.396678 0.180841 0.000000 
0.460488 0.154920 0.000000 
0.523747 1.331033 0.000000 
-2.262588 0.294287 0.000000 
-2.220468 0.350314 0.000000 
-2.218579 0.240776 0.000000 
-2.146376 0.292626 0.000000 
-2.206503 0.175706 0.000000 
0.473879 1.292421 0.000000 
0.446488 1.240089 0.000000 
0.440978 1.196070 0.000000 
0.409581 1.188215 0.000000 
0.629179 2.017110 0.000000 
0.593839 1.984637 0.000000 
0.550362 1.940433 0.000000 
0.483841 1.900011 0.000000 
0.202470 1.041178 0.000000 
0.241245 0.893403 0.000000 
0.205152 0.868602 0.000000 
0.175878 0.820461 0.000000 
0.153326 0.761955 0.000000 
0.132079 0.701505 0.000000 
0.113278 0.637049 0.000000 
0.106000 0.568726 0.000000 
0.109640 0.499530 0.000000 
0.121648 0.428852 0.000000 
0.032483 0.339237 0.000000 
0.246820 0.421916 0.000000 
0.099619 0.287603 0.000000 
0.373127 1.173333 0.000000 
-0.307911 2.036473 0.000000 
-0.360136 2.018003 0.000000 
-0.343252 1.963658 0.000000 
-0.270247 1.971802 0.000000 
0.168337 0.284121 0.000000 
0.242346 0.273784 0.000000 
0.270369 0.342820 0.000000 
0.505525 1.398794 0.000000 
-0.689828 0.226049 0.000000 
-0.729540 0.283453 0.000000 
-0.746154 0.357925 0.000000 
-0.657668 0.374490 0.000000 
-0.661195 0.290203 0.000000 
-0.924642 0.527165 0.000000 
-1.137284 1.790529 0.000000 
-1.072920 1.745935 0.000000 
-1.248127 1.802826 0.000000 
-1.304069 1.786503 0.000000 
-1.360197 1.778843 0.000000 
-1.411221 1.774703 0.000000 
-1.453165 1.771474 0.000000 
-1.486003 1.754012 0.000000 
-1.510814 1.710543 0.000000 
-1.558800 1.665874 0.000000 
-0.995058 1.719181 0.000000 
-0.919611 1.708705 0.000000 
-0.852227 1.715637 0.000000 
-0.796966 1.732156 0.000000 
-0.752732 1.751324 0.000000 
-1.635591 1.638541 0.000000 
-1.992480 0.913242 0.000000 
-1.965104 0.803463 0.000000 
-1.974377 0.700130 0.000000 
-2.014368 0.606508 0.000000 
-2.065453 0.523322 0.000000 
-2.071492 0.370255 0.000000 
-2.131272 0.453792 0.000000 
-1.712039 1.625218 0.000000 
-1.781280 1.625168 0.000000 
-1.884796 1.595111 0.000000 
0.516332 1.814774 0.000000 
0.538779 1.743646 0.000000 
0.517174 1.473179 0.000000 
0.552532 1.535116 0.000000 
0.576896 1.577042 0.000000 
0.583356 1.614068 0.000000 
0.576083 1.651073 0.000000 
0.562288 1.693433 0.000000 