# vtk DataFile Version 3.0 
vtk output 
ASCII 
DATASET UNSTRUCTURED_GRID 
POINTS 899 float 
-3.648847 2.307407 0.000000 
-3.619410 2.266855 0.000000 
-3.578536 2.231261 0.000000 
-3.540028 2.195610 0.000000 
-3.511690 2.163414 0.000000 
-3.481362 2.133556 0.000000 
-3.451569 2.092883 0.000000 
0.772356 2.209921 0.000000 
0.774615 2.183800 0.000000 
0.769962 2.155046 0.000000 
-3.399514 2.062607 0.000000 
0.413960 -0.582235 0.000000 
0.455573 -0.577933 0.000000 
-1.762619 -0.482131 0.000000 
-1.783389 -0.446735 0.000000 
-1.714437 -0.417945 0.000000 
0.732567 2.204246 0.000000 
0.698438 2.190410 0.000000 
0.491831 -0.563730 0.000000 
0.519501 -0.533325 0.000000 
0.530556 -0.492878 0.000000 
0.532354 -0.447074 0.000000 
0.531774 -0.396567 0.000000 
-3.460923 2.000874 0.000000 
0.663989 2.168464 0.000000 
0.631675 2.141069 0.000000 
0.601833 2.117013 0.000000 
0.569607 2.093756 0.000000 
0.534059 2.071678 0.000000 
0.492599 2.050538 0.000000 
0.444403 2.031873 0.000000 
0.762807 2.114072 0.000000 
-1.708694 -0.383563 0.000000 
-1.726386 -0.343299 0.000000 
-1.761257 -0.319279 0.000000 
-1.812853 -0.311430 0.000000 
-0.690422 -0.563765 0.000000 
-0.624256 -0.581693 0.000000 
-0.561079 -0.589875 0.000000 
-0.500739 -0.591330 0.000000 
-0.445387 -0.591393 0.000000 
0.532260 -0.337483 0.000000 
0.536647 -0.268150 0.000000 
-1.881389 -0.298929 0.000000 
-0.389303 -0.589118 0.000000 
-0.340338 -0.573833 0.000000 
-0.344339 -0.519698 0.000000 
-0.358558 -0.467158 0.000000 
-0.381750 -0.426247 0.000000 
-0.406193 -0.392072 0.000000 
-0.417316 -0.360574 0.000000 
-0.428320 -0.326317 0.000000 
-0.436973 -0.282053 0.000000 
-0.444212 -0.226510 0.000000 
-0.452662 -0.167652 0.000000 
-0.468602 -0.110753 0.000000 
0.553166 -0.203435 0.000000 
0.573193 -0.145764 0.000000 
0.574450 -0.094024 0.000000 
0.561087 -0.043704 0.000000 
0.550432 0.011619 0.000000 
0.748903 2.060754 0.000000 
0.730940 2.004261 0.000000 
0.715868 1.958102 0.000000 
0.699446 1.921974 0.000000 
0.684888 1.880985 0.000000 
0.675900 1.834780 0.000000 
0.669871 1.785221 0.000000 
0.664455 1.737364 0.000000 
0.668163 1.690944 0.000000 
0.672091 1.641111 0.000000 
0.674558 1.593087 0.000000 
0.673045 1.543008 0.000000 
0.386491 2.022193 0.000000 
0.664855 1.484269 0.000000 
0.652298 1.426191 0.000000 
0.638456 1.372541 0.000000 
0.623121 1.323031 0.000000 
0.616008 1.280004 0.000000 
0.600787 1.245062 0.000000 
0.571289 1.215613 0.000000 
0.539016 1.184452 0.000000 
0.513857 1.155553 0.000000 
0.493343 1.129317 0.000000 
0.469109 1.111505 0.000000 
0.444920 1.095061 0.000000 
0.415324 1.074095 0.000000 
0.383540 1.049342 0.000000 
0.356179 1.020010 0.000000 
0.343879 0.981111 0.000000 
0.337476 0.935590 0.000000 
0.332404 0.890304 0.000000 
0.328512 0.850614 0.000000 
0.319594 0.814534 0.000000 
0.304149 0.781123 0.000000 
0.290502 0.740732 0.000000 
0.275896 0.692870 0.000000 
0.261905 0.650901 0.000000 
0.250150 0.617306 0.000000 
0.250896 0.579501 0.000000 
0.259587 0.536897 0.000000 
0.284617 0.494124 0.000000 
0.315237 0.464463 0.000000 
0.340022 0.445027 0.000000 
0.354380 0.419178 0.000000 
0.368685 0.392035 0.000000 
0.385568 0.365639 0.000000 
0.415372 0.340842 0.000000 
0.447119 0.309129 0.000000 
0.477633 0.281213 0.000000 
0.503078 0.253276 0.000000 
0.518876 0.215222 0.000000 
0.527127 0.179253 0.000000 
0.534187 0.134708 0.000000 
0.543185 0.073928 0.000000 
0.322519 2.011137 0.000000 
0.263849 1.998021 0.000000 
0.208223 1.992601 0.000000 
0.150441 1.988772 0.000000 
-0.687392 -0.490698 0.000000 
-3.327058 2.036375 0.000000 
-3.276080 1.989953 0.000000 
-3.224941 1.956367 0.000000 
-3.181728 1.927208 0.000000 
-3.135074 1.890278 0.000000 
-3.078123 1.865985 0.000000 
-1.944260 -0.254051 0.000000 
0.083204 1.993928 0.000000 
0.005786 1.988575 0.000000 
-0.071812 1.997814 0.000000 
-0.135705 2.027355 0.000000 
-0.182391 2.068961 0.000000 
-1.999041 -0.183083 0.000000 
-1.843230 -0.457591 0.000000 
-0.491126 -0.046793 0.000000 
-0.512312 0.026450 0.000000 
-0.526535 0.089283 0.000000 
-0.527935 0.151404 0.000000 
-0.524207 0.218574 0.000000 
-0.505864 0.275706 0.000000 
-0.468875 0.324918 0.000000 
-0.410369 0.354163 0.000000 
-0.354013 0.375280 0.000000 
-0.301050 0.385226 0.000000 
-0.255730 0.385998 0.000000 
-0.695595 -0.412403 0.000000 
-0.726457 -0.335521 0.000000 
-0.747352 -0.266066 0.000000 
-3.396487 1.979240 0.000000 
-3.344056 1.899852 0.000000 
-3.294256 1.856451 0.000000 
-3.248246 1.818127 0.000000 
-3.196818 1.778773 0.000000 
-3.159669 1.727463 0.000000 
-3.113281 1.680758 0.000000 
-3.056061 1.661195 0.000000 
-2.996684 1.638570 0.000000 
-2.933161 1.608954 0.000000 
-2.879064 1.572811 0.000000 
-2.813006 1.548026 0.000000 
-2.751664 1.524975 0.000000 
-2.686782 1.495652 0.000000 
-1.922020 -0.454785 0.000000 
-1.999705 -0.456283 0.000000 
-2.060018 -0.434680 0.000000 
-2.032615 -0.099692 0.000000 
-2.048550 -0.013970 0.000000 
-2.029059 0.051923 0.000000 
-2.105228 -0.377621 0.000000 
-2.154373 -0.310027 0.000000 
-2.203584 -0.255403 0.000000 
-2.237020 -0.193968 0.000000 
-2.250593 -0.128675 0.000000 
-2.270119 -0.056891 0.000000 
-2.297898 0.013420 0.000000 
-2.327118 0.074999 0.000000 
-2.346747 0.128969 0.000000 
-2.362840 0.182079 0.000000 
-2.374561 0.233123 0.000000 
-2.373128 0.285099 0.000000 
-2.334174 0.351689 0.000000 
-2.331842 0.392307 0.000000 
-2.284565 0.401066 0.000000 
-0.236368 2.118496 0.000000 
-0.299146 2.162323 0.000000 
-0.346614 2.182248 0.000000 
-0.382877 2.145745 0.000000 
-0.412447 2.116696 0.000000 
-0.433989 2.076408 0.000000 
-0.446472 2.033442 0.000000 
-0.451628 1.994123 0.000000 
-0.451047 1.955661 0.000000 
-0.449242 1.919657 0.000000 
-0.453345 1.887768 0.000000 
-0.460251 1.860075 0.000000 
-0.470304 1.831289 0.000000 
-0.475290 1.801799 0.000000 
-0.478341 1.772014 0.000000 
-0.479442 1.735278 0.000000 
-2.609147 1.481863 0.000000 
-2.517189 1.476365 0.000000 
-2.434013 1.476701 0.000000 
-2.352624 1.466670 0.000000 
-2.274410 1.447299 0.000000 
-2.204499 1.412650 0.000000 
-2.180326 1.343768 0.000000 
-2.178559 1.255231 0.000000 
-2.168273 1.165202 0.000000 
-2.159086 1.067138 0.000000 
-2.144575 0.977980 0.000000 
-2.163040 0.902763 0.000000 
-2.183612 0.828671 0.000000 
-2.172907 0.764113 0.000000 
-2.161614 0.701358 0.000000 
-2.169833 0.641246 0.000000 
-2.188987 0.579493 0.000000 
-2.218663 0.528247 0.000000 
-2.229021 0.472374 0.000000 
-2.997130 1.849188 0.000000 
-3.021908 1.751051 0.000000 
-2.902046 1.817681 0.000000 
-0.770600 -0.183472 0.000000 
-0.790096 -0.091813 0.000000 
-0.811857 -0.011106 0.000000 
-0.835807 0.067458 0.000000 
-0.859157 0.137586 0.000000 
-0.881226 0.197638 0.000000 
-0.903169 0.256988 0.000000 
-0.928196 0.321032 0.000000 
-2.785442 1.785128 0.000000 
-2.944278 1.724386 0.000000 
-2.855014 1.687240 0.000000 
-2.796189 1.627160 0.000000 
-2.651235 1.770382 0.000000 
-2.517962 1.760035 0.000000 
-2.394240 1.750872 0.000000 
-2.275192 1.742875 0.000000 
-2.180847 1.718314 0.000000 
-2.099904 1.691835 0.000000 
-2.018420 1.660595 0.000000 
-1.945469 1.664893 0.000000 
-1.885190 1.698233 0.000000 
-1.829736 1.718801 0.000000 
-1.760875 1.744033 0.000000 
-1.680504 1.772457 0.000000 
-1.617798 1.790774 0.000000 
-1.570169 1.805298 0.000000 
-1.527149 1.819488 0.000000 
-1.482581 1.831617 0.000000 
-1.433927 1.838157 0.000000 
-1.386311 1.846072 0.000000 
-1.337319 1.854802 0.000000 
-1.286363 1.861882 0.000000 
-1.235962 1.862600 0.000000 
-1.188452 1.867413 0.000000 
-1.140860 1.876864 0.000000 
-1.091558 1.876173 0.000000 
-1.038962 1.865154 0.000000 
-0.982519 1.846156 0.000000 
-0.922315 1.829414 0.000000 
-0.869867 1.819089 0.000000 
-0.827747 1.812600 0.000000 
-0.785371 1.807688 0.000000 
-0.748025 1.797951 0.000000 
-0.712781 1.787684 0.000000 
-0.681690 1.773752 0.000000 
-0.657198 1.762618 0.000000 
-0.633895 1.755954 0.000000 
-0.612002 1.751499 0.000000 
-0.594184 1.744286 0.000000 
-0.577381 1.734836 0.000000 
-0.560109 1.719553 0.000000 
-0.540091 1.687098 0.000000 
-1.243914 0.048253 0.000000 
-1.232782 0.061970 0.000000 
-1.257376 0.033899 0.000000 
-1.224378 0.080669 0.000000 
-1.271472 0.014553 0.000000 
-1.215702 0.102666 0.000000 
-1.204660 0.128723 0.000000 
-1.290143 -0.013188 0.000000 
-1.314447 -0.058228 0.000000 
-1.190204 0.159029 0.000000 
-1.318041 -0.111583 0.000000 
-1.171655 0.193185 0.000000 
-1.149359 0.229500 0.000000 
-1.123094 0.267748 0.000000 
-1.284246 -0.161562 0.000000 
-1.239750 -0.212288 0.000000 
-1.083297 0.311739 0.000000 
-1.028190 0.343411 0.000000 
-1.181630 -0.254645 0.000000 
-1.112789 -0.286072 0.000000 
-1.040643 -0.298242 0.000000 
-0.978118 -0.301329 0.000000 
-0.927392 -0.314355 0.000000 
-0.889718 -0.353489 0.000000 
-0.873564 -0.410040 0.000000 
-0.920771 -0.442234 0.000000 
-0.935346 -0.374965 0.000000 
-0.991249 -0.451809 0.000000 
-1.088918 -0.449081 0.000000 
-1.067426 -0.369429 0.000000 
-1.189474 -0.441518 0.000000 
-1.147229 -0.356762 0.000000 
-1.266509 -0.418228 0.000000 
-1.219913 -0.330585 0.000000 
-1.335307 -0.382401 0.000000 
-1.284456 -0.292586 0.000000 
-1.402357 -0.338497 0.000000 
-1.341444 -0.244785 0.000000 
-1.466758 -0.285822 0.000000 
-1.539152 -0.225023 0.000000 
-1.393011 -0.186854 0.000000 
-1.612839 -0.154751 0.000000 
-1.665320 -0.097173 0.000000 
-1.691220 -0.032347 0.000000 
-1.704696 0.053147 0.000000 
-1.850073 0.220016 0.000000 
-1.911042 0.164192 0.000000 
-1.969645 0.107355 0.000000 
-1.726970 0.159558 0.000000 
-0.222881 0.367388 0.000000 
-0.195707 0.339804 0.000000 
-0.164205 0.302857 0.000000 
-0.127520 0.270159 0.000000 
-0.095686 0.240668 0.000000 
-0.059027 0.212190 0.000000 
-0.018954 0.182206 0.000000 
0.030296 0.150935 0.000000 
0.086536 0.130410 0.000000 
0.141893 0.111678 0.000000 
0.202102 0.082398 0.000000 
0.263408 0.042482 0.000000 
0.311661 -0.007505 0.000000 
0.333954 -0.067128 0.000000 
0.338621 -0.127578 0.000000 
0.341530 -0.181517 0.000000 
0.353165 -0.231705 0.000000 
0.365710 -0.290128 0.000000 
0.363543 -0.359657 0.000000 
[...]
POINT_DATA 899 
VECTORS X_GC float 
-3.648847 2.307407 0.000000 
-3.619410 2.266855 0.000000 
-3.578536 2.231261 0.000000 
-3.540028 2.195610 0.000000 
-3.511690 2.163414 0.000000 
-3.481362 2.133556 0.000000 
-3.451569 2.092883 0.000000 
0.772356 2.209921 0.000000 
0.774615 2.183800 0.000000 
0.769962 2.155046 0.000000 
-3.399514 2.062607 0.000000 
0.413960 -0.582235 0.000000 
0.455573 -0.577933 0.000000 
-1.762619 -0.482131 0.000000 
-1.783389 -0.446735 0.000000 
-1.714437 -0.417945 0.000000 
0.732567 2.204246 0.000000 
0.698438 2.190410 0.000000 
0.491831 -0.563730 0.000000 
0.519501 -0.533325 0.000000 
0.530556 -0.492878 0.000000 
0.532354 -0.447074 0.000000 
0.531774 -0.396567 0.000000 
-3.460923 2.000874 0.000000 
0.663989 2.168464 0.000000 
0.631675 2.141069 0.000000 
0.601833 2.117013 0.000000 
0.569607 2.093756 0.000000 
0.534059 2.071678 0.000000 
0.492599 2.050538 0.000000 
0.444403 2.031873 0.000000 
0.762807 2.114072 0.000000 
-1.708694 -0.383563 0.000000 
-1.726386 -0.343299 0.000000 
-1.761257 -0.319279 0.000000 
-1.812853 -0.311430 0.000000 
-0.690422 -0.563765 0.000000 
-0.624256 -0.581693 0.000000 
-0.561079 -0.589875 0.000000 
-0.500739 -0.591330 0.000000 
-0.445387 -0.591393 0.000000 
0.532260 -0.337483 0.000000 
0.536647 -0.268150 0.000000 
-1.881389 -0.298929 0.000000 
-0.389303 -0.589118 0.000000 
-0.340338 -0.573833 0.000000 
-0.344339 -0.519698 0.000000 
-0.358558 -0.467158 0.000000 
-0.381750 -0.426247 0.000000 
-0.406193 -0.392072 0.000000 
-0.417316 -0.360574 0.000000 
-0.428320 -0.326317 0.000000 
-0.436973 -0.282053 0.000000 
-0.444212 -0.226510 0.000000 
-0.452662 -0.167652 0.000000 
-0.468602 -0.110753 0.000000 
0.553166 -0.203435 0.000000 
0.573193 -0.145764 0.000000 
0.574450 -0.094024 0.000000 
0.561087 -0.043704 0.000000 
0.550432 0.011619 0.000000 
0.748903 2.060754 0.000000 
0.730940 2.004261 0.000000 
0.715868 1.958102 0.000000 
0.699446 1.921974 0.000000 
0.684888 1.880985 0.000000 
0.675900 1.834780 0.000000 
0.669871 1.785221 0.000000 
0.664455 1.737364 0.000000 
0.668163 1.690944 0.000000 
0.672091 1.641111 0.000000 
0.674558 1.593087 0.000000 
0.673045 1.543008 0.000000 
0.386491 2.022193 0.000000 
0.664855 1.484269 0.000000 
0.652298 1.426191 0.000000 
0.638456 1.372541 0.000000 
0.623121 1.323031 0.000000 
0.616008 1.280004 0.000000 
0.600787 1.245062 0.000000 
0.571289 1.215613 0.000000 
0.539016 1.184452 0.000000 
0.513857 1.155553 0.000000 
0.493343 1.129317 0.000000 
0.469109 1.111505 0.000000 
0.444920 1.095061 0.000000 
0.415324 1.074095 0.000000 
0.383540 1.049342 0.000000 
0.356179 1.020010 0.000000 
0.343879 0.981111 0.000000 
0.337476 0.935590 0.000000 
0.332404 0.890304 0.000000 
0.328512 0.850614 0.000000 
0.319594 0.814534 0.000000 
0.304149 0.781123 0.000000 
0.290502 0.740732 0.000000 
0.275896 0.692870 0.000000 
0.261905 0.650901 0.000000 
0.250150 0.617306 0.000000 
0.250896 0.579501 0.000000 
0.259587 0.536897 0.000000 
0.284617 0.494124 0.000000 
0.315237 0.464463 0.000000 
0.340022 0.445027 0.000000 
0.354380 0.419178 0.000000 
0.368685 0.392035 0.000000 
0.385568 0.365639 0.000000 
0.415372 0.340842 0.000000 
0.447119 0.309129 0.000000 
0.477633 0.281213 0.000000 
0.503078 0.253276 0.000000 
0.518876 0.215222 0.000000 
0.527127 0.179253 0.000000 
0.534187 0.134708 0.000000 
0.543185 0.073928 0.000000 
0.322519 2.011137 0.000000 
0.263849 1.998021 0.000000 
0.208223 1.992601 0.000000 
0.150441 1.988772 0.000000 
-0.687392 -0.490698 0.000000 
-3.327058 2.036375 0.000000 
-3.276080 1.989953 0.000000 
-3.224941 1.956367 0.000000 
-3.181728 1.927208 0.000000 
-3.135074 1.890278 0.000000 
-3.078123 1.865985 0.000000 
-1.944260 -0.254051 0.000000 
0.083204 1.993928 0.000000 
0.005786 1.988575 0.000000 
-0.071812 1.997814 0.000000 
-0.135705 2.027355 0.000000 
-0.182391 2.068961 0.000000 
-1.999041 -0.183083 0.000000 
-1.843230 -0.457591 0.000000 
-0.491126 -0.046793 0.000000 
-0.512312 0.026450 0.000000 
-0.526535 0.089283 0.000000 
-0.527935 0.151404 0.000000 
-0.524207 0.218574 0.000000 
-0.505864 0.275706 0.000000 
-0.468875 0.324918 0.000000 
-0.410369 0.354163 0.000000 
-0.354013 0.375280 0.000000 
-0.301050 0.385226 0.000000 
-0.255730 0.385998 0.000000 
-0.695595 -0.412403 0.000000 
-0.726457 -0.335521 0.000000 
-0.747352 -0.266066 0.000000 
-3.396487 1.979240 0.000000 
-3.344056 1.899852 0.000000 
-3.294256 1.856451 0.000000 
-3.248246 1.818127 0.000000 
-3.196818 1.778773 0.000000 
-3.159669 1.727463 0.000000 
-3.113281 1.680758 0.000000 
-3.056061 1.661195 0.000000 
-2.996684 1.638570 0.000000 
-2.933161 1.608954 0.000000 
-2.879064 1.572811 0.000000 
-2.813006 1.548026 0.000000 
-2.751664 1.524975 0.000000 
-2.686782 1.495652 0.000000 
-1.922020 -0.454785 0.000000 
-1.999705 -0.456283 0.000000 
-2.060018 -0.434680 0.000000 
-2.032615 -0.099692 0.000000 
-2.048550 -0.013970 0.000000 
-2.029059 0.051923 0.000000 
-2.105228 -0.377621 0.000000 
-2.154373 -0.310027 0.000000 
-2.203584 -0.255403 0.000000 
-2.237020 -0.193968 0.000000 
-2.250593 -0.128675 0.000000 
-2.270119 -0.056891 0.000000 
-2.297898 0.013420 0.000000 
-2.327118 0.074999 0.000000 
-2.346747 0.128969 0.000000 
-2.362840 0.182079 0.000000 
-2.374561 0.233123 0.000000 
-2.373128 0.285099 0.000000 
-2.334174 0.351689 0.000000 
-2.331842 0.392307 0.000000 
-2.284565 0.401066 0.000000 
-0.236368 2.118496 0.000000 
-0.299146 2.162323 0.000000 
-0.346614 2.182248 0.000000 
-0.382877 2.145745 0.000000 
-0.412447 2.116696 0.000000 
-0.433989 2.076408 0.000000 
-0.446472 2.033442 0.000000 
-0.451628 1.994123 0.000000 
-0.451047 1.955661 0.000000 
-0.449242 1.919657 0.000000 
-0.453345 1.887768 0.000000 
-0.460251 1.860075 0.000000 
-0.470304 1.831289 0.000000 
-0.475290 1.801799 0.000000 
-0.478341 1.772014 0.000000 
-0.479442 1.735278 0.000000 
-2.609147 1.481863 0.000000 
-2.517189 1.476365 0.000000 
-2.434013 1.476701 0.000000 
-2.352624 1.466670 0.000000 
-2.274410 1.447299 0.000000 
-2.204499 1.412650 0.000000 
-2.180326 1.343768 0.000000 
-2.178559 1.255231 0.000000 
-2.168273 1.165202 0.000000 
-2.159086 1.067138 0.000000 
-2.144575 0.977980 0.000000 
-2.163040 0.902763 0.000000 
-2.183612 0.828671 0.000000 
-2.172907 0.764113 0.000000 
-2.161614 0.701358 0.000000 
-2.169833 0.641246 0.000000 
-2.188987 0.579493 0.000000 
-2.218663 0.528247 0.000000 
-2.229021 0.472374 0.000000 
-2.997130 1.849188 0.000000 
-3.021908 1.751051 0.000000 
-2.902046 1.817681 0.000000 
-0.770600 -0.183472 0.000000 
-0.790096 -0.091813 0.000000 
-0.811857 -0.011106 0.000000 
-0.835807 0.067458 0.000000 
-0.859157 0.137586 0.000000 
-0.881226 0.197638 0.000000 
-0.903169 0.256988 0.000000 
-0.928196 0.321032 0.000000 
-2.785442 1.785128 0.000000 
-2.944278 1.724386 0.000000 
-2.855014 1.687240 0.000000 
-2.796189 1.627160 0.000000 
-2.651235 1.770382 0.000000 
-2.517962 1.760035 0.000000 
-2.394240 1.750872 0.000000 
-2.275192 1.742875 0.000000 
-2.180847 1.718314 0.000000 
-2.099904 1.691835 0.000000 
-2.018420 1.660595 0.000000 
-1.945469 1.664893 0.000000 
-1.885190 1.698233 0.000000 
-1.829736 1.718801 0.000000 
-1.760875 1.744033 0.000000 
-1.680504 1.772457 0.000000 
-1.617798 1.790774 0.000000 
-1.570169 1.805298 0.000000 
-1.527149 1.819488 0.000000 
-1.482581 1.831617 0.000000 
-1.433927 1.838157 0.000000 
-1.386311 1.846072 0.000000 
-1.337319 1.854802 0.000000 
-1.286363 1.861882 0.000000 
-1.235962 1.862600 0.000000 
-1.188452 1.867413 0.000000 
-1.140860 1.876864 0.000000 
-1.091558 1.876173 0.000000 
-1.038962 1.865154 0.000000 
-0.982519 1.846156 0.000000 
-0.922315 1.829414 0.000000 
-0.869867 1.819089 0.000000 
-0.827747 1.812600 0.000000 
-0.785371 1.807688 0.000000 
-0.748025 1.797951 0.000000 
-0.712781 1.787684 0.000000 
-0.681690 1.773752 0.000000 
-0.657198 1.762618 0.000000 
-0.633895 1.755954 0.000000 
-0.612002 1.751499 0.000000 
-0.594184 1.744286 0.000000 
-0.577381 1.734836 0.000000 
-0.560109 1.719553 0.000000 
-0.540091 1.687098 0.000000 
-1.243914 0.048253 0.000000 
-1.232782 0.061970 0.000000 
-1.257376 0.033899 0.000000 
-1.224378 0.080669 0.000000 
-1.271472 0.014553 0.000000 
-1.215702 0.102666 0.000000 
-1.204660 0.128723 0.000000 
-1.290143 -0.013188 0.000000 
-1.314447 -0.058228 0.000000 
-1.190204 0.159029 0.000000 
-1.318041 -0.111583 0.000000 
-1.171655 0.193185 0.000000 
-1.149359 0.229500 0.000000 
-1.123094 0.267748 0.000000 
-1.284246 -0.161562 0.000000 
-1.239750 -0.212288 0.000000 
-1.083297 0.311739 0.000000 
-1.028190 0.343411 0.000000 
-1.181630 -0.254645 0.000000 
-1.112789 -0.286072 0.000000 
-1.040643 -0.298242 0.000000 
-0.978118 -0.301329 0.000000 
-0.927392 -0.314355 0.000000 
-0.889718 -0.353489 0.000000 
-0.873564 -0.410040 0.000000 
-0.920771 -0.442234 0.000000 
-0.935346 -0.374965 0.000000 
-0.991249 -0.451809 0.000000 
-1.088918 -0.449081 0.000000 
-1.067426 -0.369429 0.000000 
-1.189474 -0.441518 0.000000 
-1.147229 -0.356762 0.000000 
-1.266509 -0.418228 0.000000 
-1.219913 -0.330585 0.000000 
-1.335307 -0.382401 0.000000 
-1.284456 -0.292586 0.000000 
-1.402357 -0.338497 0.000000 
-1.341444 -0.244785 0.000000 
-1.466758 -0.285822 0.000000 
-1.539152 -0.225023 0.000000 
-1.393011 -0.186854 0.000000 
-1.612839 -0.154751 0.000000 
-1.665320 -0.097173 0.000000 
-1.691220 -0.032347 0.000000 
-1.704696 0.053147 0.000000 
-1.850073 0.220016 0.000000 
-1.911042 0.164192 0.000000 
-1.969645 0.107355 0.000000 
-1.726970 0.159558 0.000000 
-0.222881 0.367388 0.000000 
-0.195707 0.339804 0.000000 
-0.164205 0.302857 0.000000 
-0.127520 0.270159 0.000000 
-0.095686 0.240668 0.000000 
-0.059027 0.212190 0.000000 
-0.018954 0.182206 0.000000 
0.030296 0.150935 0.000000 
0.086536 0.130410 0.000000 
0.141893 0.111678 0.000000 
0.202102 0.082398 0.000000 
0.263408 0.042482 0.000000 
0.311661 -0.007505 0.000000 
0.333954 -0.067128 0.000000 
0.338621 -0.127578 0.000000 
0.341530 -0.181517 0.000000 
0.353165 -0.231705 0.000000 
0.365710 -0.290128 0.000000 
0.363543 -0.359657 0.000000 
0.357353 -0.421771 0.000000 
0.351188 -0.472514 0.000000 
0.363842 -0.519542 0.000000 
-1.737069 -0.386193 0.000000 
-0.199590 0.420005 0.000000 
-0.156305 0.390089 0.000000 
-0.462327 1.656045 0.000000 
0.741313 2.178619 0.000000 
0.482415 -0.530313 0.000000 
0.446104 -0.538209 0.000000 
0.403556 -0.543863 0.000000 
-0.104001 0.362024 0.000000 
-0.514998 1.588099 0.000000 
-0.059937 0.327619 0.000000 
0.738519 2.153354 0.000000 
0.714572 2.165654 0.000000 
-0.249752 0.446828 0.000000 
-0.036232 0.283821 0.000000 
0.000772 0.255989 0.000000 
0.035161 0.230344 0.000000 
-1.776537 -0.385634 0.000000 
-1.836238 -0.381450 0.000000 
-0.309416 0.460928 0.000000 
-0.378944 0.458664 0.000000 
-2.292732 0.338253 0.000000 
-2.315166 0.288261 0.000000 
-2.314418 0.240705 0.000000 
-2.293418 0.194318 0.000000 
-2.279687 0.144439 0.000000 
-2.253462 0.097174 0.000000 
0.075120 0.202601 0.000000 
0.131113 0.189993 0.000000 
-0.977004 0.391977 0.000000 
-0.860050 0.381811 0.000000 
-1.912142 -0.373393 0.000000 
-1.989966 -0.382174 0.000000 
-2.023752 -0.314632 0.000000 
-2.082175 -0.243371 0.000000 
0.723889 2.121841 0.000000 
0.691466 2.140684 0.000000 
0.665980 2.108037 0.000000 
0.704783 2.080769 0.000000 
0.637970 2.069979 0.000000 
0.681732 2.033561 0.000000 
0.670916 1.987385 0.000000 
0.602858 2.038311 0.000000 
0.659584 1.946961 0.000000 
0.560783 2.011940 0.000000 
0.636111 1.910887 0.000000 
0.607495 1.861096 0.000000 
0.595324 1.797616 0.000000 
0.604052 1.732942 0.000000 
0.514160 1.982537 0.000000 
0.453857 1.955092 0.000000 
0.392525 1.953113 0.000000 
0.334098 1.951585 0.000000 
0.278675 1.932831 0.000000 
0.217273 1.914756 0.000000 
0.149449 1.897400 0.000000 
0.614128 1.680667 0.000000 
0.621313 1.633087 0.000000 
0.624262 1.588208 0.000000 
-2.197766 0.043985 0.000000 
-2.158682 -0.030939 0.000000 
-2.124695 0.103315 0.000000 
-2.150589 -0.197065 0.000000 
-2.141926 -0.119519 0.000000 
-0.393439 -0.536079 0.000000 
-0.412631 -0.492036 0.000000 
-0.436983 -0.451432 0.000000 
-0.445953 -0.408013 0.000000 
-0.458251 -0.375187 0.000000 
-0.479726 -0.340421 0.000000 
-0.496934 -0.291690 0.000000 
-0.509002 -0.236606 0.000000 
-0.517157 -0.182276 0.000000 
-0.545309 -0.131000 0.000000 
-0.442273 -0.533474 0.000000 
-0.496002 -0.523956 0.000000 
-0.557668 -0.526063 0.000000 
-0.618975 -0.510583 0.000000 
-0.334659 2.120436 0.000000 
-0.367985 2.090718 0.000000 
-0.385153 2.054292 0.000000 
-0.396797 2.020425 0.000000 
-0.406285 1.984903 0.000000 
-0.402558 1.945770 0.000000 
-0.406645 1.907326 0.000000 
-0.418378 1.874912 0.000000 
-0.428059 1.845787 0.000000 
-0.435849 1.816239 0.000000 
-0.442335 1.786204 0.000000 
-0.445406 1.753139 0.000000 
-0.444483 1.707423 0.000000 
0.619822 1.542476 0.000000 
-1.077870 0.439041 0.000000 
-1.149036 0.397082 0.000000 
-1.174735 0.322239 0.000000 
-1.192231 0.270516 0.000000 
-1.210811 0.228739 0.000000 
-1.228352 0.189400 0.000000 
-1.238869 0.151420 0.000000 
-1.244643 0.119923 0.000000 
-1.248534 0.095021 0.000000 
-1.252336 0.075734 0.000000 
-1.262323 0.062482 0.000000 
-1.280319 0.051566 0.000000 
-0.451814 0.436004 0.000000 
-0.526928 0.392482 0.000000 
0.194935 0.173001 0.000000 
0.069048 1.883301 0.000000 
-0.574175 0.321798 0.000000 
-0.593607 0.240695 0.000000 
-1.764101 0.280380 0.000000 
-2.210991 0.399236 0.000000 
-0.825996 0.296534 0.000000 
-0.799223 0.225454 0.000000 
-0.760911 0.159021 0.000000 
0.605964 1.491524 0.000000 
0.587834 1.434164 0.000000 
0.576354 1.374315 0.000000 
0.574971 1.319307 0.000000 
0.580375 1.276282 0.000000 
0.545179 1.253898 0.000000 
0.509957 1.221636 0.000000 
0.484198 1.185233 0.000000 
0.468721 1.154079 0.000000 
0.449386 1.135548 0.000000 
0.422962 1.122883 0.000000 
0.391379 1.103732 0.000000 
0.357154 1.079668 0.000000 
0.323730 1.051296 0.000000 
-0.582151 -0.070133 0.000000 
0.265957 0.146571 0.000000 
0.333763 0.100442 0.000000 
0.378371 0.033426 0.000000 
0.400918 -0.040969 0.000000 
0.401084 -0.103958 0.000000 
0.404345 -0.158058 0.000000 
0.432648 -0.209140 0.000000 
0.450030 -0.273581 0.000000 
0.529803 -0.120428 0.000000 
0.491947 -0.168566 0.000000 
0.453243 -0.118682 0.000000 
0.449550 -0.347906 0.000000 
0.498420 -0.074555 0.000000 
0.474171 -0.014613 0.000000 
0.457863 0.059960 0.000000 
0.462195 -0.406560 0.000000 
0.478704 -0.452896 0.000000 
0.483460 -0.493862 0.000000 
0.412910 -0.432201 0.000000 
0.398390 -0.470915 0.000000 
0.404290 -0.505202 0.000000 
0.442452 -0.500644 0.000000 
0.436659 -0.465479 0.000000 
-0.727378 0.084887 0.000000 
-0.616071 0.166906 0.000000 
-0.623548 0.092625 0.000000 
-0.605779 0.011617 0.000000 
-0.706340 -0.000831 0.000000 
-0.681483 -0.087092 0.000000 
-0.032304 1.877740 0.000000 
-0.128010 1.913890 0.000000 
-0.195732 1.981013 0.000000 
-0.243911 2.034927 0.000000 
-0.287859 2.082331 0.000000 
-0.335518 2.054635 0.000000 
-0.667608 -0.172473 0.000000 
-0.584906 -0.179241 0.000000 
-0.658169 -0.252482 0.000000 
-0.578442 -0.244612 0.000000 
-0.639050 -0.323925 0.000000 
-0.607982 -0.399442 0.000000 
-0.562541 -0.307311 0.000000 
-0.536184 -0.368334 0.000000 
-0.495978 -0.406296 0.000000 
-0.500680 -0.458690 0.000000 
-0.573051 -0.463144 0.000000 
-2.690892 1.651034 0.000000 
-2.684799 1.565022 0.000000 
-2.602920 1.563760 0.000000 
-2.574381 1.648753 0.000000 
-2.518122 1.583627 0.000000 
-2.424460 1.607525 0.000000 
-2.320006 1.598594 0.000000 
-2.229986 1.574976 0.000000 
-2.146342 1.533736 0.000000 
-1.455055 -0.127873 0.000000 
-1.387692 -0.047549 0.000000 
-1.339496 0.005779 0.000000 
-1.304977 0.034339 0.000000 
-1.531301 -0.062380 0.000000 
-1.604385 -0.018267 0.000000 
-1.592423 0.082413 0.000000 
-1.608296 0.206376 0.000000 
-1.827918 0.404822 0.000000 
0.477873 0.173625 0.000000 
0.477147 0.208523 0.000000 
0.465631 0.242764 0.000000 
-0.587742 1.686973 0.000000 
-0.593403 1.711076 0.000000 
-0.604579 1.723732 0.000000 
-0.619289 1.729418 0.000000 
-0.639577 1.727245 0.000000 
-0.665912 1.728861 0.000000 
-0.697937 1.735848 0.000000 
-0.595692 1.633484 0.000000 
-0.726123 1.750659 0.000000 
-0.757398 1.761230 0.000000 
-0.794522 1.758655 0.000000 
-0.841416 1.756077 0.000000 
-0.894922 1.757438 0.000000 
-0.956071 1.765853 0.000000 
-1.020951 1.784775 0.000000 
-1.077937 1.812410 0.000000 
-1.120258 1.841138 0.000000 
-1.171769 1.816877 0.000000 
0.332207 0.370268 0.000000 
0.333662 0.328533 0.000000 
0.321472 0.398885 0.000000 
0.302407 0.425698 0.000000 
0.214022 0.440360 0.000000 
0.194081 0.501384 0.000000 
0.186716 0.556897 0.000000 
0.189303 0.609669 0.000000 
0.360023 0.288852 0.000000 
0.405131 0.263718 0.000000 
0.201671 0.658915 0.000000 
0.218038 0.709176 0.000000 
0.236652 0.758110 0.000000 
0.256885 0.800044 0.000000 
0.278373 0.828538 0.000000 
0.284019 0.861936 0.000000 
0.276718 0.908683 0.000000 
0.278735 0.965496 0.000000 
0.296322 1.015764 0.000000 
-1.507867 1.768635 0.000000 
-1.548116 1.743993 0.000000 
-1.598023 1.716613 0.000000 
-1.467251 1.783409 0.000000 
-1.422160 1.790692 0.000000 
-1.373311 1.797409 0.000000 
-1.322903 1.805185 0.000000 
-1.275577 1.814431 0.000000 
-1.225048 1.813032 0.000000 
-1.662214 1.692944 0.000000 
-1.732600 1.673004 0.000000 
-1.794687 1.658629 0.000000 
-1.841773 1.629442 0.000000 
-2.078405 0.696714 0.000000 
-2.079214 0.775304 0.000000 
-2.097651 0.619114 0.000000 
-2.129318 0.547375 0.000000 
-2.096743 0.855866 0.000000 
-2.169699 0.492032 0.000000 
-1.991686 0.419032 0.000000 
-1.642187 0.344588 0.000000 
-1.989898 0.251807 0.000000 
-2.064526 0.179994 0.000000 
-1.914688 0.325341 0.000000 
-2.037969 1.108418 0.000000 
-2.021377 0.992733 0.000000 
-2.055796 1.237580 0.000000 
-2.102728 1.340233 0.000000 
-2.047875 1.482535 0.000000 
0.428030 0.229266 0.000000 
0.375625 0.208030 0.000000 
0.313454 0.221131 0.000000 
0.290352 0.367166 0.000000 
0.238487 1.078083 0.000000 
0.440631 0.191159 0.000000 
0.396678 0.151382 0.000000 
0.460488 0.125461 0.000000 
0.523747 1.301573 0.000000 
-2.262588 0.264828 0.000000 
-2.220468 0.320855 0.000000 
-2.218579 0.211317 0.000000 
-2.146376 0.263167 0.000000 
-2.206503 0.146246 0.000000 
0.473879 1.262961 0.000000 
0.446488 1.210630 0.000000 
0.440978 1.166611 0.000000 
0.409581 1.158756 0.000000 
0.629179 1.987651 0.000000 
0.593839 1.955178 0.000000 
0.550362 1.910974 0.000000 
0.483841 1.870551 0.000000 
0.202470 1.011719 0.000000 
0.241245 0.863943 0.000000 
0.205152 0.839143 0.000000 
0.175878 0.791002 0.000000 
0.153326 0.732496 0.000000 
0.132079 0.672046 0.000000 
0.113278 0.607590 0.000000 
0.106000 0.539267 0.000000 
0.109640 0.470070 0.000000 
0.121648 0.399392 0.000000 
0.032483 0.309778 0.000000 
0.246820 0.392457 0.000000 
0.099619 0.258143 0.000000 
0.373127 1.143874 0.000000 
-0.307911 2.007013 0.000000 
-0.360136 1.988544 0.000000 
-0.343252 1.934198 0.000000 
-0.270247 1.942343 0.000000 
0.168337 0.254662 0.000000 
0.242346 0.244324 0.000000 
0.270369 0.313361 0.000000 
0.505525 1.369334 0.000000 
-0.689828 0.196590 0.000000 
-0.729540 0.253994 0.000000 
-0.746154 0.328466 0.000000 
-0.657668 0.345030 0.000000 
-0.661195 0.260743 0.000000 
-0.924642 0.497706 0.000000 
-1.137284 1.761069 0.000000 
-1.072920 1.716475 0.000000 
-1.248127 1.773366 0.000000 
-1.304069 1.757044 0.000000 
-1.360197 1.749384 0.000000 
-1.411221 1.745244 0.000000 
-1.453165 1.742014 0.000000 
-1.486003 1.724552 0.000000 
-1.510814 1.681083 0.000000 
-1.558800 1.636414 0.000000 
-0.995058 1.689722 0.000000 
-0.919611 1.679246 0.000000 
-0.852227 1.686178 0.000000 
-0.796966 1.702697 0.000000 
-0.752732 1.721865 0.000000 
-1.635591 1.609081 0.000000 
-1.992480 0.883783 0.000000 
-1.965104 0.774003 0.000000 
-1.974377 0.670671 0.000000 
-2.014368 0.577049 0.000000 
-2.065453 0.493863 0.000000 
-2.071492 0.340796 0.000000 
-2.131272 0.424333 0.000000 
-1.712039 1.595758 0.000000 
-1.781280 1.595709 0.000000 
-1.884796 1.565652 0.000000 
0.516332 1.785315 0.000000 
0.538779 1.714186 0.000000 
0.517174 1.443720 0.000000 
0.552532 1.505656 0.000000 
0.576896 1.547583 0.000000 
0.583356 1.584609 0.000000 
0.576083 1.621613 0.000000 
0.562288 1.663974 0.000000 