# vtk DataFile Version 3.0 
vtk output 
ASCII 
DATASET UNSTRUCTURED_GRID 
POINTS 899 float 
-3.648847 2.238659 0.000000 
-3.619410 2.198107 0.000000 
-3.578536 2.162512 0.000000 
-3.540028 2.126861 0.000000 
-3.511690 2.094666 0.000000 
-3.481362 2.064808 0.000000 
-3.451569 2.024134 0.000000 
0.772356 2.141173 0.000000 
0.774615 2.115052 0.000000 
0.769962 2.086298 0.000000 
-3.399514 1.993858 0.000000 
0.413960 -0.650984 0.000000 
0.455573 -0.646681 0.000000 
-1.762619 -0.550879 0.000000 
-1.783389 -0.515483 0.000000 
-1.714437 -0.486694 0.000000 
0.732567 2.135497 0.000000 
0.698438 2.121661 0.000000 
0.491831 -0.632478 0.000000 
0.519501 -0.602073 0.000000 
0.530556 -0.561627 0.000000 
0.532354 -0.515822 0.000000 
0.531774 -0.465316 0.000000 
-3.460923 1.932126 0.000000 
0.663989 2.099715 0.000000 
0.631675 2.072320 0.000000 
0.601833 2.048265 0.000000 
0.569607 2.025007 0.000000 
0.534059 2.002930 0.000000 
0.492599 1.981790 0.000000 
0.444403 1.963125 0.000000 
0.762807 2.045323 0.000000 
-1.708694 -0.452311 0.000000 
-1.726386 -0.412048 0.000000 
-1.761257 -0.388027 0.000000 
-1.812853 -0.380179 0.000000 
-0.690422 -0.632514 0.000000 
-0.624256 -0.650442 0.000000 
-0.561079 -0.658623 0.000000 
-0.500739 -0.660079 0.000000 
-0.445387 -0.660141 0.000000 
0.532260 -0.406232 0.000000 
0.536647 -0.336899 0.000000 
-1.881389 -0.367678 0.000000 
-0.389303 -0.657867 0.000000 
-0.340338 -0.642581 0.000000 
-0.344339 -0.588446 0.000000 
-0.358558 -0.535907 0.000000 
-0.381750 -0.494995 0.000000 
-0.406193 -0.460821 0.000000 
-0.417316 -0.429323 0.000000 
-0.428320 -0.395066 0.000000 
-0.436973 -0.350801 0.000000 
-0.444212 -0.295258 0.000000 
-0.452662 -0.236400 0.000000 
-0.468602 -0.179501 0.000000 
0.553166 -0.272184 0.000000 
0.573193 -0.214513 0.000000 
0.574450 -0.162772 0.000000 
0.561087 -0.112452 0.000000 
0.550432 -0.057129 0.000000 
0.748903 1.992005 0.000000 
0.730940 1.935513 0.000000 
0.715868 1.889354 0.000000 
0.699446 1.853226 0.000000 
0.684888 1.812236 0.000000 
0.675900 1.766032 0.000000 
0.669871 1.716472 0.000000 
0.664455 1.668615 0.000000 
0.668163 1.622196 0.000000 
0.672091 1.572362 0.000000 
0.674558 1.524339 0.000000 
0.673045 1.474259 0.000000 
0.386491 1.953445 0.000000 
0.664855 1.415520 0.000000 
0.652298 1.357443 0.000000 
0.638456 1.303793 0.000000 
0.623121 1.254283 0.000000 
0.616008 1.211256 0.000000 
0.600787 1.176313 0.000000 
0.571289 1.146865 0.000000 
0.539016 1.115703 0.000000 
0.513857 1.086804 0.000000 
0.493343 1.060569 0.000000 
0.469109 1.042756 0.000000 
0.444920 1.026312 0.000000 
0.415324 1.005346 0.000000 
0.383540 0.980594 0.000000 
0.356179 0.951262 0.000000 
0.343879 0.912362 0.000000 
0.337476 0.866842 0.000000 
0.332404 0.821555 0.000000 
0.328512 0.781865 0.000000 
0.319594 0.745786 0.000000 
0.304149 0.712375 0.000000 
0.290502 0.671984 0.000000 
0.275896 0.624122 0.000000 
0.261905 0.582152 0.000000 
0.250150 0.548557 0.000000 
0.250896 0.510752 0.000000 
0.259587 0.468149 0.000000 
0.284617 0.425376 0.000000 
0.315237 0.395715 0.000000 
0.340022 0.376278 0.000000 
0.354380 0.350429 0.000000 
0.368685 0.323286 0.000000 
0.385568 0.296890 0.000000 
0.415372 0.272093 0.000000 
0.447119 0.240381 0.000000 
0.477633 0.212464 0.000000 
0.503078 0.184528 0.000000 
0.518876 0.146473 0.000000 
0.527127 0.110505 0.000000 
0.534187 0.065960 0.000000 
0.543185 0.005179 0.000000 
0.322519 1.942389 0.000000 
0.263849 1.929272 0.000000 
0.208223 1.923852 0.000000 
0.150441 1.920024 0.000000 
-0.687392 -0.559447 0.000000 
-3.327058 1.967626 0.000000 
-3.276080 1.921205 0.000000 
-3.224941 1.887618 0.000000 
-3.181728 1.858460 0.000000 
-3.135074 1.821530 0.000000 
-3.078123 1.797237 0.000000 
-1.944260 -0.322800 0.000000 
0.083204 1.925180 0.000000 
0.005786 1.919827 0.000000 
-0.071812 1.929065 0.000000 
-0.135705 1.958607 0.000000 
-0.182391 2.000213 0.000000 
-1.999041 -0.251831 0.000000 
-1.843230 -0.526340 0.000000 
-0.491126 -0.115541 0.000000 
-0.512312 -0.042298 0.000000 
-0.526535 0.020534 0.000000 
-0.527935 0.082656 0.000000 
-0.524207 0.149826 0.000000 
-0.505864 0.206958 0.000000 
-0.468875 0.256170 0.000000 
-0.410369 0.285415 0.000000 
-0.354013 0.306532 0.000000 
-0.301050 0.316477 0.000000 
-0.255730 0.317250 0.000000 
-0.695595 -0.481151 0.000000 
-0.726457 -0.404270 0.000000 
-0.747352 -0.334814 0.000000 
-3.396487 1.910491 0.000000 
-3.344056 1.831103 0.000000 
-3.294256 1.787702 0.000000 
-3.248246 1.749378 0.000000 
-3.196818 1.710025 0.000000 
-3.159669 1.658714 0.000000 
-3.113281 1.612010 0.000000 
-3.056061 1.592446 0.000000 
-2.996684 1.569822 0.000000 
-2.933161 1.540205 0.000000 
-2.879064 1.504062 0.000000 
-2.813006 1.479277 0.000000 
-2.751664 1.456227 0.000000 
-2.686782 1.426904 0.000000 
-1.922020 -0.523533 0.000000 
-1.999705 -0.525032 0.000000 
-2.060018 -0.503428 0.000000 
-2.032615 -0.168441 0.000000 
-2.048550 -0.082719 0.000000 
-2.029059 -0.016826 0.000000 
-2.105228 -0.446370 0.000000 
-2.154373 -0.378775 0.000000 
-2.203584 -0.324151 0.000000 
-2.237020 -0.262716 0.000000 
-2.250593 -0.197423 0.000000 
-2.270119 -0.125639 0.000000 
-2.297898 -0.055329 0.000000 
-2.327118 0.006251 0.000000 
-2.346747 0.060221 0.000000 
-2.362840 0.113330 0.000000 
-2.374561 0.164375 0.000000 
-2.373128 0.216350 0.000000 
-2.334174 0.282941 0.000000 
-2.331842 0.323559 0.000000 
-2.284565 0.332317 0.000000 
-0.236368 2.049748 0.000000 
-0.299146 2.093575 0.000000 
-0.346614 2.113500 0.000000 
-0.382877 2.076997 0.000000 
-0.412447 2.047947 0.000000 
-0.433989 2.007659 0.000000 
-0.446472 1.964693 0.000000 
-0.451628 1.925375 0.000000 
-0.451047 1.886912 0.000000 
-0.449242 1.850909 0.000000 
-0.453345 1.819019 0.000000 
-0.460251 1.791326 0.000000 
-0.470304 1.762541 0.000000 
-0.475290 1.733051 0.000000 
-0.478341 1.703265 0.000000 
-0.479442 1.666529 0.000000 
-2.609147 1.413115 0.000000 
-2.517189 1.407616 0.000000 
-2.434013 1.407953 0.000000 
-2.352624 1.397921 0.000000 
-2.274410 1.378550 0.000000 
-2.204499 1.343902 0.000000 
-2.180326 1.275019 0.000000 
-2.178559 1.186483 0.000000 
-2.168273 1.096454 0.000000 
-2.159086 0.998390 0.000000 
-2.144575 0.909231 0.000000 
-2.163040 0.834014 0.000000 
-2.183612 0.759922 0.000000 
-2.172907 0.695365 0.000000 
-2.161614 0.632610 0.000000 
-2.169833 0.572498 0.000000 
-2.188987 0.510745 0.000000 
-2.218663 0.459499 0.000000 
-2.229021 0.403626 0.000000 
-2.997130 1.780440 0.000000 
-3.021908 1.682302 0.000000 
-2.902046 1.748933 0.000000 
-0.770600 -0.252221 0.000000 
-0.790096 -0.160562 0.000000 
-0.811857 -0.079854 0.000000 
-0.835807 -0.001290 0.000000 
-0.859157 0.068838 0.000000 
-0.881226 0.128889 0.000000 
-0.903169 0.188240 0.000000 
-0.928196 0.252284 0.000000 
-2.785442 1.716379 0.000000 
-2.944278 1.655638 0.000000 
-2.855014 1.618492 0.000000 
-2.796189 1.558412 0.000000 
-2.651235 1.701633 0.000000 
-2.517962 1.691286 0.000000 
-2.394240 1.682123 0.000000 
-2.275192 1.674127 0.000000 
-2.180847 1.649566 0.000000 
-2.099904 1.623086 0.000000 
-2.018420 1.591847 0.000000 
-1.945469 1.596144 0.000000 
-1.885190 1.629484 0.000000 
-1.829736 1.650053 0.000000 
-1.760875 1.675284 0.000000 
-1.680504 1.703709 0.000000 
-1.617798 1.722026 0.000000 
-1.570169 1.736549 0.000000 
-1.527149 1.750739 0.000000 
-1.482581 1.762868 0.000000 
-1.433927 1.769409 0.000000 
-1.386311 1.777324 0.000000 
-1.337319 1.786054 0.000000 
-1.286363 1.793134 0.000000 
-1.235962 1.793851 0.000000 
-1.188452 1.798664 0.000000 
-1.140860 1.808115 0.000000 
-1.091558 1.807424 0.000000 
-1.038962 1.796406 0.000000 
-0.982519 1.777408 0.000000 
-0.922315 1.760666 0.000000 
-0.869867 1.750341 0.000000 
-0.827747 1.743851 0.000000 
-0.785371 1.738939 0.000000 
-0.748025 1.729202 0.000000 
-0.712781 1.718935 0.000000 
-0.681690 1.705003 0.000000 
-0.657198 1.693869 0.000000 
-0.633895 1.687206 0.000000 
-0.612002 1.682751 0.000000 
-0.594184 1.675538 0.000000 
-0.577381 1.666088 0.000000 
-0.560109 1.650804 0.000000 
-0.540091 1.618350 0.000000 
-1.243914 -0.020496 0.000000 
-1.232782 -0.006779 0.000000 
-1.257376 -0.034850 0.000000 
-1.224378 0.011921 0.000000 
-1.271472 -0.054195 0.000000 
-1.215702 0.033918 0.000000 
-1.204660 0.059974 0.000000 
-1.290143 -0.081937 0.000000 
-1.314447 -0.126977 0.000000 
-1.190204 0.090281 0.000000 
-1.318041 -0.180331 0.000000 
-1.171655 0.124437 0.000000 
-1.149359 0.160751 0.000000 
-1.123094 0.199000 0.000000 
-1.284246 -0.230311 0.000000 
-1.239750 -0.281037 0.000000 
-1.083297 0.242991 0.000000 
-1.028190 0.274662 0.000000 
-1.181630 -0.323393 0.000000 
-1.112789 -0.354821 0.000000 
-1.040643 -0.366991 0.000000 
-0.978118 -0.370078 0.000000 
-0.927392 -0.383103 0.000000 
-0.889718 -0.422238 0.000000 
-0.873564 -0.478788 0.000000 
-0.920771 -0.510982 0.000000 
-0.935346 -0.443714 0.000000 
-0.991249 -0.520558 0.000000 
-1.088918 -0.517830 0.000000 
-1.067426 -0.438178 0.000000 
-1.189474 -0.510266 0.000000 
-1.147229 -0.425511 0.000000 
-1.266509 -0.486977 0.000000 
-1.219913 -0.399333 0.000000 
-1.335307 -0.451150 0.000000 
-1.284456 -0.361334 0.000000 
-1.402357 -0.407246 0.000000 
-1.341444 -0.313534 0.000000 
-1.466758 -0.354571 0.000000 
-1.539152 -0.293771 0.000000 
-1.393011 -0.255603 0.000000 
-1.612839 -0.223500 0.000000 
-1.665320 -0.165922 0.000000 
-1.691220 -0.101095 0.000000 
-1.704696 -0.015601 0.000000 
-1.850073 0.151268 0.000000 
-1.911042 0.095443 0.000000 
-1.969645 0.038606 0.000000 
-1.726970 0.090809 0.000000 
-0.222881 0.298639 0.000000 
-0.195707 0.271056 0.000000 
-0.164205 0.234109 0.000000 
-0.127520 0.201411 0.000000 
-0.095686 0.171919 0.000000 
-0.059027 0.143441 0.000000 
-0.018954 0.113458 0.000000 
0.030296 0.082187 0.000000 
0.086536 0.061661 0.000000 
0.141893 0.042930 0.000000 
0.202102 0.013650 0.000000 
0.263408 -0.026267 0.000000 
0.311661 -0.076254 0.000000 
0.333954 -0.135876 0.000000 
0.338621 -0.196327 0.000000 
0.341530 -0.250265 0.000000 
0.353165 -0.300454 0.000000 
0.365710 -0.358877 0.000000 
0.363543 -0.428405 0.000000 
[...]
POINT_DATA 899 
VECTORS X_GC float 
-3.648847 2.238659 0.000000 
-3.619410 2.198107 0.000000 
-3.578536 2.162512 0.000000 
-3.540028 2.126861 0.000000 
-3.511690 2.094666 0.000000 
-3.481362 2.064808 0.000000 
-3.451569 2.024134 0.000000 
0.772356 2.141173 0.000000 
0.774615 2.115052 0.000000 
0.769962 2.086298 0.000000 
-3.399514 1.993858 0.000000 
0.413960 -0.650984 0.000000 
0.455573 -0.646681 0.000000 
-1.762619 -0.550879 0.000000 
-1.783389 -0.515483 0.000000 
-1.714437 -0.486694 0.000000 
0.732567 2.135497 0.000000 
0.698438 2.121661 0.000000 
0.491831 -0.632478 0.000000 
0.519501 -0.602073 0.000000 
0.530556 -0.561627 0.000000 
0.532354 -0.515822 0.000000 
0.531774 -0.465316 0.000000 
-3.460923 1.932126 0.000000 
0.663989 2.099715 0.000000 
0.631675 2.072320 0.000000 
0.601833 2.048265 0.000000 
0.569607 2.025007 0.000000 
0.534059 2.002930 0.000000 
0.492599 1.981790 0.000000 
0.444403 1.963125 0.000000 
0.762807 2.045323 0.000000 
-1.708694 -0.452311 0.000000 
-1.726386 -0.412048 0.000000 
-1.761257 -0.388027 0.000000 
-1.812853 -0.380179 0.000000 
-0.690422 -0.632514 0.000000 
-0.624256 -0.650442 0.000000 
-0.561079 -0.658623 0.000000 
-0.500739 -0.660079 0.000000 
-0.445387 -0.660141 0.000000 
0.532260 -0.406232 0.000000 
0.536647 -0.336899 0.000000 
-1.881389 -0.367678 0.000000 
-0.389303 -0.657867 0.000000 
-0.340338 -0.642581 0.000000 
-0.344339 -0.588446 0.000000 
-0.358558 -0.535907 0.000000 
-0.381750 -0.494995 0.000000 
-0.406193 -0.460821 0.000000 
-0.417316 -0.429323 0.000000 
-0.428320 -0.395066 0.000000 
-0.436973 -0.350801 0.000000 
-0.444212 -0.295258 0.000000 
-0.452662 -0.236400 0.000000 
-0.468602 -0.179501 0.000000 
0.553166 -0.272184 0.000000 
0.573193 -0.214513 0.000000 
0.574450 -0.162772 0.000000 
0.561087 -0.112452 0.000000 
0.550432 -0.057129 0.000000 
0.748903 1.992005 0.000000 
0.730940 1.935513 0.000000 
0.715868 1.889354 0.000000 
0.699446 1.853226 0.000000 
0.684888 1.812236 0.000000 
0.675900 1.766032 0.000000 
0.669871 1.716472 0.000000 
0.664455 1.668615 0.000000 
0.668163 1.622196 0.000000 
0.672091 1.572362 0.000000 
0.674558 1.524339 0.000000 
0.673045 1.474259 0.000000 
0.386491 1.953445 0.000000 
0.664855 1.415520 0.000000 
0.652298 1.357443 0.000000 
0.638456 1.303793 0.000000 
0.623121 1.254283 0.000000 
0.616008 1.211256 0.000000 
0.600787 1.176313 0.000000 
0.571289 1.146865 0.000000 
0.539016 1.115703 0.000000 
0.513857 1.086804 0.000000 
0.493343 1.060569 0.000000 
0.469109 1.042756 0.000000 
0.444920 1.026312 0.000000 
0.415324 1.005346 0.000000 
0.383540 0.980594 0.000000 
0.356179 0.951262 0.000000 
0.343879 0.912362 0.000000 
0.337476 0.866842 0.000000 
0.332404 0.821555 0.000000 
0.328512 0.781865 0.000000 
0.319594 0.745786 0.000000 
0.304149 0.712375 0.000000 
0.290502 0.671984 0.000000 
0.275896 0.624122 0.000000 
0.261905 0.582152 0.000000 
0.250150 0.548557 0.000000 
0.250896 0.510752 0.000000 
0.259587 0.468149 0.000000 
0.284617 0.425376 0.000000 
0.315237 0.395715 0.000000 
0.340022 0.376278 0.000000 
0.354380 0.350429 0.000000 
0.368685 0.323286 0.000000 
0.385568 0.296890 0.000000 
0.415372 0.272093 0.000000 
0.447119 0.240381 0.000000 
0.477633 0.212464 0.000000 
0.503078 0.184528 0.000000 
0.518876 0.146473 0.000000 
0.527127 0.110505 0.000000 
0.534187 0.065960 0.000000 
0.543185 0.005179 0.000000 
0.322519 1.942389 0.000000 
0.263849 1.929272 0.000000 
0.208223 1.923852 0.000000 
0.150441 1.920024 0.000000 
-0.687392 -0.559447 0.000000 
-3.327058 1.967626 0.000000 
-3.276080 1.921205 0.000000 
-3.224941 1.887618 0.000000 
-3.181728 1.858460 0.000000 
-3.135074 1.821530 0.000000 
-3.078123 1.797237 0.000000 
-1.944260 -0.322800 0.000000 
0.083204 1.925180 0.000000 
0.005786 1.919827 0.000000 
-0.071812 1.929065 0.000000 
-0.135705 1.958607 0.000000 
-0.182391 2.000213 0.000000 
-1.999041 -0.251831 0.000000 
-1.843230 -0.526340 0.000000 
-0.491126 -0.115541 0.000000 
-0.512312 -0.042298 0.000000 
-0.526535 0.020534 0.000000 
-0.527935 0.082656 0.000000 
-0.524207 0.149826 0.000000 
-0.505864 0.206958 0.000000 
-0.468875 0.256170 0.000000 
-0.410369 0.285415 0.000000 
-0.354013 0.306532 0.000000 
-0.301050 0.316477 0.000000 
-0.255730 0.317250 0.000000 
-0.695595 -0.481151 0.000000 
-0.726457 -0.404270 0.000000 
-0.747352 -0.334814 0.000000 
-3.396487 1.910491 0.000000 
-3.344056 1.831103 0.000000 
-3.294256 1.787702 0.000000 
-3.248246 1.749378 0.000000 
-3.196818 1.710025 0.000000 
-3.159669 1.658714 0.000000 
-3.113281 1.612010 0.000000 
-3.056061 1.592446 0.000000 
-2.996684 1.569822 0.000000 
-2.933161 1.540205 0.000000 
-2.879064 1.504062 0.000000 
-2.813006 1.479277 0.000000 
-2.751664 1.456227 0.000000 
-2.686782 1.426904 0.000000 
-1.922020 -0.523533 0.000000 
-1.999705 -0.525032 0.000000 
-2.060018 -0.503428 0.000000 
-2.032615 -0.168441 0.000000 
-2.048550 -0.082719 0.000000 
-2.029059 -0.016826 0.000000 
-2.105228 -0.446370 0.000000 
-2.154373 -0.378775 0.000000 
-2.203584 -0.324151 0.000000 
-2.237020 -0.262716 0.000000 
-2.250593 -0.197423 0.000000 
-2.270119 -0.125639 0.000000 
-2.297898 -0.055329 0.000000 
-2.327118 0.006251 0.000000 
-2.346747 0.060221 0.000000 
-2.362840 0.113330 0.000000 
-2.374561 0.164375 0.000000 
-2.373128 0.216350 0.000000 
-2.334174 0.282941 0.000000 
-2.331842 0.323559 0.000000 
-2.284565 0.332317 0.000000 
-0.236368 2.049748 0.000000 
-0.299146 2.093575 0.000000 
-0.346614 2.113500 0.000000 
-0.382877 2.076997 0.000000 
-0.412447 2.047947 0.000000 
-0.433989 2.007659 0.000000 
-0.446472 1.964693 0.000000 
-0.451628 1.925375 0.000000 
-0.451047 1.886912 0.000000 
-0.449242 1.850909 0.000000 
-0.453345 1.819019 0.000000 
-0.460251 1.791326 0.000000 
-0.470304 1.762541 0.000000 
-0.475290 1.733051 0.000000 
-0.478341 1.703265 0.000000 
-0.479442 1.666529 0.000000 
-2.609147 1.413115 0.000000 
-2.517189 1.407616 0.000000 
-2.434013 1.407953 0.000000 
-2.352624 1.397921 0.000000 
-2.274410 1.378550 0.000000 
-2.204499 1.343902 0.000000 
-2.180326 1.275019 0.000000 
-2.178559 1.186483 0.000000 
-2.168273 1.096454 0.000000 
-2.159086 0.998390 0.000000 
-2.144575 0.909231 0.000000 
-2.163040 0.834014 0.000000 
-2.183612 0.759922 0.000000 
-2.172907 0.695365 0.000000 
-2.161614 0.632610 0.000000 
-2.169833 0.572498 0.000000 
-2.188987 0.510745 0.000000 
-2.218663 0.459499 0.000000 
-2.229021 0.403626 0.000000 
-2.997130 1.780440 0.000000 
-3.021908 1.682302 0.000000 
-2.902046 1.748933 0.000000 
-0.770600 -0.252221 0.000000 
-0.790096 -0.160562 0.000000 
-0.811857 -0.079854 0.000000 
-0.835807 -0.001290 0.000000 
-0.859157 0.068838 0.000000 
-0.881226 0.128889 0.000000 
-0.903169 0.188240 0.000000 
-0.928196 0.252284 0.000000 
-2.785442 1.716379 0.000000 
-2.944278 1.655638 0.000000 
-2.855014 1.618492 0.000000 
-2.796189 1.558412 0.000000 
-2.651235 1.701633 0.000000 
-2.517962 1.691286 0.000000 
-2.394240 1.682123 0.000000 
-2.275192 1.674127 0.000000 
-2.180847 1.649566 0.000000 
-2.099904 1.623086 0.000000 
-2.018420 1.591847 0.000000 
-1.945469 1.596144 0.000000 
-1.885190 1.629484 0.000000 
-1.829736 1.650053 0.000000 
-1.760875 1.675284 0.000000 
-1.680504 1.703709 0.000000 
-1.617798 1.722026 0.000000 
-1.570169 1.736549 0.000000 
-1.527149 1.750739 0.000000 
-1.482581 1.762868 0.000000 
-1.433927 1.769409 0.000000 
-1.386311 1.777324 0.000000 
-1.337319 1.786054 0.000000 
-1.286363 1.793134 0.000000 
-1.235962 1.793851 0.000000 
-1.188452 1.798664 0.000000 
-1.140860 1.808115 0.000000 
-1.091558 1.807424 0.000000 
-1.038962 1.796406 0.000000 
-0.982519 1.777408 0.000000 
-0.922315 1.760666 0.000000 
-0.869867 1.750341 0.000000 
-0.827747 1.743851 0.000000 
-0.785371 1.738939 0.000000 
-0.748025 1.729202 0.000000 
-0.712781 1.718935 0.000000 
-0.681690 1.705003 0.000000 
-0.657198 1.693869 0.000000 
-0.633895 1.687206 0.000000 
-0.612002 1.682751 0.000000 
-0.594184 1.675538 0.000000 
-0.577381 1.666088 0.000000 
-0.560109 1.650804 0.000000 
-0.540091 1.618350 0.000000 
-1.243914 -0.020496 0.000000 
-1.232782 -0.006779 0.000000 
-1.257376 -0.034850 0.000000 
-1.224378 0.011921 0.000000 
-1.271472 -0.054195 0.000000 
-1.215702 0.033918 0.000000 
-1.204660 0.059974 0.000000 
-1.290143 -0.081937 0.000000 
-1.314447 -0.126977 0.000000 
-1.190204 0.090281 0.000000 
-1.318041 -0.180331 0.000000 
-1.171655 0.124437 0.000000 
-1.149359 0.160751 0.000000 
-1.123094 0.199000 0.000000 
-1.284246 -0.230311 0.000000 
-1.239750 -0.281037 0.000000 
-1.083297 0.242991 0.000000 
-1.028190 0.274662 0.000000 
-1.181630 -0.323393 0.000000 
-1.112789 -0.354821 0.000000 
-1.040643 -0.366991 0.000000 
-0.978118 -0.370078 0.000000 
-0.927392 -0.383103 0.000000 
-0.889718 -0.422238 0.000000 
-0.873564 -0.478788 0.000000 
-0.920771 -0.510982 0.000000 
-0.935346 -0.443714 0.000000 
-0.991249 -0.520558 0.000000 
-1.088918 -0.517830 0.000000 
-1.067426 -0.438178 0.000000 
-1.189474 -0.510266 0.000000 
-1.147229 -0.425511 0.000000 
-1.266509 -0.486977 0.000000 
-1.219913 -0.399333 0.000000 
-1.335307 -0.451150 0.000000 
-1.284456 -0.361334 0.000000 
-1.402357 -0.407246 0.000000 
-1.341444 -0.313534 0.000000 
-1.466758 -0.354571 0.000000 
-1.539152 -0.293771 0.000000 
-1.393011 -0.255603 0.000000 
-1.612839 -0.223500 0.000000 
-1.665320 -0.165922 0.000000 
-1.691220 -0.101095 0.000000 
-1.704696 -0.015601 0.000000 
-1.850073 0.151268 0.000000 
-1.911042 0.095443 0.000000 
-1.969645 0.038606 0.000000 
-1.726970 0.090809 0.000000 
-0.222881 0.298639 0.000000 
-0.195707 0.271056 0.000000 
-0.164205 0.234109 0.000000 
-0.127520 0.201411 0.000000 
-0.095686 0.171919 0.000000 
-0.059027 0.143441 0.000000 
-0.018954 0.113458 0.000000 
0.030296 0.082187 0.000000 
0.086536 0.061661 0.000000 
0.141893 0.042930 0.000000 
0.202102 0.013650 0.000000 
0.263408 -0.026267 0.000000 
0.311661 -0.076254 0.000000 
0.333954 -0.135876 0.000000 
0.338621 -0.196327 0.000000 
0.341530 -0.250265 0.000000 
0.353165 -0.300454 0.000000 
0.365710 -0.358877 0.000000 
0.363543 -0.428405 0.000000 
0.357353 -0.490520 0.000000 
0.351188 -0.541262 0.000000 
0.363842 -0.588290 0.000000 
-1.737069 -0.454941 0.000000 
-0.199590 0.351256 0.000000 
-0.156305 0.321340 0.000000 
-0.462327 1.587296 0.000000 
0.741313 2.109871 0.000000 
0.482415 -0.599061 0.000000 
0.446104 -0.606957 0.000000 
0.403556 -0.612611 0.000000 
-0.104001 0.293275 0.000000 
-0.514998 1.519351 0.000000 
-0.059937 0.258871 0.000000 
0.738519 2.084606 0.000000 
0.714572 2.096906 0.000000 
-0.249752 0.378080 0.000000 
-0.036232 0.215072 0.000000 
0.000772 0.187240 0.000000 
0.035161 0.161595 0.000000 
-1.776537 -0.454383 0.000000 
-1.836238 -0.450198 0.000000 
-0.309416 0.392180 0.000000 
-0.378944 0.389916 0.000000 
-2.292732 0.269504 0.000000 
-2.315166 0.219513 0.000000 
-2.314418 0.171956 0.000000 
-2.293418 0.125570 0.000000 
-2.279687 0.075691 0.000000 
-2.253462 0.028425 0.000000 
0.075120 0.133853 0.000000 
0.131113 0.121245 0.000000 
-0.977004 0.323228 0.000000 
-0.860050 0.313063 0.000000 
-1.912142 -0.442142 0.000000 
-1.989966 -0.450922 0.000000 
-2.023752 -0.383380 0.000000 
-2.082175 -0.312119 0.000000 
0.723889 2.053093 0.000000 
0.691466 2.071935 0.000000 
0.665980 2.039289 0.000000 
0.704783 2.012020 0.000000 
0.637970 2.001231 0.000000 
0.681732 1.964812 0.000000 
0.670916 1.918637 0.000000 
0.602858 1.969563 0.000000 
0.659584 1.878213 0.000000 
0.560783 1.943192 0.000000 
0.636111 1.842138 0.000000 
0.607495 1.792348 0.000000 
0.595324 1.728867 0.000000 
0.604052 1.664194 0.000000 
0.514160 1.913788 0.000000 
0.453857 1.886343 0.000000 
0.392525 1.884365 0.000000 
0.334098 1.882836 0.000000 
0.278675 1.864083 0.000000 
0.217273 1.846007 0.000000 
0.149449 1.828652 0.000000 
0.614128 1.611918 0.000000 
0.621313 1.564339 0.000000 
0.624262 1.519459 0.000000 
-2.197766 -0.024763 0.000000 
-2.158682 -0.099687 0.000000 
-2.124695 0.034567 0.000000 
-2.150589 -0.265813 0.000000 
-2.141926 -0.188268 0.000000 
-0.393439 -0.604828 0.000000 
-0.412631 -0.560784 0.000000 
-0.436983 -0.520181 0.000000 
-0.445953 -0.476761 0.000000 
-0.458251 -0.443936 0.000000 
-0.479726 -0.409169 0.000000 
-0.496934 -0.360438 0.000000 
-0.509002 -0.305355 0.000000 
-0.517157 -0.251024 0.000000 
-0.545309 -0.199749 0.000000 
-0.442273 -0.602222 0.000000 
-0.496002 -0.592705 0.000000 
-0.557668 -0.594812 0.000000 
-0.618975 -0.579331 0.000000 
-0.334659 2.051687 0.000000 
-0.367985 2.021970 0.000000 
-0.385153 1.985544 0.000000 
-0.396797 1.951677 0.000000 
-0.406285 1.916154 0.000000 
-0.402558 1.877021 0.000000 
-0.406645 1.838578 0.000000 
-0.418378 1.806164 0.000000 
-0.428059 1.777038 0.000000 
-0.435849 1.747491 0.000000 
-0.442335 1.717456 0.000000 
-0.445406 1.684391 0.000000 
-0.444483 1.638674 0.000000 
0.619822 1.473727 0.000000 
-1.077870 0.370292 0.000000 
-1.149036 0.328333 0.000000 
-1.174735 0.253491 0.000000 
-1.192231 0.201768 0.000000 
-1.210811 0.159991 0.000000 
-1.228352 0.120651 0.000000 
-1.238869 0.082671 0.000000 
-1.244643 0.051174 0.000000 
-1.248534 0.026273 0.000000 
-1.252336 0.006985 0.000000 
-1.262323 -0.006266 0.000000 
-1.280319 -0.017182 0.000000 
-0.451814 0.367256 0.000000 
-0.526928 0.323734 0.000000 
0.194935 0.104253 0.000000 
0.069048 1.814552 0.000000 
-0.574175 0.253050 0.000000 
-0.593607 0.171947 0.000000 
-1.764101 0.211631 0.000000 
-2.210991 0.330488 0.000000 
-0.825996 0.227786 0.000000 
-0.799223 0.156705 0.000000 
-0.760911 0.090272 0.000000 
0.605964 1.422775 0.000000 
0.587834 1.365415 0.000000 
0.576354 1.305567 0.000000 
0.574971 1.250558 0.000000 
0.580375 1.207534 0.000000 
0.545179 1.185150 0.000000 
0.509957 1.152887 0.000000 
0.484198 1.116485 0.000000 
0.468721 1.085331 0.000000 
0.449386 1.066799 0.000000 
0.422962 1.054134 0.000000 
0.391379 1.034983 0.000000 
0.357154 1.010920 0.000000 
0.323730 0.982547 0.000000 
-0.582151 -0.138881 0.000000 
0.265957 0.077823 0.000000 
0.333763 0.031693 0.000000 
0.378371 -0.035322 0.000000 
0.400918 -0.109717 0.000000 
0.401084 -0.172706 0.000000 
0.404345 -0.226807 0.000000 
0.432648 -0.277889 0.000000 
0.450030 -0.342330 0.000000 
0.529803 -0.189177 0.000000 
0.491947 -0.237314 0.000000 
0.453243 -0.187431 0.000000 
0.449550 -0.416654 0.000000 
0.498420 -0.143303 0.000000 
0.474171 -0.083362 0.000000 
0.457863 -0.008789 0.000000 
0.462195 -0.475308 0.000000 
0.478704 -0.521644 0.000000 
0.483460 -0.562610 0.000000 
0.412910 -0.500950 0.000000 
0.398390 -0.539663 0.000000 
0.404290 -0.573951 0.000000 
0.442452 -0.569392 0.000000 
0.436659 -0.534228 0.000000 
-0.727378 0.016139 0.000000 
-0.616071 0.098157 0.000000 
-0.623548 0.023877 0.000000 
-0.605779 -0.057131 0.000000 
-0.706340 -0.069579 0.000000 
-0.681483 -0.155841 0.000000 
-0.032304 1.808991 0.000000 
-0.128010 1.845141 0.000000 
-0.195732 1.912265 0.000000 
-0.243911 1.966179 0.000000 
-0.287859 2.013582 0.000000 
-0.335518 1.985887 0.000000 
-0.667608 -0.241222 0.000000 
-0.584906 -0.247990 0.000000 
-0.658169 -0.321231 0.000000 
-0.578442 -0.313360 0.000000 
-0.639050 -0.392673 0.000000 
-0.607982 -0.468190 0.000000 
-0.562541 -0.376060 0.000000 
-0.536184 -0.437083 0.000000 
-0.495978 -0.475045 0.000000 
-0.500680 -0.527439 0.000000 
-0.573051 -0.531892 0.000000 
-2.690892 1.582286 0.000000 
-2.684799 1.496273 0.000000 
-2.602920 1.495011 0.000000 
-2.574381 1.580004 0.000000 
-2.518122 1.514878 0.000000 
-2.424460 1.538776 0.000000 
-2.320006 1.529845 0.000000 
-2.229986 1.506227 0.000000 
-2.146342 1.464987 0.000000 
-1.455055 -0.196621 0.000000 
-1.387692 -0.116298 0.000000 
-1.339496 -0.062970 0.000000 
-1.304977 -0.034410 0.000000 
-1.531301 -0.131128 0.000000 
-1.604385 -0.087016 0.000000 
-1.592423 0.013665 0.000000 
-1.608296 0.137628 0.000000 
-1.827918 0.336073 0.000000 
0.477873 0.104876 0.000000 
0.477147 0.139775 0.000000 
0.465631 0.174015 0.000000 
-0.587742 1.618224 0.000000 
-0.593403 1.642328 0.000000 
-0.604579 1.654984 0.000000 
-0.619289 1.660670 0.000000 
-0.639577 1.658497 0.000000 
-0.665912 1.660113 0.000000 
-0.697937 1.667099 0.000000 
-0.595692 1.564736 0.000000 
-0.726123 1.681911 0.000000 
-0.757398 1.692482 0.000000 
-0.794522 1.689906 0.000000 
-0.841416 1.687328 0.000000 
-0.894922 1.688689 0.000000 
-0.956071 1.697105 0.000000 
-1.020951 1.716026 0.000000 
-1.077937 1.743661 0.000000 
-1.120258 1.772389 0.000000 
-1.171769 1.748129 0.000000 
0.332207 0.301520 0.000000 
0.333662 0.259785 0.000000 
0.321472 0.330137 0.000000 
0.302407 0.356949 0.000000 
0.214022 0.371611 0.000000 
0.194081 0.432636 0.000000 
0.186716 0.488149 0.000000 
0.189303 0.540921 0.000000 
0.360023 0.220103 0.000000 
0.405131 0.194970 0.000000 
0.201671 0.590167 0.000000 
0.218038 0.640428 0.000000 
0.236652 0.689361 0.000000 
0.256885 0.731295 0.000000 
0.278373 0.759789 0.000000 
0.284019 0.793187 0.000000 
0.276718 0.839935 0.000000 
0.278735 0.896748 0.000000 
0.296322 0.947015 0.000000 
-1.507867 1.699887 0.000000 
-1.548116 1.675244 0.000000 
-1.598023 1.647865 0.000000 
-1.467251 1.714660 0.000000 
-1.422160 1.721944 0.000000 
-1.373311 1.728660 0.000000 
-1.322903 1.736437 0.000000 
-1.275577 1.745683 0.000000 
-1.225048 1.744283 0.000000 
-1.662214 1.624196 0.000000 
-1.732600 1.604256 0.000000 
-1.794687 1.589880 0.000000 
-1.841773 1.560693 0.000000 
-2.078405 0.627966 0.000000 
-2.079214 0.706555 0.000000 
-2.097651 0.550366 0.000000 
-2.129318 0.478627 0.000000 
-2.096743 0.787117 0.000000 
-2.169699 0.423283 0.000000 
-1.991686 0.350283 0.000000 
-1.642187 0.275839 0.000000 
-1.989898 0.183058 0.000000 
-2.064526 0.111246 0.000000 
-1.914688 0.256593 0.000000 
-2.037969 1.039669 0.000000 
-2.021377 0.923985 0.000000 
-2.055796 1.168831 0.000000 
-2.102728 1.271484 0.000000 
-2.047875 1.413787 0.000000 
0.428030 0.160517 0.000000 
0.375625 0.139282 0.000000 
0.313454 0.152382 0.000000 
0.290352 0.298417 0.000000 
0.238487 1.009335 0.000000 
0.440631 0.122410 0.000000 
0.396678 0.082633 0.000000 
0.460488 0.056712 0.000000 
0.523747 1.232825 0.000000 
-2.262588 0.196079 0.000000 
-2.220468 0.252107 0.000000 
-2.218579 0.142568 0.000000 
-2.146376 0.194418 0.000000 
-2.206503 0.077498 0.000000 
0.473879 1.194213 0.000000 
0.446488 1.141881 0.000000 
0.440978 1.097862 0.000000 
0.409581 1.090007 0.000000 
0.629179 1.918903 0.000000 
0.593839 1.886429 0.000000 
0.550362 1.842225 0.000000 
0.483841 1.801803 0.000000 
0.202470 0.942970 0.000000 
0.241245 0.795195 0.000000 
0.205152 0.770394 0.000000 
0.175878 0.722254 0.000000 
0.153326 0.663747 0.000000 
0.132079 0.603297 0.000000 
0.113278 0.538841 0.000000 
0.106000 0.470518 0.000000 
0.109640 0.401322 0.000000 
0.121648 0.330644 0.000000 
0.032483 0.241029 0.000000 
0.246820 0.323708 0.000000 
0.099619 0.189395 0.000000 
0.373127 1.075125 0.000000 
-0.307911 1.938265 0.000000 
-0.360136 1.919795 0.000000 
-0.343252 1.865450 0.000000 
-0.270247 1.873594 0.000000 
0.168337 0.185913 0.000000 
0.242346 0.175576 0.000000 
0.270369 0.244613 0.000000 
0.505525 1.300586 0.000000 
-0.689828 0.127841 0.000000 
-0.729540 0.185245 0.000000 
-0.746154 0.259717 0.000000 
-0.657668 0.276282 0.000000 
-0.661195 0.191995 0.000000 
-0.924642 0.428957 0.000000 
-1.137284 1.692321 0.000000 
-1.072920 1.647727 0.000000 
-1.248127 1.704618 0.000000 
-1.304069 1.688295 0.000000 
-1.360197 1.680635 0.000000 
-1.411221 1.676496 0.000000 
-1.453165 1.673266 0.000000 
-1.486003 1.655804 0.000000 
-1.510814 1.612335 0.000000 
-1.558800 1.567666 0.000000 
-0.995058 1.620974 0.000000 
-0.919611 1.610497 0.000000 
-0.852227 1.617429 0.000000 
-0.796966 1.633948 0.000000 
-0.752732 1.653117 0.000000 
-1.635591 1.540333 0.000000 
-1.992480 0.815034 0.000000 
-1.965104 0.705255 0.000000 
-1.974377 0.601922 0.000000 
-2.014368 0.508300 0.000000 
-2.065453 0.425114 0.000000 
-2.071492 0.272047 0.000000 
-2.131272 0.355584 0.000000 
-1.712039 1.527010 0.000000 
-1.781280 1.526960 0.000000 
-1.884796 1.496903 0.000000 
0.516332 1.716566 0.000000 
0.538779 1.645438 0.000000 
0.517174 1.374971 0.000000 
0.552532 1.436908 0.000000 
0.576896 1.478834 0.000000 
0.583356 1.515860 0.000000 
0.576083 1.552865 0.000000 