# vtk DataFile Version 3.0 
vtk output 
ASCII 
DATASET UNSTRUCTURED_GRID 
POINTS 899 float 
-3.648847 2.177062 0.000000 
-3.619410 2.136510 0.000000 
-3.578536 2.100915 0.000000 
-3.540028 2.065264 0.000000 
-3.511690 2.033069 0.000000 
-3.481362 2.003211 0.000000 
-3.451569 1.962537 0.000000 
0.772356 2.079576 0.000000 
0.774615 2.053455 0.000000 
0.769962 2.024701 0.000000 
-3.399514 1.932261 0.000000 
0.413960 -0.712581 0.000000 
0.455573 -0.708278 0.000000 
-1.762619 -0.612476 0.000000 
-1.783389 -0.577080 0.000000 
-1.714437 -0.548291 0.000000 
0.732567 2.073900 0.000000 
0.698438 2.060064 0.000000 
0.491831 -0.694075 0.000000 
0.519501 -0.663670 0.000000 
0.530556 -0.623224 0.000000 
0.532354 -0.577419 0.000000 
0.531774 -0.526913 0.000000 
-3.460923 1.870529 0.000000 
0.663989 2.038118 0.000000 
0.631675 2.010723 0.000000 
0.601833 1.986668 0.000000 
0.569607 1.963410 0.000000 
0.534059 1.941333 0.000000 
0.492599 1.920193 0.000000 
0.444403 1.901528 0.000000 
0.762807 1.983726 0.000000 
-1.708694 -0.513908 0.000000 
-1.726386 -0.473645 0.000000 
-1.761257 -0.449624 0.000000 
-1.812853 -0.441776 0.000000 
-0.690422 -0.694111 0.000000 
-0.624256 -0.712039 0.000000 
-0.561079 -0.720220 0.000000 
-0.500739 -0.721676 0.000000 
-0.445387 -0.721738 0.000000 
0.532260 -0.467829 0.000000 
0.536647 -0.398496 0.000000 
-1.881389 -0.429275 0.000000 
-0.389303 -0.719464 0.000000 
-0.340338 -0.704178 0.000000 
-0.344339 -0.650043 0.000000 
-0.358558 -0.597504 0.000000 
-0.381750 -0.556592 0.000000 
-0.406193 -0.522418 0.000000 
-0.417316 -0.490920 0.000000 
-0.428320 -0.456663 0.000000 
-0.436973 -0.412398 0.000000 
-0.444212 -0.356855 0.000000 
-0.452662 -0.297997 0.000000 
-0.468602 -0.241098 0.000000 
0.553166 -0.333781 0.000000 
0.573193 -0.276110 0.000000 
0.574450 -0.224369 0.000000 
0.561087 -0.174049 0.000000 
0.550432 -0.118726 0.000000 
0.748903 1.930408 0.000000 
0.730940 1.873916 0.000000 
0.715868 1.827757 0.000000 
0.699446 1.791629 0.000000 
0.684888 1.750639 0.000000 
0.675900 1.704435 0.000000 
0.669871 1.654875 0.000000 
0.664455 1.607018 0.000000 
0.668163 1.560599 0.000000 
0.672091 1.510765 0.000000 
0.674558 1.462742 0.000000 
0.673045 1.412662 0.000000 
0.386491 1.891848 0.000000 
0.664855 1.353923 0.000000 
0.652298 1.295846 0.000000 
0.638456 1.242196 0.000000 
0.623121 1.192686 0.000000 
0.616008 1.149659 0.000000 
0.600787 1.114716 0.000000 
0.571289 1.085268 0.000000 
0.539016 1.054106 0.000000 
0.513857 1.025207 0.000000 
0.493343 0.998972 0.000000 
0.469109 0.981159 0.000000 
0.444920 0.964715 0.000000 
0.415324 0.943749 0.000000 
0.383540 0.918997 0.000000 
0.356179 0.889665 0.000000 
0.343879 0.850765 0.000000 
0.337476 0.805245 0.000000 
0.332404 0.759958 0.000000 
0.328512 0.720268 0.000000 
0.319594 0.684189 0.000000 
0.304149 0.650778 0.000000 
0.290502 0.610387 0.000000 
0.275896 0.562525 0.000000 
0.261905 0.520555 0.000000 
0.250150 0.486960 0.000000 
0.250896 0.449155 0.000000 
0.259587 0.406552 0.000000 
0.284617 0.363779 0.000000 
0.315237 0.334118 0.000000 
0.340022 0.314681 0.000000 
0.354380 0.288832 0.000000 
0.368685 0.261689 0.000000 
0.385568 0.235293 0.000000 
0.415372 0.210496 0.000000 
0.447119 0.178784 0.000000 
0.477633 0.150867 0.000000 
0.503078 0.122931 0.000000 
0.518876 0.084876 0.000000 
0.527127 0.048908 0.000000 
0.534187 0.004363 0.000000 
0.543185 -0.056417 0.000000 
0.322519 1.880792 0.000000 
0.263849 1.867675 0.000000 
0.208223 1.862255 0.000000 
0.150441 1.858427 0.000000 
-0.687392 -0.621044 0.000000 
-3.327058 1.906029 0.000000 
-3.276080 1.859608 0.000000 
-3.224941 1.826021 0.000000 
-3.181728 1.796863 0.000000 
-3.135074 1.759933 0.000000 
-3.078123 1.735640 0.000000 
-1.944260 -0.384397 0.000000 
0.083204 1.863583 0.000000 
0.005786 1.858230 0.000000 
-0.071812 1.867468 0.000000 
-0.135705 1.897010 0.000000 
-0.182391 1.938616 0.000000 
-1.999041 -0.313428 0.000000 
-1.843230 -0.587937 0.000000 
-0.491126 -0.177138 0.000000 
-0.512312 -0.103895 0.000000 
-0.526535 -0.041063 0.000000 
-0.527935 0.021059 0.000000 
-0.524207 0.088229 0.000000 
-0.505864 0.145361 0.000000 
-0.468875 0.194573 0.000000 
-0.410369 0.223818 0.000000 
-0.354013 0.244935 0.000000 
-0.301050 0.254880 0.000000 
-0.255730 0.255653 0.000000 
-0.695595 -0.542748 0.000000 
-0.726457 -0.465867 0.000000 
-0.747352 -0.396411 0.000000 
-3.396487 1.848894 0.000000 
-3.344056 1.769506 0.000000 
-3.294256 1.726105 0.000000 
-3.248246 1.687781 0.000000 
-3.196818 1.648428 0.000000 
-3.159669 1.597117 0.000000 
-3.113281 1.550413 0.000000 
-3.056061 1.530849 0.000000 
-2.996684 1.508225 0.000000 
-2.933161 1.478608 0.000000 
-2.879064 1.442466 0.000000 
-2.813006 1.417680 0.000000 
-2.751664 1.394630 0.000000 
-2.686782 1.365307 0.000000 
-1.922020 -0.585130 0.000000 
-1.999705 -0.586629 0.000000 
-2.060018 -0.565025 0.000000 
-2.032615 -0.230038 0.000000 
-2.048550 -0.144316 0.000000 
-2.029059 -0.078423 0.000000 
-2.105228 -0.507967 0.000000 
-2.154373 -0.440372 0.000000 
-2.203584 -0.385748 0.000000 
-2.237020 -0.324313 0.000000 
-2.250593 -0.259020 0.000000 
-2.270119 -0.187236 0.000000 
-2.297898 -0.116926 0.000000 
-2.327118 -0.055346 0.000000 
-2.346747 -0.001376 0.000000 
-2.362840 0.051733 0.000000 
-2.374561 0.102778 0.000000 
-2.373128 0.154753 0.000000 
-2.334174 0.221344 0.000000 
-2.331842 0.261962 0.000000 
-2.284565 0.270720 0.000000 
-0.236368 1.988151 0.000000 
-0.299146 2.031978 0.000000 
-0.346614 2.051903 0.000000 
-0.382877 2.015400 0.000000 
-0.412447 1.986350 0.000000 
-0.433989 1.946062 0.000000 
-0.446472 1.903096 0.000000 
-0.451628 1.863778 0.000000 
-0.451047 1.825315 0.000000 
-0.449242 1.789312 0.000000 
-0.453345 1.757422 0.000000 
-0.460251 1.729729 0.000000 
-0.470304 1.700944 0.000000 
-0.475290 1.671454 0.000000 
-0.478341 1.641668 0.000000 
-0.479442 1.604932 0.000000 
-2.609147 1.351518 0.000000 
-2.517189 1.346019 0.000000 
-2.434013 1.346356 0.000000 
-2.352624 1.336324 0.000000 
-2.274410 1.316953 0.000000 
-2.204499 1.282305 0.000000 
-2.180326 1.213422 0.000000 
-2.178559 1.124886 0.000000 
-2.168273 1.034857 0.000000 
-2.159086 0.936793 0.000000 
-2.144575 0.847634 0.000000 
-2.163040 0.772417 0.000000 
-2.183612 0.698325 0.000000 
-2.172907 0.633768 0.000000 
-2.161614 0.571013 0.000000 
-2.169833 0.510901 0.000000 
-2.188987 0.449148 0.000000 
-2.218663 0.397902 0.000000 
-2.229021 0.342029 0.000000 
-2.997130 1.718843 0.000000 
-3.021908 1.620705 0.000000 
-2.902046 1.687336 0.000000 
-0.770600 -0.313818 0.000000 
-0.790096 -0.222159 0.000000 
-0.811857 -0.141451 0.000000 
-0.835807 -0.062887 0.000000 
-0.859157 0.007241 0.000000 
-0.881226 0.067292 0.000000 
-0.903169 0.126643 0.000000 
-0.928196 0.190687 0.000000 
-2.785442 1.654782 0.000000 
-2.944278 1.594041 0.000000 
-2.855014 1.556895 0.000000 
-2.796189 1.496815 0.000000 
-2.651235 1.640036 0.000000 
-2.517962 1.629689 0.000000 
-2.394240 1.620526 0.000000 
-2.275192 1.612530 0.000000 
-2.180847 1.587969 0.000000 
-2.099904 1.561489 0.000000 
-2.018420 1.530250 0.000000 
-1.945469 1.534547 0.000000 
-1.885190 1.567887 0.000000 
-1.829736 1.588456 0.000000 
-1.760875 1.613687 0.000000 
-1.680504 1.642112 0.000000 
-1.617798 1.660429 0.000000 
-1.570169 1.674952 0.000000 
-1.527149 1.689142 0.000000 
-1.482581 1.701271 0.000000 
-1.433927 1.707812 0.000000 
-1.386311 1.715727 0.000000 
-1.337319 1.724457 0.000000 
-1.286363 1.731537 0.000000 
-1.235962 1.732254 0.000000 
-1.188452 1.737067 0.000000 
-1.140860 1.746518 0.000000 
-1.091558 1.745827 0.000000 
-1.038962 1.734809 0.000000 
-0.982519 1.715811 0.000000 
-0.922315 1.699069 0.000000 
-0.869867 1.688744 0.000000 
-0.827747 1.682254 0.000000 
-0.785371 1.677342 0.000000 
-0.748025 1.667605 0.000000 
-0.712781 1.657338 0.000000 
-0.681690 1.643406 0.000000 
-0.657198 1.632272 0.000000 
-0.633895 1.625609 0.000000 
-0.612002 1.621154 0.000000 
-0.594184 1.613941 0.000000 
-0.577381 1.604491 0.000000 
-0.560109 1.589207 0.000000 
-0.540091 1.556753 0.000000 
-1.243914 -0.082093 0.000000 
-1.232782 -0.068376 0.000000 
-1.257376 -0.096447 0.000000 
-1.224378 -0.049676 0.000000 
-1.271472 -0.115792 0.000000 
-1.215702 -0.027679 0.000000 
-1.204660 -0.001623 0.000000 
-1.290143 -0.143534 0.000000 
-1.314447 -0.188574 0.000000 
-1.190204 0.028684 0.000000 
-1.318041 -0.241928 0.000000 
-1.171655 0.062840 0.000000 
-1.149359 0.099154 0.000000 
-1.123094 0.137403 0.000000 
-1.284246 -0.291908 0.000000 
-1.239750 -0.342634 0.000000 
-1.083297 0.181394 0.000000 
-1.028190 0.213065 0.000000 
-1.181630 -0.384990 0.000000 
-1.112789 -0.416418 0.000000 
-1.040643 -0.428588 0.000000 
-0.978118 -0.431675 0.000000 
-0.927392 -0.444700 0.000000 
-0.889718 -0.483835 0.000000 
-0.873564 -0.540385 0.000000 
-0.920771 -0.572579 0.000000 
-0.935346 -0.505311 0.000000 
-0.991249 -0.582155 0.000000 
-1.088918 -0.579427 0.000000 
-1.067426 -0.499775 0.000000 
-1.189474 -0.571863 0.000000 
-1.147229 -0.487108 0.000000 
-1.266509 -0.548574 0.000000 
-1.219913 -0.460930 0.000000 
-1.335307 -0.512747 0.000000 
-1.284456 -0.422931 0.000000 
-1.402357 -0.468843 0.000000 
-1.341444 -0.375131 0.000000 
-1.466758 -0.416168 0.000000 
-1.539152 -0.355368 0.000000 
-1.393011 -0.317200 0.000000 
-1.612839 -0.285097 0.000000 
-1.665320 -0.227519 0.000000 
-1.691220 -0.162692 0.000000 
-1.704696 -0.077198 0.000000 
-1.850073 0.089671 0.000000 
-1.911042 0.033846 0.000000 
-1.969645 -0.022991 0.000000 
-1.726970 0.029212 0.000000 
-0.222881 0.237042 0.000000 
-0.195707 0.209459 0.000000 
-0.164205 0.172512 0.000000 
-0.127520 0.139814 0.000000 
-0.095686 0.110322 0.000000 
-0.059027 0.081844 0.000000 
-0.018954 0.051861 0.000000 
0.030296 0.020590 0.000000 
0.086536 0.000064 0.000000 
0.141893 -0.018667 0.000000 
0.202102 -0.047947 0.000000 
0.263408 -0.087864 0.000000 
0.311661 -0.137851 0.000000 
0.333954 -0.197473 0.000000 
0.338621 -0.257924 0.000000 
0.341530 -0.311862 0.000000 
0.353165 -0.362051 0.000000 
0.365710 -0.420474 0.000000 
[...]
POINT_DATA 899 
VECTORS X_GC float 
-3.648847 2.177062 0.000000 
-3.619410 2.136510 0.000000 
-3.578536 2.100915 0.000000 
-3.540028 2.065264 0.000000 
-3.511690 2.033069 0.000000 
-3.481362 2.003211 0.000000 
-3.451569 1.962537 0.000000 
0.772356 2.079576 0.000000 
0.774615 2.053455 0.000000 
0.769962 2.024701 0.000000 
-3.399514 1.932261 0.000000 
0.413960 -0.712581 0.000000 
0.455573 -0.708278 0.000000 
-1.762619 -0.612476 0.000000 
-1.783389 -0.577080 0.000000 
-1.714437 -0.548291 0.000000 
0.732567 2.073900 0.000000 
0.698438 2.060064 0.000000 
0.491831 -0.694075 0.000000 
0.519501 -0.663670 0.000000 
0.530556 -0.623224 0.000000 
0.532354 -0.577419 0.000000 
0.531774 -0.526913 0.000000 
-3.460923 1.870529 0.000000 
0.663989 2.038118 0.000000 
0.631675 2.010723 0.000000 
0.601833 1.986668 0.000000 
0.569607 1.963410 0.000000 
0.534059 1.941333 0.000000 
0.492599 1.920193 0.000000 
0.444403 1.901528 0.000000 
0.762807 1.983726 0.000000 
-1.708694 -0.513908 0.000000 
-1.726386 -0.473645 0.000000 
-1.761257 -0.449624 0.000000 
-1.812853 -0.441776 0.000000 
-0.690422 -0.694111 0.000000 
-0.624256 -0.712039 0.000000 
-0.561079 -0.720220 0.000000 
-0.500739 -0.721676 0.000000 
-0.445387 -0.721738 0.000000 
0.532260 -0.467829 0.000000 
0.536647 -0.398496 0.000000 
-1.881389 -0.429275 0.000000 
-0.389303 -0.719464 0.000000 
-0.340338 -0.704178 0.000000 
-0.344339 -0.650043 0.000000 
-0.358558 -0.597504 0.000000 
-0.381750 -0.556592 0.000000 
-0.406193 -0.522418 0.000000 
-0.417316 -0.490920 0.000000 
-0.428320 -0.456663 0.000000 
-0.436973 -0.412398 0.000000 
-0.444212 -0.356855 0.000000 
-0.452662 -0.297997 0.000000 
-0.468602 -0.241098 0.000000 
0.553166 -0.333781 0.000000 
0.573193 -0.276110 0.000000 
0.574450 -0.224369 0.000000 
0.561087 -0.174049 0.000000 
0.550432 -0.118726 0.000000 
0.748903 1.930408 0.000000 
0.730940 1.873916 0.000000 
0.715868 1.827757 0.000000 
0.699446 1.791629 0.000000 
0.684888 1.750639 0.000000 
0.675900 1.704435 0.000000 
0.669871 1.654875 0.000000 
0.664455 1.607018 0.000000 
0.668163 1.560599 0.000000 
0.672091 1.510765 0.000000 
0.674558 1.462742 0.000000 
0.673045 1.412662 0.000000 
0.386491 1.891848 0.000000 
0.664855 1.353923 0.000000 
0.652298 1.295846 0.000000 
0.638456 1.242196 0.000000 
0.623121 1.192686 0.000000 
0.616008 1.149659 0.000000 
0.600787 1.114716 0.000000 
0.571289 1.085268 0.000000 
0.539016 1.054106 0.000000 
0.513857 1.025207 0.000000 
0.493343 0.998972 0.000000 
0.469109 0.981159 0.000000 
0.444920 0.964715 0.000000 
0.415324 0.943749 0.000000 
0.383540 0.918997 0.000000 
0.356179 0.889665 0.000000 
0.343879 0.850765 0.000000 
0.337476 0.805245 0.000000 
0.332404 0.759958 0.000000 
0.328512 0.720268 0.000000 
0.319594 0.684189 0.000000 
0.304149 0.650778 0.000000 
0.290502 0.610387 0.000000 
0.275896 0.562525 0.000000 
0.261905 0.520555 0.000000 
0.250150 0.486960 0.000000 
0.250896 0.449155 0.000000 
0.259587 0.406552 0.000000 
0.284617 0.363779 0.000000 
0.315237 0.334118 0.000000 
0.340022 0.314681 0.000000 
0.354380 0.288832 0.000000 
0.368685 0.261689 0.000000 
0.385568 0.235293 0.000000 
0.415372 0.210496 0.000000 
0.447119 0.178784 0.000000 
0.477633 0.150867 0.000000 
0.503078 0.122931 0.000000 
0.518876 0.084876 0.000000 
0.527127 0.048908 0.000000 
0.534187 0.004363 0.000000 
0.543185 -0.056417 0.000000 
0.322519 1.880792 0.000000 
0.263849 1.867675 0.000000 
0.208223 1.862255 0.000000 
0.150441 1.858427 0.000000 
-0.687392 -0.621044 0.000000 
-3.327058 1.906029 0.000000 
-3.276080 1.859608 0.000000 
-3.224941 1.826021 0.000000 
-3.181728 1.796863 0.000000 
-3.135074 1.759933 0.000000 
-3.078123 1.735640 0.000000 
-1.944260 -0.384397 0.000000 
0.083204 1.863583 0.000000 
0.005786 1.858230 0.000000 
-0.071812 1.867468 0.000000 
-0.135705 1.897010 0.000000 
-0.182391 1.938616 0.000000 
-1.999041 -0.313428 0.000000 
-1.843230 -0.587937 0.000000 
-0.491126 -0.177138 0.000000 
-0.512312 -0.103895 0.000000 
-0.526535 -0.041063 0.000000 
-0.527935 0.021059 0.000000 
-0.524207 0.088229 0.000000 
-0.505864 0.145361 0.000000 
-0.468875 0.194573 0.000000 
-0.410369 0.223818 0.000000 
-0.354013 0.244935 0.000000 
-0.301050 0.254880 0.000000 
-0.255730 0.255653 0.000000 
-0.695595 -0.542748 0.000000 
-0.726457 -0.465867 0.000000 
-0.747352 -0.396411 0.000000 
-3.396487 1.848894 0.000000 
-3.344056 1.769506 0.000000 
-3.294256 1.726105 0.000000 
-3.248246 1.687781 0.000000 
-3.196818 1.648428 0.000000 
-3.159669 1.597117 0.000000 
-3.113281 1.550413 0.000000 
-3.056061 1.530849 0.000000 
-2.996684 1.508225 0.000000 
-2.933161 1.478608 0.000000 
-2.879064 1.442466 0.000000 
-2.813006 1.417680 0.000000 
-2.751664 1.394630 0.000000 
-2.686782 1.365307 0.000000 
-1.922020 -0.585130 0.000000 
-1.999705 -0.586629 0.000000 
-2.060018 -0.565025 0.000000 
-2.032615 -0.230038 0.000000 
-2.048550 -0.144316 0.000000 
-2.029059 -0.078423 0.000000 
-2.105228 -0.507967 0.000000 
-2.154373 -0.440372 0.000000 
-2.203584 -0.385748 0.000000 
-2.237020 -0.324313 0.000000 
-2.250593 -0.259020 0.000000 
-2.270119 -0.187236 0.000000 
-2.297898 -0.116926 0.000000 
-2.327118 -0.055346 0.000000 
-2.346747 -0.001376 0.000000 
-2.362840 0.051733 0.000000 
-2.374561 0.102778 0.000000 
-2.373128 0.154753 0.000000 
-2.334174 0.221344 0.000000 
-2.331842 0.261962 0.000000 
-2.284565 0.270720 0.000000 
-0.236368 1.988151 0.000000 
-0.299146 2.031978 0.000000 
-0.346614 2.051903 0.000000 
-0.382877 2.015400 0.000000 
-0.412447 1.986350 0.000000 
-0.433989 1.946062 0.000000 
-0.446472 1.903096 0.000000 
-0.451628 1.863778 0.000000 
-0.451047 1.825315 0.000000 
-0.449242 1.789312 0.000000 
-0.453345 1.757422 0.000000 
-0.460251 1.729729 0.000000 
-0.470304 1.700944 0.000000 
-0.475290 1.671454 0.000000 
-0.478341 1.641668 0.000000 
-0.479442 1.604932 0.000000 
-2.609147 1.351518 0.000000 
-2.517189 1.346019 0.000000 
-2.434013 1.346356 0.000000 
-2.352624 1.336324 0.000000 
-2.274410 1.316953 0.000000 
-2.204499 1.282305 0.000000 
-2.180326 1.213422 0.000000 
-2.178559 1.124886 0.000000 
-2.168273 1.034857 0.000000 
-2.159086 0.936793 0.000000 
-2.144575 0.847634 0.000000 
-2.163040 0.772417 0.000000 
-2.183612 0.698325 0.000000 
-2.172907 0.633768 0.000000 
-2.161614 0.571013 0.000000 
-2.169833 0.510901 0.000000 
-2.188987 0.449148 0.000000 
-2.218663 0.397902 0.000000 
-2.229021 0.342029 0.000000 
-2.997130 1.718843 0.000000 
-3.021908 1.620705 0.000000 
-2.902046 1.687336 0.000000 
-0.770600 -0.313818 0.000000 
-0.790096 -0.222159 0.000000 
-0.811857 -0.141451 0.000000 
-0.835807 -0.062887 0.000000 
-0.859157 0.007241 0.000000 
-0.881226 0.067292 0.000000 
-0.903169 0.126643 0.000000 
-0.928196 0.190687 0.000000 
-2.785442 1.654782 0.000000 
-2.944278 1.594041 0.000000 
-2.855014 1.556895 0.000000 
-2.796189 1.496815 0.000000 
-2.651235 1.640036 0.000000 
-2.517962 1.629689 0.000000 
-2.394240 1.620526 0.000000 
-2.275192 1.612530 0.000000 
-2.180847 1.587969 0.000000 
-2.099904 1.561489 0.000000 
-2.018420 1.530250 0.000000 
-1.945469 1.534547 0.000000 
-1.885190 1.567887 0.000000 
-1.829736 1.588456 0.000000 
-1.760875 1.613687 0.000000 
-1.680504 1.642112 0.000000 
-1.617798 1.660429 0.000000 
-1.570169 1.674952 0.000000 
-1.527149 1.689142 0.000000 
-1.482581 1.701271 0.000000 
-1.433927 1.707812 0.000000 
-1.386311 1.715727 0.000000 
-1.337319 1.724457 0.000000 
-1.286363 1.731537 0.000000 
-1.235962 1.732254 0.000000 
-1.188452 1.737067 0.000000 
-1.140860 1.746518 0.000000 
-1.091558 1.745827 0.000000 
-1.038962 1.734809 0.000000 
-0.982519 1.715811 0.000000 
-0.922315 1.699069 0.000000 
-0.869867 1.688744 0.000000 
-0.827747 1.682254 0.000000 
-0.785371 1.677342 0.000000 
-0.748025 1.667605 0.000000 
-0.712781 1.657338 0.000000 
-0.681690 1.643406 0.000000 
-0.657198 1.632272 0.000000 
-0.633895 1.625609 0.000000 
-0.612002 1.621154 0.000000 
-0.594184 1.613941 0.000000 
-0.577381 1.604491 0.000000 
-0.560109 1.589207 0.000000 
-0.540091 1.556753 0.000000 
-1.243914 -0.082093 0.000000 
-1.232782 -0.068376 0.000000 
-1.257376 -0.096447 0.000000 
-1.224378 -0.049676 0.000000 
-1.271472 -0.115792 0.000000 
-1.215702 -0.027679 0.000000 
-1.204660 -0.001623 0.000000 
-1.290143 -0.143534 0.000000 
-1.314447 -0.188574 0.000000 
-1.190204 0.028684 0.000000 
-1.318041 -0.241928 0.000000 
-1.171655 0.062840 0.000000 
-1.149359 0.099154 0.000000 
-1.123094 0.137403 0.000000 
-1.284246 -0.291908 0.000000 
-1.239750 -0.342634 0.000000 
-1.083297 0.181394 0.000000 
-1.028190 0.213065 0.000000 
-1.181630 -0.384990 0.000000 
-1.112789 -0.416418 0.000000 
-1.040643 -0.428588 0.000000 
-0.978118 -0.431675 0.000000 
-0.927392 -0.444700 0.000000 
-0.889718 -0.483835 0.000000 
-0.873564 -0.540385 0.000000 
-0.920771 -0.572579 0.000000 
-0.935346 -0.505311 0.000000 
-0.991249 -0.582155 0.000000 
-1.088918 -0.579427 0.000000 
-1.067426 -0.499775 0.000000 
-1.189474 -0.571863 0.000000 
-1.147229 -0.487108 0.000000 
-1.266509 -0.548574 0.000000 
-1.219913 -0.460930 0.000000 
-1.335307 -0.512747 0.000000 
-1.284456 -0.422931 0.000000 
-1.402357 -0.468843 0.000000 
-1.341444 -0.375131 0.000000 
-1.466758 -0.416168 0.000000 
-1.539152 -0.355368 0.000000 
-1.393011 -0.317200 0.000000 
-1.612839 -0.285097 0.000000 
-1.665320 -0.227519 0.000000 
-1.691220 -0.162692 0.000000 
-1.704696 -0.077198 0.000000 
-1.850073 0.089671 0.000000 
-1.911042 0.033846 0.000000 
-1.969645 -0.022991 0.000000 
-1.726970 0.029212 0.000000 
-0.222881 0.237042 0.000000 
-0.195707 0.209459 0.000000 
-0.164205 0.172512 0.000000 
-0.127520 0.139814 0.000000 
-0.095686 0.110322 0.000000 
-0.059027 0.081844 0.000000 
-0.018954 0.051861 0.000000 
0.030296 0.020590 0.000000 
0.086536 0.000064 0.000000 
0.141893 -0.018667 0.000000 
0.202102 -0.047947 0.000000 
0.263408 -0.087864 0.000000 
0.311661 -0.137851 0.000000 
0.333954 -0.197473 0.000000 
0.338621 -0.257924 0.000000 
0.341530 -0.311862 0.000000 
0.353165 -0.362051 0.000000 
0.365710 -0.420474 0.000000 
0.363543 -0.490002 0.000000 
0.357353 -0.552117 0.000000 
0.351188 -0.602859 0.000000 
0.363842 -0.649887 0.000000 
-1.737069 -0.516538 0.000000 
-0.199590 0.289659 0.000000 
-0.156305 0.259743 0.000000 
-0.462327 1.525699 0.000000 
0.741313 2.048274 0.000000 
0.482415 -0.660658 0.000000 
0.446104 -0.668554 0.000000 
0.403556 -0.674208 0.000000 
-0.104001 0.231678 0.000000 
-0.514998 1.457754 0.000000 
-0.059937 0.197274 0.000000 
0.738519 2.023009 0.000000 
0.714572 2.035309 0.000000 
-0.249752 0.316483 0.000000 
-0.036232 0.153475 0.000000 
0.000772 0.125643 0.000000 
0.035161 0.099998 0.000000 
-1.776537 -0.515980 0.000000 
-1.836238 -0.511795 0.000000 
-0.309416 0.330583 0.000000 
-0.378944 0.328319 0.000000 
-2.292732 0.207907 0.000000 
-2.315166 0.157916 0.000000 
-2.314418 0.110359 0.000000 
-2.293418 0.063973 0.000000 
-2.279687 0.014094 0.000000 
-2.253462 -0.033172 0.000000 
0.075120 0.072256 0.000000 
0.131113 0.059648 0.000000 
-0.977004 0.261631 0.000000 
-0.860050 0.251466 0.000000 
-1.912142 -0.503739 0.000000 
-1.989966 -0.512519 0.000000 
-2.023752 -0.444977 0.000000 
-2.082175 -0.373716 0.000000 
0.723889 1.991496 0.000000 
0.691466 2.010338 0.000000 
0.665980 1.977692 0.000000 
0.704783 1.950423 0.000000 
0.637970 1.939634 0.000000 
0.681732 1.903215 0.000000 
0.670916 1.857040 0.000000 
0.602858 1.907966 0.000000 
0.659584 1.816616 0.000000 
0.560783 1.881595 0.000000 
0.636111 1.780541 0.000000 
0.607495 1.730751 0.000000 
0.595324 1.667270 0.000000 
0.604052 1.602597 0.000000 
0.514160 1.852191 0.000000 
0.453857 1.824746 0.000000 
0.392525 1.822768 0.000000 
0.334098 1.821239 0.000000 
0.278675 1.802486 0.000000 
0.217273 1.784410 0.000000 
0.149449 1.767055 0.000000 
0.614128 1.550321 0.000000 
0.621313 1.502742 0.000000 
0.624262 1.457862 0.000000 
-2.197766 -0.086360 0.000000 
-2.158682 -0.161284 0.000000 
-2.124695 -0.027030 0.000000 
-2.150589 -0.327410 0.000000 
-2.141926 -0.249865 0.000000 
-0.393439 -0.666425 0.000000 
-0.412631 -0.622381 0.000000 
-0.436983 -0.581778 0.000000 
-0.445953 -0.538358 0.000000 
-0.458251 -0.505533 0.000000 
-0.479726 -0.470766 0.000000 
-0.496934 -0.422035 0.000000 
-0.509002 -0.366952 0.000000 
-0.517157 -0.312621 0.000000 
-0.545309 -0.261346 0.000000 
-0.442273 -0.663819 0.000000 
-0.496002 -0.654302 0.000000 
-0.557668 -0.656409 0.000000 
-0.618975 -0.640928 0.000000 
-0.334659 1.990090 0.000000 
-0.367985 1.960373 0.000000 
-0.385153 1.923947 0.000000 
-0.396797 1.890080 0.000000 
-0.406285 1.854557 0.000000 
-0.402558 1.815424 0.000000 
-0.406645 1.776981 0.000000 
-0.418378 1.744567 0.000000 
-0.428059 1.715441 0.000000 
-0.435849 1.685894 0.000000 
-0.442335 1.655859 0.000000 
-0.445406 1.622794 0.000000 
-0.444483 1.577077 0.000000 
0.619822 1.412130 0.000000 
-1.077870 0.308695 0.000000 
-1.149036 0.266736 0.000000 
-1.174735 0.191894 0.000000 
-1.192231 0.140171 0.000000 
-1.210811 0.098394 0.000000 
-1.228352 0.059054 0.000000 
-1.238869 0.021074 0.000000 
-1.244643 -0.010423 0.000000 
-1.248534 -0.035324 0.000000 
-1.252336 -0.054612 0.000000 
-1.262323 -0.067863 0.000000 
-1.280319 -0.078779 0.000000 
-0.451814 0.305659 0.000000 
-0.526928 0.262137 0.000000 
0.194935 0.042656 0.000000 
0.069048 1.752955 0.000000 
-0.574175 0.191453 0.000000 
-0.593607 0.110350 0.000000 
-1.764101 0.150034 0.000000 
-2.210991 0.268891 0.000000 
-0.825996 0.166189 0.000000 
-0.799223 0.095108 0.000000 
-0.760911 0.028675 0.000000 
0.605964 1.361178 0.000000 
0.587834 1.303818 0.000000 
0.576354 1.243970 0.000000 
0.574971 1.188961 0.000000 
0.580375 1.145937 0.000000 
0.545179 1.123553 0.000000 
0.509957 1.091290 0.000000 
0.484198 1.054888 0.000000 
0.468721 1.023734 0.000000 
0.449386 1.005202 0.000000 
0.422962 0.992537 0.000000 
0.391379 0.973386 0.000000 
0.357154 0.949323 0.000000 
0.323730 0.920950 0.000000 
-0.582151 -0.200478 0.000000 
0.265957 0.016226 0.000000 
0.333763 -0.029904 0.000000 
0.378371 -0.096919 0.000000 
0.400918 -0.171314 0.000000 
0.401084 -0.234303 0.000000 
0.404345 -0.288404 0.000000 
0.432648 -0.339486 0.000000 
0.450030 -0.403927 0.000000 
0.529803 -0.250774 0.000000 
0.491947 -0.298911 0.000000 
0.453243 -0.249028 0.000000 
0.449550 -0.478251 0.000000 
0.498420 -0.204900 0.000000 
0.474171 -0.144959 0.000000 
0.457863 -0.070386 0.000000 
0.462195 -0.536905 0.000000 
0.478704 -0.583241 0.000000 
0.483460 -0.624207 0.000000 
0.412910 -0.562547 0.000000 
0.398390 -0.601260 0.000000 
0.404290 -0.635548 0.000000 
0.442452 -0.630989 0.000000 
0.436659 -0.595825 0.000000 
-0.727378 -0.045458 0.000000 
-0.616071 0.036560 0.000000 
-0.623548 -0.037720 0.000000 
-0.605779 -0.118728 0.000000 
-0.706340 -0.131176 0.000000 
-0.681483 -0.217438 0.000000 
-0.032304 1.747394 0.000000 
-0.128010 1.783544 0.000000 
-0.195732 1.850668 0.000000 
-0.243911 1.904582 0.000000 
-0.287859 1.951985 0.000000 
-0.335518 1.924290 0.000000 
-0.667608 -0.302819 0.000000 
-0.584906 -0.309587 0.000000 
-0.658169 -0.382828 0.000000 
-0.578442 -0.374957 0.000000 
-0.639050 -0.454270 0.000000 
-0.607982 -0.529787 0.000000 
-0.562541 -0.437657 0.000000 
-0.536184 -0.498680 0.000000 
-0.495978 -0.536642 0.000000 
-0.500680 -0.589036 0.000000 
-0.573051 -0.593489 0.000000 
-2.690892 1.520689 0.000000 
-2.684799 1.434676 0.000000 
-2.602920 1.433414 0.000000 
-2.574381 1.518407 0.000000 
-2.518122 1.453281 0.000000 
-2.424460 1.477179 0.000000 
-2.320006 1.468248 0.000000 
-2.229986 1.444630 0.000000 
-2.146342 1.403390 0.000000 
-1.455055 -0.258218 0.000000 
-1.387692 -0.177895 0.000000 
-1.339496 -0.124567 0.000000 
-1.304977 -0.096007 0.000000 
-1.531301 -0.192725 0.000000 
-1.604385 -0.148613 0.000000 
-1.592423 -0.047932 0.000000 
-1.608296 0.076031 0.000000 
-1.827918 0.274476 0.000000 
0.477873 0.043279 0.000000 
0.477147 0.078178 0.000000 
0.465631 0.112418 0.000000 
-0.587742 1.556627 0.000000 
-0.593403 1.580731 0.000000 
-0.604579 1.593387 0.000000 
-0.619289 1.599073 0.000000 
-0.639577 1.596900 0.000000 
-0.665912 1.598516 0.000000 
-0.697937 1.605502 0.000000 
-0.595692 1.503139 0.000000 
-0.726123 1.620314 0.000000 
-0.757398 1.630885 0.000000 
-0.794522 1.628309 0.000000 
-0.841416 1.625731 0.000000 
-0.894922 1.627092 0.000000 
-0.956071 1.635508 0.000000 
-1.020951 1.654429 0.000000 
-1.077937 1.682064 0.000000 
-1.120258 1.710792 0.000000 
-1.171769 1.686532 0.000000 
0.332207 0.239923 0.000000 
0.333662 0.198188 0.000000 
0.321472 0.268540 0.000000 
0.302407 0.295352 0.000000 
0.214022 0.310014 0.000000 
0.194081 0.371039 0.000000 
0.186716 0.426552 0.000000 
0.189303 0.479324 0.000000 
0.360023 0.158506 0.000000 
0.405131 0.133373 0.000000 
0.201671 0.528570 0.000000 
0.218038 0.578831 0.000000 
0.236652 0.627764 0.000000 
0.256885 0.669698 0.000000 
0.278373 0.698192 0.000000 
0.284019 0.731590 0.000000 
0.276718 0.778338 0.000000 
0.278735 0.835151 0.000000 
0.296322 0.885418 0.000000 
-1.507867 1.638290 0.000000 
-1.548116 1.613647 0.000000 
-1.598023 1.586268 0.000000 
-1.467251 1.653063 0.000000 
-1.422160 1.660347 0.000000 
-1.373311 1.667063 0.000000 
-1.322903 1.674840 0.000000 
-1.275577 1.684086 0.000000 
-1.225048 1.682686 0.000000 
-1.662214 1.562599 0.000000 
-1.732600 1.542659 0.000000 
-1.794687 1.528283 0.000000 
-1.841773 1.499096 0.000000 
-2.078405 0.566369 0.000000 
-2.079214 0.644958 0.000000 
-2.097651 0.488769 0.000000 
-2.129318 0.417030 0.000000 
-2.096743 0.725520 0.000000 
-2.169699 0.361686 0.000000 
-1.991686 0.288686 0.000000 
-1.642187 0.214242 0.000000 
-1.989898 0.121461 0.000000 
-2.064526 0.049649 0.000000 
-1.914688 0.194996 0.000000 
-2.037969 0.978073 0.000000 
-2.021377 0.862388 0.000000 
-2.055796 1.107234 0.000000 
-2.102728 1.209887 0.000000 
-2.047875 1.352190 0.000000 
0.428030 0.098920 0.000000 
0.375625 0.077685 0.000000 
0.313454 0.090785 0.000000 
0.290352 0.236820 0.000000 
0.238487 0.947738 0.000000 
0.440631 0.060813 0.000000 
0.396678 0.021036 0.000000 
0.460488 -0.004885 0.000000 
0.523747 1.171228 0.000000 
-2.262588 0.134482 0.000000 
-2.220468 0.190510 0.000000 
-2.218579 0.080971 0.000000 
-2.146376 0.132821 0.000000 
-2.206503 0.015901 0.000000 
0.473879 1.132616 0.000000 
0.446488 1.080284 0.000000 
0.440978 1.036265 0.000000 
0.409581 1.028410 0.000000 
0.629179 1.857306 0.000000 
0.593839 1.824832 0.000000 
0.550362 1.780628 0.000000 
0.483841 1.740206 0.000000 
0.202470 0.881373 0.000000 
0.241245 0.733598 0.000000 
0.205152 0.708797 0.000000 
0.175878 0.660657 0.000000 
0.153326 0.602150 0.000000 
0.132079 0.541700 0.000000 
0.113278 0.477244 0.000000 
0.106000 0.408921 0.000000 
0.109640 0.339725 0.000000 
0.121648 0.269047 0.000000 
0.032483 0.179433 0.000000 
0.246820 0.262111 0.000000 
0.099619 0.127798 0.000000 
0.373127 1.013528 0.000000 
-0.307911 1.876668 0.000000 
-0.360136 1.858198 0.000000 
-0.343252 1.803853 0.000000 
-0.270247 1.811997 0.000000 
0.168337 0.124316 0.000000 
0.242346 0.113979 0.000000 
0.270369 0.183016 0.000000 
0.505525 1.238989 0.000000 
-0.689828 0.066244 0.000000 
-0.729540 0.123648 0.000000 
-0.746154 0.198120 0.000000 
-0.657668 0.214685 0.000000 
-0.661195 0.130398 0.000000 
-0.924642 0.367360 0.000000 
-1.137284 1.630724 0.000000 
-1.072920 1.586130 0.000000 
-1.248127 1.643021 0.000000 
-1.304069 1.626698 0.000000 
-1.360197 1.619038 0.000000 
-1.411221 1.614899 0.000000 
-1.453165 1.611669 0.000000 
-1.486003 1.594207 0.000000 
-1.510814 1.550738 0.000000 
-1.558800 1.506069 0.000000 
-0.995058 1.559377 0.000000 
-0.919611 1.548900 0.000000 
-0.852227 1.555832 0.000000 
-0.796966 1.572351 0.000000 
-0.752732 1.591520 0.000000 
-1.635591 1.478736 0.000000 
-1.992480 0.753437 0.000000 
-1.965104 0.643658 0.000000 
-1.974377 0.540325 0.000000 
-2.014368 0.446703 0.000000 
-2.065453 0.363517 0.000000 
-2.071492 0.210450 0.000000 
-2.131272 0.293987 0.000000 
-1.712039 1.465413 0.000000 
-1.781280 1.465363 0.000000 
-1.884796 1.435306 0.000000 
0.516332 1.654969 0.000000 
0.538779 1.583841 0.000000 
0.517174 1.313374 0.000000 
0.552532 1.375311 0.000000 
0.576896 1.417237 0.000000 
0.583356 1.454263 0.000000 