# vtk DataFile Version 3.0 
vtk output 
ASCII 
DATASET UNSTRUCTURED_GRID 
POINTS 899 float 
-3.648847 2.336425 0.000000 
-3.619410 2.295873 0.000000 
-3.578536 2.260279 0.000000 
-3.540028 2.224628 0.000000 
-3.511690 2.192432 0.000000 
-3.481362 2.162574 0.000000 
-3.451569 2.121901 0.000000 
0.772356 2.238939 0.000000 
0.774615 2.212818 0.000000 
0.769962 2.184064 0.000000 
-3.399514 2.091625 0.000000 
0.413960 -0.553217 0.000000 
0.455573 -0.548915 0.000000 
-1.762619 -0.453113 0.000000 
-1.783389 -0.417717 0.000000 
-1.714437 -0.388927 0.000000 
0.732567 2.233264 0.000000 
0.698438 2.219428 0.000000 
0.491831 -0.534712 0.000000 
0.519501 -0.504307 0.000000 
0.530556 -0.463860 0.000000 
0.532354 -0.418056 0.000000 
0.531774 -0.367549 0.000000 
-3.460923 2.029892 0.000000 
0.663989 2.197481 0.000000 
0.631675 2.170087 0.000000 
0.601833 2.146031 0.000000 
0.569607 2.122774 0.000000 
0.534059 2.100696 0.000000 
0.492599 2.079556 0.000000 
0.444403 2.060891 0.000000 
0.762807 2.143090 0.000000 
-1.708694 -0.354545 0.000000 
-1.726386 -0.314281 0.000000 
-1.761257 -0.290261 0.000000 
-1.812853 -0.282412 0.000000 
-0.690422 -0.534747 0.000000 
-0.624256 -0.552675 0.000000 
-0.561079 -0.560857 0.000000 
-0.500739 -0.562312 0.000000 
-0.445387 -0.562375 0.000000 
0.532260 -0.308466 0.000000 
0.536647 -0.239132 0.000000 
-1.881389 -0.269911 0.000000 
-0.389303 -0.560100 0.000000 
-0.340338 -0.544815 0.000000 
-0.344339 -0.490680 0.000000 
-0.358558 -0.438140 0.000000 
-0.381750 -0.397229 0.000000 
-0.406193 -0.363054 0.000000 
-0.417316 -0.331556 0.000000 
-0.428320 -0.297299 0.000000 
-0.436973 -0.253035 0.000000 
-0.444212 -0.197492 0.000000 
-0.452662 -0.138634 0.000000 
-0.468602 -0.081735 0.000000 
0.553166 -0.174417 0.000000 
0.573193 -0.116746 0.000000 
0.574450 -0.065006 0.000000 
0.561087 -0.014686 0.000000 
0.550432 0.040637 0.000000 
0.748903 2.089772 0.000000 
0.730940 2.033279 0.000000 
0.715868 1.987120 0.000000 
0.699446 1.950992 0.000000 
0.684888 1.910003 0.000000 
0.675900 1.863798 0.000000 
0.669871 1.814239 0.000000 
0.664455 1.766381 0.000000 
0.668163 1.719962 0.000000 
0.672091 1.670129 0.000000 
0.674558 1.622105 0.000000 
0.673045 1.572026 0.000000 
0.386491 2.051211 0.000000 
0.664855 1.513287 0.000000 
0.652298 1.455209 0.000000 
0.638456 1.401559 0.000000 
0.623121 1.352049 0.000000 
0.616008 1.309022 0.000000 
0.600787 1.274080 0.000000 
0.571289 1.244631 0.000000 
0.539016 1.213470 0.000000 
0.513857 1.184571 0.000000 
0.493343 1.158335 0.000000 
0.469109 1.140523 0.000000 
0.444920 1.124079 0.000000 
0.415324 1.103113 0.000000 
0.383540 1.078360 0.000000 
0.356179 1.049028 0.000000 
0.343879 1.010128 0.000000 
0.337476 0.964608 0.000000 
0.332404 0.919322 0.000000 
0.328512 0.879632 0.000000 
0.319594 0.843552 0.000000 
0.304149 0.810141 0.000000 
0.290502 0.769750 0.000000 
0.275896 0.721888 0.000000 
0.261905 0.679919 0.000000 
0.250150 0.646324 0.000000 
0.250896 0.608519 0.000000 
0.259587 0.565915 0.000000 
0.284617 0.523142 0.000000 
0.315237 0.493481 0.000000 
0.340022 0.474044 0.000000 
0.354380 0.448196 0.000000 
0.368685 0.421053 0.000000 
0.385568 0.394657 0.000000 
0.415372 0.369860 0.000000 
0.447119 0.338147 0.000000 
0.477633 0.310231 0.000000 
0.503078 0.282294 0.000000 
0.518876 0.244240 0.000000 
0.527127 0.208271 0.000000 
0.534187 0.163726 0.000000 
0.543185 0.102946 0.000000 
0.322519 2.040155 0.000000 
0.263849 2.027039 0.000000 
0.208223 2.021619 0.000000 
0.150441 2.017790 0.000000 
-0.687392 -0.461680 0.000000 
-3.327058 2.065393 0.000000 
-3.276080 2.018971 0.000000 
-3.224941 1.985385 0.000000 
-3.181728 1.956226 0.000000 
-3.135074 1.919296 0.000000 
-3.078123 1.895003 0.000000 
-1.944260 -0.225033 0.000000 
0.083204 2.022946 0.000000 
0.005786 2.017593 0.000000 
-0.071812 2.026832 0.000000 
-0.135705 2.056373 0.000000 
-0.182391 2.097979 0.000000 
-1.999041 -0.154065 0.000000 
-1.843230 -0.428573 0.000000 
-0.491126 -0.017775 0.000000 
-0.512312 0.055468 0.000000 
-0.526535 0.118301 0.000000 
-0.527935 0.180422 0.000000 
-0.524207 0.247592 0.000000 
-0.505864 0.304724 0.000000 
-0.468875 0.353936 0.000000 
-0.410369 0.383181 0.000000 
-0.354013 0.404298 0.000000 
-0.301050 0.414244 0.000000 
-0.255730 0.415016 0.000000 
-0.695595 -0.383385 0.000000 
-0.726457 -0.306503 0.000000 
-0.747352 -0.237048 0.000000 
-3.396487 2.008258 0.000000 
-3.344056 1.928870 0.000000 
-3.294256 1.885469 0.000000 
-3.248246 1.847145 0.000000 
-3.196818 1.807791 0.000000 
-3.159669 1.756481 0.000000 
-3.113281 1.709776 0.000000 
-3.056061 1.690213 0.000000 
-2.996684 1.667588 0.000000 
-2.933161 1.637972 0.000000 
-2.879064 1.601829 0.000000 
-2.813006 1.577044 0.000000 
-2.751664 1.553993 0.000000 
-2.686782 1.524670 0.000000 
-1.922020 -0.425767 0.000000 
-1.999705 -0.427265 0.000000 
-2.060018 -0.405662 0.000000 
-2.032615 -0.070674 0.000000 
-2.048550 0.015048 0.000000 
-2.029059 0.080941 0.000000 
-2.105228 -0.348603 0.000000 
-2.154373 -0.281009 0.000000 
-2.203584 -0.226385 0.000000 
-2.237020 -0.164950 0.000000 
-2.250593 -0.099657 0.000000 
-2.270119 -0.027873 0.000000 
-2.297898 0.042438 0.000000 
-2.327118 0.104017 0.000000 
-2.346747 0.157987 0.000000 
-2.362840 0.211097 0.000000 
-2.374561 0.262141 0.000000 
-2.373128 0.314117 0.000000 
-2.334174 0.380707 0.000000 
-2.331842 0.421325 0.000000 
-2.284565 0.430084 0.000000 
-0.236368 2.147514 0.000000 
-0.299146 2.191341 0.000000 
-0.346614 2.211266 0.000000 
-0.382877 2.174763 0.000000 
-0.412447 2.145714 0.000000 
-0.433989 2.105426 0.000000 
-0.446472 2.062460 0.000000 
-0.451628 2.023141 0.000000 
-0.451047 1.984679 0.000000 
-0.449242 1.948675 0.000000 
-0.453345 1.916786 0.000000 
-0.460251 1.889093 0.000000 
-0.470304 1.860307 0.000000 
-0.475290 1.830817 0.000000 
-0.478341 1.801032 0.000000 
-0.479442 1.764296 0.000000 
-2.609147 1.510881 0.000000 
-2.517189 1.505383 0.000000 
-2.434013 1.505719 0.000000 
-2.352624 1.495688 0.000000 
-2.274410 1.476317 0.000000 
-2.204499 1.441668 0.000000 
-2.180326 1.372786 0.000000 
-2.178559 1.284249 0.000000 
-2.168273 1.194220 0.000000 
-2.159086 1.096156 0.000000 
-2.144575 1.006998 0.000000 
-2.163040 0.931781 0.000000 
-2.183612 0.857689 0.000000 
-2.172907 0.793131 0.000000 
-2.161614 0.730376 0.000000 
-2.169833 0.670264 0.000000 
-2.188987 0.608511 0.000000 
-2.218663 0.557265 0.000000 
-2.229021 0.501392 0.000000 
-2.997130 1.878206 0.000000 
-3.021908 1.780069 0.000000 
-2.902046 1.846699 0.000000 
-0.770600 -0.154454 0.000000 
-0.790096 -0.062795 0.000000 
-0.811857 0.017912 0.000000 
-0.835807 0.096476 0.000000 
-0.859157 0.166604 0.000000 
-0.881226 0.226656 0.000000 
-0.903169 0.286006 0.000000 
-0.928196 0.350050 0.000000 
-2.785442 1.814146 0.000000 
-2.944278 1.753404 0.000000 
-2.855014 1.716258 0.000000 
-2.796189 1.656178 0.000000 
-2.651235 1.799400 0.000000 
-2.517962 1.789053 0.000000 
-2.394240 1.779890 0.000000 
-2.275192 1.771893 0.000000 
-2.180847 1.747332 0.000000 
-2.099904 1.720853 0.000000 
-2.018420 1.689613 0.000000 
-1.945469 1.693911 0.000000 
-1.885190 1.727251 0.000000 
-1.829736 1.747819 0.000000 
-1.760875 1.773051 0.000000 
-1.680504 1.801475 0.000000 
-1.617798 1.819792 0.000000 
-1.570169 1.834316 0.000000 
-1.527149 1.848506 0.000000 
-1.482581 1.860635 0.000000 
-1.433927 1.867175 0.000000 
-1.386311 1.875090 0.000000 
-1.337319 1.883820 0.000000 
-1.286363 1.890900 0.000000 
-1.235962 1.891618 0.000000 
-1.188452 1.896431 0.000000 
-1.140860 1.905882 0.000000 
-1.091558 1.905191 0.000000 
-1.038962 1.894172 0.000000 
-0.982519 1.875174 0.000000 
-0.922315 1.858432 0.000000 
-0.869867 1.848107 0.000000 
-0.827747 1.841618 0.000000 
-0.785371 1.836706 0.000000 
-0.748025 1.826969 0.000000 
-0.712781 1.816702 0.000000 
-0.681690 1.802770 0.000000 
-0.657198 1.791636 0.000000 
-0.633895 1.784972 0.000000 
-0.612002 1.780517 0.000000 
-0.594184 1.773304 0.000000 
-0.577381 1.763854 0.000000 
-0.560109 1.748571 0.000000 
-0.540091 1.716116 0.000000 
-1.243914 0.077271 0.000000 
-1.232782 0.090988 0.000000 
-1.257376 0.062917 0.000000 
-1.224378 0.109687 0.000000 
-1.271472 0.043571 0.000000 
-1.215702 0.131684 0.000000 
-1.204660 0.157741 0.000000 
-1.290143 0.015830 0.000000 
-1.314447 -0.029210 0.000000 
-1.190204 0.188047 0.000000 
-1.318041 -0.082565 0.000000 
-1.171655 0.222203 0.000000 
-1.149359 0.258518 0.000000 
-1.123094 0.296766 0.000000 
-1.284246 -0.132544 0.000000 
-1.239750 -0.183270 0.000000 
-1.083297 0.340757 0.000000 
-1.028190 0.372429 0.000000 
-1.181630 -0.225627 0.000000 
-1.112789 -0.257054 0.000000 
-1.040643 -0.269225 0.000000 
-0.978118 -0.272311 0.000000 
-0.927392 -0.285337 0.000000 
-0.889718 -0.324471 0.000000 
-0.873564 -0.381022 0.000000 
-0.920771 -0.413216 0.000000 
-0.935346 -0.345947 0.000000 
-0.991249 -0.422791 0.000000 
-1.088918 -0.420063 0.000000 
-1.067426 -0.340411 0.000000 
-1.189474 -0.412500 0.000000 
-1.147229 -0.327744 0.000000 
-1.266509 -0.389210 0.000000 
-1.219913 -0.301567 0.000000 
-1.335307 -0.353383 0.000000 
-1.284456 -0.263568 0.000000 
-1.402357 -0.309479 0.000000 
-1.341444 -0.215767 0.000000 
-1.466758 -0.256804 0.000000 
-1.539152 -0.196005 0.000000 
-1.393011 -0.157836 0.000000 
-1.612839 -0.125733 0.000000 
-1.665320 -0.068155 0.000000 
-1.691220 -0.003329 0.000000 
-1.704696 0.082165 0.000000 
-1.850073 0.249034 0.000000 
-1.911042 0.193209 0.000000 
-1.969645 0.136373 0.000000 
-1.726970 0.188576 0.000000 
-0.222881 0.396406 0.000000 
-0.195707 0.368822 0.000000 
-0.164205 0.331875 0.000000 
-0.127520 0.299177 0.000000 
-0.095686 0.269686 0.000000 
-0.059027 0.241208 0.000000 
-0.018954 0.211224 0.000000 
0.030296 0.179953 0.000000 
0.086536 0.159428 0.000000 
0.141893 0.140696 0.000000 
0.202102 0.111416 0.000000 
0.263408 0.071500 0.000000 
0.311661 0.021513 0.000000 
0.333954 -0.038110 0.000000 
0.338621 -0.098560 0.000000 
0.341530 -0.152499 0.000000 
0.353165 -0.202687 0.000000 
0.365710 -0.261110 0.000000 
0.363543 -0.330639 0.000000 
[...]
POINT_DATA 899 
VECTORS X_GC float 
-3.648847 2.336425 0.000000 
-3.619410 2.295873 0.000000 
-3.578536 2.260279 0.000000 
-3.540028 2.224628 0.000000 
-3.511690 2.192432 0.000000 
-3.481362 2.162574 0.000000 
-3.451569 2.121901 0.000000 
0.772356 2.238939 0.000000 
0.774615 2.212818 0.000000 
0.769962 2.184064 0.000000 
-3.399514 2.091625 0.000000 
0.413960 -0.553217 0.000000 
0.455573 -0.548915 0.000000 
-1.762619 -0.453113 0.000000 
-1.783389 -0.417717 0.000000 
-1.714437 -0.388927 0.000000 
0.732567 2.233264 0.000000 
0.698438 2.219428 0.000000 
0.491831 -0.534712 0.000000 
0.519501 -0.504307 0.000000 
0.530556 -0.463860 0.000000 
0.532354 -0.418056 0.000000 
0.531774 -0.367549 0.000000 
-3.460923 2.029892 0.000000 
0.663989 2.197481 0.000000 
0.631675 2.170087 0.000000 
0.601833 2.146031 0.000000 
0.569607 2.122774 0.000000 
0.534059 2.100696 0.000000 
0.492599 2.079556 0.000000 
0.444403 2.060891 0.000000 
0.762807 2.143090 0.000000 
-1.708694 -0.354545 0.000000 
-1.726386 -0.314281 0.000000 
-1.761257 -0.290261 0.000000 
-1.812853 -0.282412 0.000000 
-0.690422 -0.534747 0.000000 
-0.624256 -0.552675 0.000000 
-0.561079 -0.560857 0.000000 
-0.500739 -0.562312 0.000000 
-0.445387 -0.562375 0.000000 
0.532260 -0.308466 0.000000 
0.536647 -0.239132 0.000000 
-1.881389 -0.269911 0.000000 
-0.389303 -0.560100 0.000000 
-0.340338 -0.544815 0.000000 
-0.344339 -0.490680 0.000000 
-0.358558 -0.438140 0.000000 
-0.381750 -0.397229 0.000000 
-0.406193 -0.363054 0.000000 
-0.417316 -0.331556 0.000000 
-0.428320 -0.297299 0.000000 
-0.436973 -0.253035 0.000000 
-0.444212 -0.197492 0.000000 
-0.452662 -0.138634 0.000000 
-0.468602 -0.081735 0.000000 
0.553166 -0.174417 0.000000 
0.573193 -0.116746 0.000000 
0.574450 -0.065006 0.000000 
0.561087 -0.014686 0.000000 
0.550432 0.040637 0.000000 
0.748903 2.089772 0.000000 
0.730940 2.033279 0.000000 
0.715868 1.987120 0.000000 
0.699446 1.950992 0.000000 
0.684888 1.910003 0.000000 
0.675900 1.863798 0.000000 
0.669871 1.814239 0.000000 
0.664455 1.766381 0.000000 
0.668163 1.719962 0.000000 
0.672091 1.670129 0.000000 
0.674558 1.622105 0.000000 
0.673045 1.572026 0.000000 
0.386491 2.051211 0.000000 
0.664855 1.513287 0.000000 
0.652298 1.455209 0.000000 
0.638456 1.401559 0.000000 
0.623121 1.352049 0.000000 
0.616008 1.309022 0.000000 
0.600787 1.274080 0.000000 
0.571289 1.244631 0.000000 
0.539016 1.213470 0.000000 
0.513857 1.184571 0.000000 
0.493343 1.158335 0.000000 
0.469109 1.140523 0.000000 
0.444920 1.124079 0.000000 
0.415324 1.103113 0.000000 
0.383540 1.078360 0.000000 
0.356179 1.049028 0.000000 
0.343879 1.010128 0.000000 
0.337476 0.964608 0.000000 
0.332404 0.919322 0.000000 
0.328512 0.879632 0.000000 
0.319594 0.843552 0.000000 
0.304149 0.810141 0.000000 
0.290502 0.769750 0.000000 
0.275896 0.721888 0.000000 
0.261905 0.679919 0.000000 
0.250150 0.646324 0.000000 
0.250896 0.608519 0.000000 
0.259587 0.565915 0.000000 
0.284617 0.523142 0.000000 
0.315237 0.493481 0.000000 
0.340022 0.474044 0.000000 
0.354380 0.448196 0.000000 
0.368685 0.421053 0.000000 
0.385568 0.394657 0.000000 
0.415372 0.369860 0.000000 
0.447119 0.338147 0.000000 
0.477633 0.310231 0.000000 
0.503078 0.282294 0.000000 
0.518876 0.244240 0.000000 
0.527127 0.208271 0.000000 
0.534187 0.163726 0.000000 
0.543185 0.102946 0.000000 
0.322519 2.040155 0.000000 
0.263849 2.027039 0.000000 
0.208223 2.021619 0.000000 
0.150441 2.017790 0.000000 
-0.687392 -0.461680 0.000000 
-3.327058 2.065393 0.000000 
-3.276080 2.018971 0.000000 
-3.224941 1.985385 0.000000 
-3.181728 1.956226 0.000000 
-3.135074 1.919296 0.000000 
-3.078123 1.895003 0.000000 
-1.944260 -0.225033 0.000000 
0.083204 2.022946 0.000000 
0.005786 2.017593 0.000000 
-0.071812 2.026832 0.000000 
-0.135705 2.056373 0.000000 
-0.182391 2.097979 0.000000 
-1.999041 -0.154065 0.000000 
-1.843230 -0.428573 0.000000 
-0.491126 -0.017775 0.000000 
-0.512312 0.055468 0.000000 
-0.526535 0.118301 0.000000 
-0.527935 0.180422 0.000000 
-0.524207 0.247592 0.000000 
-0.505864 0.304724 0.000000 
-0.468875 0.353936 0.000000 
-0.410369 0.383181 0.000000 
-0.354013 0.404298 0.000000 
-0.301050 0.414244 0.000000 
-0.255730 0.415016 0.000000 
-0.695595 -0.383385 0.000000 
-0.726457 -0.306503 0.000000 
-0.747352 -0.237048 0.000000 
-3.396487 2.008258 0.000000 
-3.344056 1.928870 0.000000 
-3.294256 1.885469 0.000000 
-3.248246 1.847145 0.000000 
-3.196818 1.807791 0.000000 
-3.159669 1.756481 0.000000 
-3.113281 1.709776 0.000000 
-3.056061 1.690213 0.000000 
-2.996684 1.667588 0.000000 
-2.933161 1.637972 0.000000 
-2.879064 1.601829 0.000000 
-2.813006 1.577044 0.000000 
-2.751664 1.553993 0.000000 
-2.686782 1.524670 0.000000 
-1.922020 -0.425767 0.000000 
-1.999705 -0.427265 0.000000 
-2.060018 -0.405662 0.000000 
-2.032615 -0.070674 0.000000 
-2.048550 0.015048 0.000000 
-2.029059 0.080941 0.000000 
-2.105228 -0.348603 0.000000 
-2.154373 -0.281009 0.000000 
-2.203584 -0.226385 0.000000 
-2.237020 -0.164950 0.000000 
-2.250593 -0.099657 0.000000 
-2.270119 -0.027873 0.000000 
-2.297898 0.042438 0.000000 
-2.327118 0.104017 0.000000 
-2.346747 0.157987 0.000000 
-2.362840 0.211097 0.000000 
-2.374561 0.262141 0.000000 
-2.373128 0.314117 0.000000 
-2.334174 0.380707 0.000000 
-2.331842 0.421325 0.000000 
-2.284565 0.430084 0.000000 
-0.236368 2.147514 0.000000 
-0.299146 2.191341 0.000000 
-0.346614 2.211266 0.000000 
-0.382877 2.174763 0.000000 
-0.412447 2.145714 0.000000 
-0.433989 2.105426 0.000000 
-0.446472 2.062460 0.000000 
-0.451628 2.023141 0.000000 
-0.451047 1.984679 0.000000 
-0.449242 1.948675 0.000000 
-0.453345 1.916786 0.000000 
-0.460251 1.889093 0.000000 
-0.470304 1.860307 0.000000 
-0.475290 1.830817 0.000000 
-0.478341 1.801032 0.000000 
-0.479442 1.764296 0.000000 
-2.609147 1.510881 0.000000 
-2.517189 1.505383 0.000000 
-2.434013 1.505719 0.000000 
-2.352624 1.495688 0.000000 
-2.274410 1.476317 0.000000 
-2.204499 1.441668 0.000000 
-2.180326 1.372786 0.000000 
-2.178559 1.284249 0.000000 
-2.168273 1.194220 0.000000 
-2.159086 1.096156 0.000000 
-2.144575 1.006998 0.000000 
-2.163040 0.931781 0.000000 
-2.183612 0.857689 0.000000 
-2.172907 0.793131 0.000000 
-2.161614 0.730376 0.000000 
-2.169833 0.670264 0.000000 
-2.188987 0.608511 0.000000 
-2.218663 0.557265 0.000000 
-2.229021 0.501392 0.000000 
-2.997130 1.878206 0.000000 
-3.021908 1.780069 0.000000 
-2.902046 1.846699 0.000000 
-0.770600 -0.154454 0.000000 
-0.790096 -0.062795 0.000000 
-0.811857 0.017912 0.000000 
-0.835807 0.096476 0.000000 
-0.859157 0.166604 0.000000 
-0.881226 0.226656 0.000000 
-0.903169 0.286006 0.000000 
-0.928196 0.350050 0.000000 
-2.785442 1.814146 0.000000 
-2.944278 1.753404 0.000000 
-2.855014 1.716258 0.000000 
-2.796189 1.656178 0.000000 
-2.651235 1.799400 0.000000 
-2.517962 1.789053 0.000000 
-2.394240 1.779890 0.000000 
-2.275192 1.771893 0.000000 
-2.180847 1.747332 0.000000 
-2.099904 1.720853 0.000000 
-2.018420 1.689613 0.000000 
-1.945469 1.693911 0.000000 
-1.885190 1.727251 0.000000 
-1.829736 1.747819 0.000000 
-1.760875 1.773051 0.000000 
-1.680504 1.801475 0.000000 
-1.617798 1.819792 0.000000 
-1.570169 1.834316 0.000000 
-1.527149 1.848506 0.000000 
-1.482581 1.860635 0.000000 
-1.433927 1.867175 0.000000 
-1.386311 1.875090 0.000000 
-1.337319 1.883820 0.000000 
-1.286363 1.890900 0.000000 
-1.235962 1.891618 0.000000 
-1.188452 1.896431 0.000000 
-1.140860 1.905882 0.000000 
-1.091558 1.905191 0.000000 
-1.038962 1.894172 0.000000 
-0.982519 1.875174 0.000000 
-0.922315 1.858432 0.000000 
-0.869867 1.848107 0.000000 
-0.827747 1.841618 0.000000 
-0.785371 1.836706 0.000000 
-0.748025 1.826969 0.000000 
-0.712781 1.816702 0.000000 
-0.681690 1.802770 0.000000 
-0.657198 1.791636 0.000000 
-0.633895 1.784972 0.000000 
-0.612002 1.780517 0.000000 
-0.594184 1.773304 0.000000 
-0.577381 1.763854 0.000000 
-0.560109 1.748571 0.000000 
-0.540091 1.716116 0.000000 
-1.243914 0.077271 0.000000 
-1.232782 0.090988 0.000000 
-1.257376 0.062917 0.000000 
-1.224378 0.109687 0.000000 
-1.271472 0.043571 0.000000 
-1.215702 0.131684 0.000000 
-1.204660 0.157741 0.000000 
-1.290143 0.015830 0.000000 
-1.314447 -0.029210 0.000000 
-1.190204 0.188047 0.000000 
-1.318041 -0.082565 0.000000 
-1.171655 0.222203 0.000000 
-1.149359 0.258518 0.000000 
-1.123094 0.296766 0.000000 
-1.284246 -0.132544 0.000000 
-1.239750 -0.183270 0.000000 
-1.083297 0.340757 0.000000 
-1.028190 0.372429 0.000000 
-1.181630 -0.225627 0.000000 
-1.112789 -0.257054 0.000000 
-1.040643 -0.269225 0.000000 
-0.978118 -0.272311 0.000000 
-0.927392 -0.285337 0.000000 
-0.889718 -0.324471 0.000000 
-0.873564 -0.381022 0.000000 
-0.920771 -0.413216 0.000000 
-0.935346 -0.345947 0.000000 
-0.991249 -0.422791 0.000000 
-1.088918 -0.420063 0.000000 
-1.067426 -0.340411 0.000000 
-1.189474 -0.412500 0.000000 
-1.147229 -0.327744 0.000000 
-1.266509 -0.389210 0.000000 
-1.219913 -0.301567 0.000000 
-1.335307 -0.353383 0.000000 
-1.284456 -0.263568 0.000000 
-1.402357 -0.309479 0.000000 
-1.341444 -0.215767 0.000000 
-1.466758 -0.256804 0.000000 
-1.539152 -0.196005 0.000000 
-1.393011 -0.157836 0.000000 
-1.612839 -0.125733 0.000000 
-1.665320 -0.068155 0.000000 
-1.691220 -0.003329 0.000000 
-1.704696 0.082165 0.000000 
-1.850073 0.249034 0.000000 
-1.911042 0.193209 0.000000 
-1.969645 0.136373 0.000000 
-1.726970 0.188576 0.000000 
-0.222881 0.396406 0.000000 
-0.195707 0.368822 0.000000 
-0.164205 0.331875 0.000000 
-0.127520 0.299177 0.000000 
-0.095686 0.269686 0.000000 
-0.059027 0.241208 0.000000 
-0.018954 0.211224 0.000000 
0.030296 0.179953 0.000000 
0.086536 0.159428 0.000000 
0.141893 0.140696 0.000000 
0.202102 0.111416 0.000000 
0.263408 0.071500 0.000000 
0.311661 0.021513 0.000000 
0.333954 -0.038110 0.000000 
0.338621 -0.098560 0.000000 
0.341530 -0.152499 0.000000 
0.353165 -0.202687 0.000000 
0.365710 -0.261110 0.000000 
0.363543 -0.330639 0.000000 
0.357353 -0.392753 0.000000 
0.351188 -0.443496 0.000000 
0.363842 -0.490524 0.000000 
-1.737069 -0.357175 0.000000 
-0.199590 0.449023 0.000000 
-0.156305 0.419107 0.000000 
-0.462327 1.685063 0.000000 
0.741313 2.207637 0.000000 
0.482415 -0.501295 0.000000 
0.446104 -0.509191 0.000000 
0.403556 -0.514845 0.000000 
-0.104001 0.391042 0.000000 
-0.514998 1.617117 0.000000 
-0.059937 0.356637 0.000000 
0.738519 2.182372 0.000000 
0.714572 2.194672 0.000000 
-0.249752 0.475846 0.000000 
-0.036232 0.312839 0.000000 
0.000772 0.285007 0.000000 
0.035161 0.259362 0.000000 
-1.776537 -0.356616 0.000000 
-1.836238 -0.352432 0.000000 
-0.309416 0.489946 0.000000 
-0.378944 0.487682 0.000000 
-2.292732 0.367270 0.000000 
-2.315166 0.317279 0.000000 
-2.314418 0.269723 0.000000 
-2.293418 0.223336 0.000000 
-2.279687 0.173457 0.000000 
-2.253462 0.126192 0.000000 
0.075120 0.231619 0.000000 
0.131113 0.219011 0.000000 
-0.977004 0.420995 0.000000 
-0.860050 0.410829 0.000000 
-1.912142 -0.344375 0.000000 
-1.989966 -0.353156 0.000000 
-2.023752 -0.285614 0.000000 
-2.082175 -0.214353 0.000000 
0.723889 2.150859 0.000000 
0.691466 2.169702 0.000000 
0.665980 2.137055 0.000000 
0.704783 2.109787 0.000000 
0.637970 2.098997 0.000000 
0.681732 2.062579 0.000000 
0.670916 2.016403 0.000000 
0.602858 2.067329 0.000000 
0.659584 1.975979 0.000000 
0.560783 2.040958 0.000000 
0.636111 1.939905 0.000000 
0.607495 1.890114 0.000000 
0.595324 1.826634 0.000000 
0.604052 1.761960 0.000000 
0.514160 2.011555 0.000000 
0.453857 1.984110 0.000000 
0.392525 1.982131 0.000000 
0.334098 1.980603 0.000000 
0.278675 1.961849 0.000000 
0.217273 1.943774 0.000000 
0.149449 1.926418 0.000000 
0.614128 1.709685 0.000000 
0.621313 1.662105 0.000000 
0.624262 1.617226 0.000000 
-2.197766 0.073003 0.000000 
-2.158682 -0.001921 0.000000 
-2.124695 0.132333 0.000000 
-2.150589 -0.168047 0.000000 
-2.141926 -0.090501 0.000000 
-0.393439 -0.507061 0.000000 
-0.412631 -0.463018 0.000000 
-0.436983 -0.422414 0.000000 
-0.445953 -0.378995 0.000000 
-0.458251 -0.346169 0.000000 
-0.479726 -0.311403 0.000000 
-0.496934 -0.262672 0.000000 
-0.509002 -0.207588 0.000000 
-0.517157 -0.153258 0.000000 
-0.545309 -0.101982 0.000000 
-0.442273 -0.504456 0.000000 
-0.496002 -0.494938 0.000000 
-0.557668 -0.497045 0.000000 
-0.618975 -0.481565 0.000000 
-0.334659 2.149453 0.000000 
-0.367985 2.119736 0.000000 
-0.385153 2.083310 0.000000 
-0.396797 2.049443 0.000000 
-0.406285 2.013921 0.000000 
-0.402558 1.974788 0.000000 
-0.406645 1.936344 0.000000 
-0.418378 1.903930 0.000000 
-0.428059 1.874805 0.000000 
-0.435849 1.845257 0.000000 
-0.442335 1.815222 0.000000 
-0.445406 1.782157 0.000000 
-0.444483 1.736441 0.000000 
0.619822 1.571494 0.000000 
-1.077870 0.468059 0.000000 
-1.149036 0.426100 0.000000 
-1.174735 0.351257 0.000000 
-1.192231 0.299534 0.000000 
-1.210811 0.257757 0.000000 
-1.228352 0.218418 0.000000 
-1.238869 0.180438 0.000000 
-1.244643 0.148941 0.000000 
-1.248534 0.124039 0.000000 
-1.252336 0.104752 0.000000 
-1.262323 0.091500 0.000000 
-1.280319 0.080584 0.000000 
-0.451814 0.465022 0.000000 
-0.526928 0.421500 0.000000 
0.194935 0.202019 0.000000 
0.069048 1.912319 0.000000 
-0.574175 0.350816 0.000000 
-0.593607 0.269713 0.000000 
-1.764101 0.309398 0.000000 
-2.210991 0.428254 0.000000 
-0.825996 0.325552 0.000000 
-0.799223 0.254472 0.000000 
-0.760911 0.188039 0.000000 
0.605964 1.520542 0.000000 
0.587834 1.463182 0.000000 
0.576354 1.403333 0.000000 
0.574971 1.348325 0.000000 
0.580375 1.305300 0.000000 
0.545179 1.282916 0.000000 
0.509957 1.250654 0.000000 
0.484198 1.214251 0.000000 
0.468721 1.183097 0.000000 
0.449386 1.164566 0.000000 
0.422962 1.151901 0.000000 
0.391379 1.132750 0.000000 
0.357154 1.108686 0.000000 
0.323730 1.080314 0.000000 
-0.582151 -0.041115 0.000000 
0.265957 0.175589 0.000000 
0.333763 0.129460 0.000000 
0.378371 0.062444 0.000000 
0.400918 -0.011951 0.000000 
0.401084 -0.074940 0.000000 
0.404345 -0.129040 0.000000 
0.432648 -0.180122 0.000000 
0.450030 -0.244564 0.000000 
0.529803 -0.091410 0.000000 
0.491947 -0.139548 0.000000 
0.453243 -0.089664 0.000000 
0.449550 -0.318888 0.000000 
0.498420 -0.045537 0.000000 
0.474171 0.014405 0.000000 
0.457863 0.088978 0.000000 
0.462195 -0.377542 0.000000 
0.478704 -0.423878 0.000000 
0.483460 -0.464844 0.000000 
0.412910 -0.403183 0.000000 
0.398390 -0.441897 0.000000 
0.404290 -0.476184 0.000000 
0.442452 -0.471626 0.000000 
0.436659 -0.436461 0.000000 
-0.727378 0.113905 0.000000 
-0.616071 0.195924 0.000000 
-0.623548 0.121643 0.000000 
-0.605779 0.040635 0.000000 
-0.706340 0.028187 0.000000 
-0.681483 -0.058075 0.000000 
-0.032304 1.906758 0.000000 
-0.128010 1.942907 0.000000 
-0.195732 2.010031 0.000000 
-0.243911 2.063945 0.000000 
-0.287859 2.111349 0.000000 
-0.335518 2.083653 0.000000 
-0.667608 -0.143455 0.000000 
-0.584906 -0.150223 0.000000 
-0.658169 -0.223464 0.000000 
-0.578442 -0.215594 0.000000 
-0.639050 -0.294907 0.000000 
-0.607982 -0.370424 0.000000 
-0.562541 -0.278293 0.000000 
-0.536184 -0.339316 0.000000 
-0.495978 -0.377278 0.000000 
-0.500680 -0.429672 0.000000 
-0.573051 -0.434126 0.000000 
-2.690892 1.680052 0.000000 
-2.684799 1.594040 0.000000 
-2.602920 1.592778 0.000000 
-2.574381 1.677771 0.000000 
-2.518122 1.612645 0.000000 
-2.424460 1.636543 0.000000 
-2.320006 1.627612 0.000000 
-2.229986 1.603994 0.000000 
-2.146342 1.562754 0.000000 
-1.455055 -0.098855 0.000000 
-1.387692 -0.018531 0.000000 
-1.339496 0.034797 0.000000 
-1.304977 0.063357 0.000000 
-1.531301 -0.033362 0.000000 
-1.604385 0.010751 0.000000 
-1.592423 0.111431 0.000000 
-1.608296 0.235394 0.000000 
-1.827918 0.433840 0.000000 
0.477873 0.202643 0.000000 
0.477147 0.237541 0.000000 
0.465631 0.271782 0.000000 
-0.587742 1.715991 0.000000 
-0.593403 1.740094 0.000000 
-0.604579 1.752750 0.000000 
-0.619289 1.758436 0.000000 
-0.639577 1.756263 0.000000 
-0.665912 1.757879 0.000000 
-0.697937 1.764866 0.000000 
-0.595692 1.662502 0.000000 
-0.726123 1.779677 0.000000 
-0.757398 1.790248 0.000000 
-0.794522 1.787673 0.000000 
-0.841416 1.785095 0.000000 
-0.894922 1.786456 0.000000 
-0.956071 1.794871 0.000000 
-1.020951 1.813793 0.000000 
-1.077937 1.841428 0.000000 
-1.120258 1.870156 0.000000 
-1.171769 1.845895 0.000000 
0.332207 0.399286 0.000000 
0.333662 0.357551 0.000000 
0.321472 0.427903 0.000000 
0.302407 0.454716 0.000000 
0.214022 0.469378 0.000000 
0.194081 0.530402 0.000000 
0.186716 0.585915 0.000000 
0.189303 0.638687 0.000000 
0.360023 0.317870 0.000000 
0.405131 0.292736 0.000000 
0.201671 0.687933 0.000000 
0.218038 0.738194 0.000000 
0.236652 0.787128 0.000000 
0.256885 0.829062 0.000000 
0.278373 0.857556 0.000000 
0.284019 0.890954 0.000000 
0.276718 0.937701 0.000000 
0.278735 0.994514 0.000000 
0.296322 1.044782 0.000000 
-1.507867 1.797653 0.000000 
-1.548116 1.773011 0.000000 
-1.598023 1.745631 0.000000 
-1.467251 1.812427 0.000000 
-1.422160 1.819710 0.000000 
-1.373311 1.826427 0.000000 
-1.322903 1.834203 0.000000 
-1.275577 1.843449 0.000000 
-1.225048 1.842050 0.000000 
-1.662214 1.721962 0.000000 
-1.732600 1.702022 0.000000 
-1.794687 1.687647 0.000000 
-1.841773 1.658460 0.000000 
-2.078405 0.725732 0.000000 
-2.079214 0.804322 0.000000 
-2.097651 0.648132 0.000000 
-2.129318 0.576393 0.000000 
-2.096743 0.884884 0.000000 
-2.169699 0.521050 0.000000 
-1.991686 0.448050 0.000000 
-1.642187 0.373606 0.000000 
-1.989898 0.280825 0.000000 
-2.064526 0.209012 0.000000 
-1.914688 0.354359 0.000000 
-2.037969 1.137436 0.000000 
-2.021377 1.021751 0.000000 
-2.055796 1.266598 0.000000 
-2.102728 1.369251 0.000000 
-2.047875 1.511553 0.000000 
0.428030 0.258284 0.000000 
0.375625 0.237048 0.000000 
0.313454 0.250149 0.000000 
0.290352 0.396184 0.000000 
0.238487 1.107101 0.000000 
0.440631 0.220176 0.000000 
0.396678 0.180399 0.000000 
0.460488 0.154479 0.000000 
0.523747 1.330591 0.000000 
-2.262588 0.293846 0.000000 
-2.220468 0.349873 0.000000 
-2.218579 0.240335 0.000000 
-2.146376 0.292185 0.000000 
-2.206503 0.175264 0.000000 
0.473879 1.291979 0.000000 
0.446488 1.239648 0.000000 
0.440978 1.195629 0.000000 
0.409581 1.187774 0.000000 
0.629179 2.016669 0.000000 
0.593839 1.984196 0.000000 
0.550362 1.939992 0.000000 
0.483841 1.899569 0.000000 
0.202470 1.040737 0.000000 
0.241245 0.892961 0.000000 
0.205152 0.868161 0.000000 
0.175878 0.820020 0.000000 
0.153326 0.761514 0.000000 
0.132079 0.701064 0.000000 
0.113278 0.636608 0.000000 
0.106000 0.568285 0.000000 
0.109640 0.499088 0.000000 
0.121648 0.428410 0.000000 
0.032483 0.338796 0.000000 
0.246820 0.421475 0.000000 
0.099619 0.287161 0.000000 
0.373127 1.172891 0.000000 
-0.307911 2.036031 0.000000 
-0.360136 2.017562 0.000000 
-0.343252 1.963216 0.000000 
-0.270247 1.971361 0.000000 
0.168337 0.283680 0.000000 
0.242346 0.273342 0.000000 
0.270369 0.342379 0.000000 
0.505525 1.398352 0.000000 
-0.689828 0.225608 0.000000 
-0.729540 0.283012 0.000000 
-0.746154 0.357484 0.000000 
-0.657668 0.374048 0.000000 
-0.661195 0.289761 0.000000 
-0.924642 0.526724 0.000000 
-1.137284 1.790087 0.000000 
-1.072920 1.745493 0.000000 
-1.248127 1.802384 0.000000 
-1.304069 1.786062 0.000000 
-1.360197 1.778402 0.000000 
-1.411221 1.774262 0.000000 
-1.453165 1.771032 0.000000 
-1.486003 1.753570 0.000000 
-1.510814 1.710101 0.000000 
-1.558800 1.665432 0.000000 
-0.995058 1.718740 0.000000 
-0.919611 1.708264 0.000000 
-0.852227 1.715196 0.000000 
-0.796966 1.731715 0.000000 
-0.752732 1.750883 0.000000 
-1.635591 1.638099 0.000000 
-1.992480 0.912801 0.000000 
-1.965104 0.803021 0.000000 
-1.974377 0.699689 0.000000 
-2.014368 0.606067 0.000000 
-2.065453 0.522881 0.000000 
-2.071492 0.369814 0.000000 
-2.131272 0.453350 0.000000 
-1.712039 1.624776 0.000000 
-1.781280 1.624727 0.000000 
-1.884796 1.594670 0.000000 
0.516332 1.814333 0.000000 
0.538779 1.743204 0.000000 
0.517174 1.472738 0.000000 
0.552532 1.534674 0.000000 
0.576896 1.576601 0.000000 
0.583356 1.613627 0.000000 
0.576083 1.650631 0.000000 
0.562288 1.692992 0.000000 