# vtk DataFile Version 3.0 
vtk output 
ASCII 
DATASET UNSTRUCTURED_GRID 
POINTS 899 float 
-3.648847 2.158864 0.000000 
-3.619410 2.118312 0.000000 
-3.578536 2.082718 0.000000 
-3.540028 2.047067 0.000000 
-3.511690 2.014871 0.000000 
-3.481362 1.985013 0.000000 
-3.451569 1.944340 0.000000 
0.772356 2.061378 0.000000 
0.774615 2.035257 0.000000 
0.769962 2.006503 0.000000 
-3.399514 1.914064 0.000000 
0.413960 -0.730778 0.000000 
0.455573 -0.726476 0.000000 
-1.762619 -0.630674 0.000000 
-1.783389 -0.595278 0.000000 
-1.714437 -0.566488 0.000000 
0.732567 2.055703 0.000000 
0.698438 2.041867 0.000000 
0.491831 -0.712273 0.000000 
0.519501 -0.681868 0.000000 
0.530556 -0.641421 0.000000 
0.532354 -0.595617 0.000000 
0.531774 -0.545110 0.000000 
-3.460923 1.852331 0.000000 
0.663989 2.019920 0.000000 
0.631675 1.992526 0.000000 
0.601833 1.968470 0.000000 
0.569607 1.945213 0.000000 
0.534059 1.923135 0.000000 
0.492599 1.901995 0.000000 
0.444403 1.883330 0.000000 
0.762807 1.965529 0.000000 
-1.708694 -0.532106 0.000000 
-1.726386 -0.491842 0.000000 
-1.761257 -0.467822 0.000000 
-1.812853 -0.459973 0.000000 
-0.690422 -0.712308 0.000000 
-0.624256 -0.730236 0.000000 
-0.561079 -0.738418 0.000000 
-0.500739 -0.739873 0.000000 
-0.445387 -0.739936 0.000000 
0.532260 -0.486027 0.000000 
0.536647 -0.416693 0.000000 
-1.881389 -0.447472 0.000000 
-0.389303 -0.737661 0.000000 
-0.340338 -0.722376 0.000000 
-0.344339 -0.668241 0.000000 
-0.358558 -0.615701 0.000000 
-0.381750 -0.574790 0.000000 
-0.406193 -0.540615 0.000000 
-0.417316 -0.509117 0.000000 
-0.428320 -0.474860 0.000000 
-0.436973 -0.430596 0.000000 
-0.444212 -0.375053 0.000000 
-0.452662 -0.316195 0.000000 
-0.468602 -0.259296 0.000000 
0.553166 -0.351978 0.000000 
0.573193 -0.294307 0.000000 
0.574450 -0.242567 0.000000 
0.561087 -0.192247 0.000000 
0.550432 -0.136924 0.000000 
0.748903 1.912211 0.000000 
0.730940 1.855718 0.000000 
0.715868 1.809559 0.000000 
0.699446 1.773431 0.000000 
0.684888 1.732442 0.000000 
0.675900 1.686237 0.000000 
0.669871 1.636678 0.000000 
0.664455 1.588820 0.000000 
0.668163 1.542401 0.000000 
0.672091 1.492568 0.000000 
0.674558 1.444544 0.000000 
0.673045 1.394465 0.000000 
0.386491 1.873650 0.000000 
0.664855 1.335726 0.000000 
0.652298 1.277648 0.000000 
0.638456 1.223998 0.000000 
0.623121 1.174488 0.000000 
0.616008 1.131461 0.000000 
0.600787 1.096519 0.000000 
0.571289 1.067070 0.000000 
0.539016 1.035909 0.000000 
0.513857 1.007010 0.000000 
0.493343 0.980774 0.000000 
0.469109 0.962962 0.000000 
0.444920 0.946518 0.000000 
0.415324 0.925552 0.000000 
0.383540 0.900799 0.000000 
0.356179 0.871467 0.000000 
0.343879 0.832567 0.000000 
0.337476 0.787047 0.000000 
0.332404 0.741761 0.000000 
0.328512 0.702071 0.000000 
0.319594 0.665991 0.000000 
0.304149 0.632580 0.000000 
0.290502 0.592189 0.000000 
0.275896 0.544327 0.000000 
0.261905 0.502358 0.000000 
0.250150 0.468763 0.000000 
0.250896 0.430958 0.000000 
0.259587 0.388354 0.000000 
0.284617 0.345581 0.000000 
0.315237 0.315920 0.000000 
0.340022 0.296483 0.000000 
0.354380 0.270635 0.000000 
0.368685 0.243492 0.000000 
0.385568 0.217096 0.000000 
0.415372 0.192299 0.000000 
0.447119 0.160586 0.000000 
0.477633 0.132670 0.000000 
0.503078 0.104733 0.000000 
0.518876 0.066679 0.000000 
0.527127 0.030710 0.000000 
0.534187 -0.013835 0.000000 
0.543185 -0.074615 0.000000 
0.322519 1.862594 0.000000 
0.263849 1.849478 0.000000 
0.208223 1.844058 0.000000 
0.150441 1.840229 0.000000 
-0.687392 -0.639241 0.000000 
-3.327058 1.887832 0.000000 
-3.276080 1.841410 0.000000 
-3.224941 1.807824 0.000000 
-3.181728 1.778665 0.000000 
-3.135074 1.741735 0.000000 
-3.078123 1.717442 0.000000 
-1.944260 -0.402594 0.000000 
0.083204 1.845385 0.000000 
0.005786 1.840032 0.000000 
-0.071812 1.849271 0.000000 
-0.135705 1.878812 0.000000 
-0.182391 1.920418 0.000000 
-1.999041 -0.331626 0.000000 
-1.843230 -0.606134 0.000000 
-0.491126 -0.195336 0.000000 
-0.512312 -0.122093 0.000000 
-0.526535 -0.059260 0.000000 
-0.527935 0.002861 0.000000 
-0.524207 0.070031 0.000000 
-0.505864 0.127163 0.000000 
-0.468875 0.176375 0.000000 
-0.410369 0.205620 0.000000 
-0.354013 0.226737 0.000000 
-0.301050 0.236683 0.000000 
-0.255730 0.237455 0.000000 
-0.695595 -0.560946 0.000000 
-0.726457 -0.484064 0.000000 
-0.747352 -0.414609 0.000000 
-3.396487 1.830697 0.000000 
-3.344056 1.751309 0.000000 
-3.294256 1.707908 0.000000 
-3.248246 1.669584 0.000000 
-3.196818 1.630230 0.000000 
-3.159669 1.578920 0.000000 
-3.113281 1.532215 0.000000 
-3.056061 1.512652 0.000000 
-2.996684 1.490027 0.000000 
-2.933161 1.460411 0.000000 
-2.879064 1.424268 0.000000 
-2.813006 1.399483 0.000000 
-2.751664 1.376432 0.000000 
-2.686782 1.347109 0.000000 
-1.922020 -0.603328 0.000000 
-1.999705 -0.604826 0.000000 
-2.060018 -0.583223 0.000000 
-2.032615 -0.248235 0.000000 
-2.048550 -0.162513 0.000000 
-2.029059 -0.096620 0.000000 
-2.105228 -0.526164 0.000000 
-2.154373 -0.458570 0.000000 
-2.203584 -0.403946 0.000000 
-2.237020 -0.342511 0.000000 
-2.250593 -0.277218 0.000000 
-2.270119 -0.205434 0.000000 
-2.297898 -0.135123 0.000000 
-2.327118 -0.073544 0.000000 
-2.346747 -0.019574 0.000000 
-2.362840 0.033536 0.000000 
-2.374561 0.084580 0.000000 
-2.373128 0.136556 0.000000 
-2.334174 0.203146 0.000000 
-2.331842 0.243764 0.000000 
-2.284565 0.252523 0.000000 
-0.236368 1.969953 0.000000 
-0.299146 2.013780 0.000000 
-0.346614 2.033705 0.000000 
-0.382877 1.997202 0.000000 
-0.412447 1.968153 0.000000 
-0.433989 1.927865 0.000000 
-0.446472 1.884899 0.000000 
-0.451628 1.845580 0.000000 
-0.451047 1.807118 0.000000 
-0.449242 1.771114 0.000000 
-0.453345 1.739225 0.000000 
-0.460251 1.711532 0.000000 
-0.470304 1.682746 0.000000 
-0.475290 1.653256 0.000000 
-0.478341 1.623471 0.000000 
-0.479442 1.586735 0.000000 
-2.609147 1.333320 0.000000 
-2.517189 1.327822 0.000000 
-2.434013 1.328158 0.000000 
-2.352624 1.318127 0.000000 
-2.274410 1.298756 0.000000 
-2.204499 1.264107 0.000000 
-2.180326 1.195225 0.000000 
-2.178559 1.106688 0.000000 
-2.168273 1.016659 0.000000 
-2.159086 0.918595 0.000000 
-2.144575 0.829437 0.000000 
-2.163040 0.754220 0.000000 
-2.183612 0.680128 0.000000 
-2.172907 0.615570 0.000000 
-2.161614 0.552815 0.000000 
-2.169833 0.492703 0.000000 
-2.188987 0.430950 0.000000 
-2.218663 0.379704 0.000000 
-2.229021 0.323831 0.000000 
-2.997130 1.700645 0.000000 
-3.021908 1.602508 0.000000 
-2.902046 1.669138 0.000000 
-0.770600 -0.332015 0.000000 
-0.790096 -0.240356 0.000000 
-0.811857 -0.159649 0.000000 
-0.835807 -0.081085 0.000000 
-0.859157 -0.010957 0.000000 
-0.881226 0.049095 0.000000 
-0.903169 0.108445 0.000000 
-0.928196 0.172489 0.000000 
-2.785442 1.636585 0.000000 
-2.944278 1.575843 0.000000 
-2.855014 1.538697 0.000000 
-2.796189 1.478617 0.000000 
-2.651235 1.621839 0.000000 
-2.517962 1.611492 0.000000 
-2.394240 1.602329 0.000000 
-2.275192 1.594332 0.000000 
-2.180847 1.569771 0.000000 
-2.099904 1.543292 0.000000 
-2.018420 1.512052 0.000000 
-1.945469 1.516350 0.000000 
-1.885190 1.549690 0.000000 
-1.829736 1.570258 0.000000 
-1.760875 1.595490 0.000000 
-1.680504 1.623914 0.000000 
-1.617798 1.642231 0.000000 
-1.570169 1.656755 0.000000 
-1.527149 1.670945 0.000000 
-1.482581 1.683074 0.000000 
-1.433927 1.689614 0.000000 
-1.386311 1.697529 0.000000 
-1.337319 1.706259 0.000000 
-1.286363 1.713339 0.000000 
-1.235962 1.714057 0.000000 
-1.188452 1.718870 0.000000 
-1.140860 1.728321 0.000000 
-1.091558 1.727630 0.000000 
-1.038962 1.716611 0.000000 
-0.982519 1.697613 0.000000 
-0.922315 1.680871 0.000000 
-0.869867 1.670546 0.000000 
-0.827747 1.664057 0.000000 
-0.785371 1.659145 0.000000 
-0.748025 1.649408 0.000000 
-0.712781 1.639141 0.000000 
-0.681690 1.625209 0.000000 
-0.657198 1.614075 0.000000 
-0.633895 1.607411 0.000000 
-0.612002 1.602956 0.000000 
-0.594184 1.595743 0.000000 
-0.577381 1.586293 0.000000 
-0.560109 1.571010 0.000000 
-0.540091 1.538555 0.000000 
-1.243914 -0.100290 0.000000 
-1.232782 -0.086573 0.000000 
-1.257376 -0.114644 0.000000 
-1.224378 -0.067874 0.000000 
-1.271472 -0.133990 0.000000 
-1.215702 -0.045877 0.000000 
-1.204660 -0.019820 0.000000 
-1.290143 -0.161731 0.000000 
-1.314447 -0.206771 0.000000 
-1.190204 0.010486 0.000000 
-1.318041 -0.260126 0.000000 
-1.171655 0.044642 0.000000 
-1.149359 0.080957 0.000000 
-1.123094 0.119205 0.000000 
-1.284246 -0.310105 0.000000 
-1.239750 -0.360831 0.000000 
-1.083297 0.163196 0.000000 
-1.028190 0.194868 0.000000 
-1.181630 -0.403188 0.000000 
-1.112789 -0.434615 0.000000 
-1.040643 -0.446786 0.000000 
-0.978118 -0.449872 0.000000 
-0.927392 -0.462898 0.000000 
-0.889718 -0.502032 0.000000 
-0.873564 -0.558583 0.000000 
-0.920771 -0.590777 0.000000 
-0.935346 -0.523508 0.000000 
-0.991249 -0.600352 0.000000 
-1.088918 -0.597624 0.000000 
-1.067426 -0.517972 0.000000 
-1.189474 -0.590061 0.000000 
-1.147229 -0.505305 0.000000 
-1.266509 -0.566771 0.000000 
-1.219913 -0.479128 0.000000 
-1.335307 -0.530944 0.000000 
-1.284456 -0.441129 0.000000 
-1.402357 -0.487040 0.000000 
-1.341444 -0.393328 0.000000 
-1.466758 -0.434365 0.000000 
-1.539152 -0.373566 0.000000 
-1.393011 -0.335397 0.000000 
-1.612839 -0.303294 0.000000 
-1.665320 -0.245716 0.000000 
-1.691220 -0.180890 0.000000 
-1.704696 -0.095396 0.000000 
-1.850073 0.071473 0.000000 
-1.911042 0.015648 0.000000 
-1.969645 -0.041188 0.000000 
-1.726970 0.011015 0.000000 
-0.222881 0.218845 0.000000 
-0.195707 0.191261 0.000000 
-0.164205 0.154314 0.000000 
-0.127520 0.121616 0.000000 
-0.095686 0.092125 0.000000 
-0.059027 0.063647 0.000000 
-0.018954 0.033663 0.000000 
0.030296 0.002392 0.000000 
0.086536 -0.018133 0.000000 
0.141893 -0.036865 0.000000 
0.202102 -0.066145 0.000000 
0.263408 -0.106061 0.000000 
0.311661 -0.156048 0.000000 
0.333954 -0.215671 0.000000 
0.338621 -0.276121 0.000000 
0.341530 -0.330060 0.000000 
0.353165 -0.380248 0.000000 
0.365710 -0.438671 0.000000 
[...]
POINT_DATA 899 
VECTORS X_GC float 
-3.648847 2.158864 0.000000 
-3.619410 2.118312 0.000000 
-3.578536 2.082718 0.000000 
-3.540028 2.047067 0.000000 
-3.511690 2.014871 0.000000 
-3.481362 1.985013 0.000000 
-3.451569 1.944340 0.000000 
0.772356 2.061378 0.000000 
0.774615 2.035257 0.000000 
0.769962 2.006503 0.000000 
-3.399514 1.914064 0.000000 
0.413960 -0.730778 0.000000 
0.455573 -0.726476 0.000000 
-1.762619 -0.630674 0.000000 
-1.783389 -0.595278 0.000000 
-1.714437 -0.566488 0.000000 
0.732567 2.055703 0.000000 
0.698438 2.041867 0.000000 
0.491831 -0.712273 0.000000 
0.519501 -0.681868 0.000000 
0.530556 -0.641421 0.000000 
0.532354 -0.595617 0.000000 
0.531774 -0.545110 0.000000 
-3.460923 1.852331 0.000000 
0.663989 2.019920 0.000000 
0.631675 1.992526 0.000000 
0.601833 1.968470 0.000000 
0.569607 1.945213 0.000000 
0.534059 1.923135 0.000000 
0.492599 1.901995 0.000000 
0.444403 1.883330 0.000000 
0.762807 1.965529 0.000000 
-1.708694 -0.532106 0.000000 
-1.726386 -0.491842 0.000000 
-1.761257 -0.467822 0.000000 
-1.812853 -0.459973 0.000000 
-0.690422 -0.712308 0.000000 
-0.624256 -0.730236 0.000000 
-0.561079 -0.738418 0.000000 
-0.500739 -0.739873 0.000000 
-0.445387 -0.739936 0.000000 
0.532260 -0.486027 0.000000 
0.536647 -0.416693 0.000000 
-1.881389 -0.447472 0.000000 
-0.389303 -0.737661 0.000000 
-0.340338 -0.722376 0.000000 
-0.344339 -0.668241 0.000000 
-0.358558 -0.615701 0.000000 
-0.381750 -0.574790 0.000000 
-0.406193 -0.540615 0.000000 
-0.417316 -0.509117 0.000000 
-0.428320 -0.474860 0.000000 
-0.436973 -0.430596 0.000000 
-0.444212 -0.375053 0.000000 
-0.452662 -0.316195 0.000000 
-0.468602 -0.259296 0.000000 
0.553166 -0.351978 0.000000 
0.573193 -0.294307 0.000000 
0.574450 -0.242567 0.000000 
0.561087 -0.192247 0.000000 
0.550432 -0.136924 0.000000 
0.748903 1.912211 0.000000 
0.730940 1.855718 0.000000 
0.715868 1.809559 0.000000 
0.699446 1.773431 0.000000 
0.684888 1.732442 0.000000 
0.675900 1.686237 0.000000 
0.669871 1.636678 0.000000 
0.664455 1.588820 0.000000 
0.668163 1.542401 0.000000 
0.672091 1.492568 0.000000 
0.674558 1.444544 0.000000 
0.673045 1.394465 0.000000 
0.386491 1.873650 0.000000 
0.664855 1.335726 0.000000 
0.652298 1.277648 0.000000 
0.638456 1.223998 0.000000 
0.623121 1.174488 0.000000 
0.616008 1.131461 0.000000 
0.600787 1.096519 0.000000 
0.571289 1.067070 0.000000 
0.539016 1.035909 0.000000 
0.513857 1.007010 0.000000 
0.493343 0.980774 0.000000 
0.469109 0.962962 0.000000 
0.444920 0.946518 0.000000 
0.415324 0.925552 0.000000 
0.383540 0.900799 0.000000 
0.356179 0.871467 0.000000 
0.343879 0.832567 0.000000 
0.337476 0.787047 0.000000 
0.332404 0.741761 0.000000 
0.328512 0.702071 0.000000 
0.319594 0.665991 0.000000 
0.304149 0.632580 0.000000 
0.290502 0.592189 0.000000 
0.275896 0.544327 0.000000 
0.261905 0.502358 0.000000 
0.250150 0.468763 0.000000 
0.250896 0.430958 0.000000 
0.259587 0.388354 0.000000 
0.284617 0.345581 0.000000 
0.315237 0.315920 0.000000 
0.340022 0.296483 0.000000 
0.354380 0.270635 0.000000 
0.368685 0.243492 0.000000 
0.385568 0.217096 0.000000 
0.415372 0.192299 0.000000 
0.447119 0.160586 0.000000 
0.477633 0.132670 0.000000 
0.503078 0.104733 0.000000 
0.518876 0.066679 0.000000 
0.527127 0.030710 0.000000 
0.534187 -0.013835 0.000000 
0.543185 -0.074615 0.000000 
0.322519 1.862594 0.000000 
0.263849 1.849478 0.000000 
0.208223 1.844058 0.000000 
0.150441 1.840229 0.000000 
-0.687392 -0.639241 0.000000 
-3.327058 1.887832 0.000000 
-3.276080 1.841410 0.000000 
-3.224941 1.807824 0.000000 
-3.181728 1.778665 0.000000 
-3.135074 1.741735 0.000000 
-3.078123 1.717442 0.000000 
-1.944260 -0.402594 0.000000 
0.083204 1.845385 0.000000 
0.005786 1.840032 0.000000 
-0.071812 1.849271 0.000000 
-0.135705 1.878812 0.000000 
-0.182391 1.920418 0.000000 
-1.999041 -0.331626 0.000000 
-1.843230 -0.606134 0.000000 
-0.491126 -0.195336 0.000000 
-0.512312 -0.122093 0.000000 
-0.526535 -0.059260 0.000000 
-0.527935 0.002861 0.000000 
-0.524207 0.070031 0.000000 
-0.505864 0.127163 0.000000 
-0.468875 0.176375 0.000000 
-0.410369 0.205620 0.000000 
-0.354013 0.226737 0.000000 
-0.301050 0.236683 0.000000 
-0.255730 0.237455 0.000000 
-0.695595 -0.560946 0.000000 
-0.726457 -0.484064 0.000000 
-0.747352 -0.414609 0.000000 
-3.396487 1.830697 0.000000 
-3.344056 1.751309 0.000000 
-3.294256 1.707908 0.000000 
-3.248246 1.669584 0.000000 
-3.196818 1.630230 0.000000 
-3.159669 1.578920 0.000000 
-3.113281 1.532215 0.000000 
-3.056061 1.512652 0.000000 
-2.996684 1.490027 0.000000 
-2.933161 1.460411 0.000000 
-2.879064 1.424268 0.000000 
-2.813006 1.399483 0.000000 
-2.751664 1.376432 0.000000 
-2.686782 1.347109 0.000000 
-1.922020 -0.603328 0.000000 
-1.999705 -0.604826 0.000000 
-2.060018 -0.583223 0.000000 
-2.032615 -0.248235 0.000000 
-2.048550 -0.162513 0.000000 
-2.029059 -0.096620 0.000000 
-2.105228 -0.526164 0.000000 
-2.154373 -0.458570 0.000000 
-2.203584 -0.403946 0.000000 
-2.237020 -0.342511 0.000000 
-2.250593 -0.277218 0.000000 
-2.270119 -0.205434 0.000000 
-2.297898 -0.135123 0.000000 
-2.327118 -0.073544 0.000000 
-2.346747 -0.019574 0.000000 
-2.362840 0.033536 0.000000 
-2.374561 0.084580 0.000000 
-2.373128 0.136556 0.000000 
-2.334174 0.203146 0.000000 
-2.331842 0.243764 0.000000 
-2.284565 0.252523 0.000000 
-0.236368 1.969953 0.000000 
-0.299146 2.013780 0.000000 
-0.346614 2.033705 0.000000 
-0.382877 1.997202 0.000000 
-0.412447 1.968153 0.000000 
-0.433989 1.927865 0.000000 
-0.446472 1.884899 0.000000 
-0.451628 1.845580 0.000000 
-0.451047 1.807118 0.000000 
-0.449242 1.771114 0.000000 
-0.453345 1.739225 0.000000 
-0.460251 1.711532 0.000000 
-0.470304 1.682746 0.000000 
-0.475290 1.653256 0.000000 
-0.478341 1.623471 0.000000 
-0.479442 1.586735 0.000000 
-2.609147 1.333320 0.000000 
-2.517189 1.327822 0.000000 
-2.434013 1.328158 0.000000 
-2.352624 1.318127 0.000000 
-2.274410 1.298756 0.000000 
-2.204499 1.264107 0.000000 
-2.180326 1.195225 0.000000 
-2.178559 1.106688 0.000000 
-2.168273 1.016659 0.000000 
-2.159086 0.918595 0.000000 
-2.144575 0.829437 0.000000 
-2.163040 0.754220 0.000000 
-2.183612 0.680128 0.000000 
-2.172907 0.615570 0.000000 
-2.161614 0.552815 0.000000 
-2.169833 0.492703 0.000000 
-2.188987 0.430950 0.000000 
-2.218663 0.379704 0.000000 
-2.229021 0.323831 0.000000 
-2.997130 1.700645 0.000000 
-3.021908 1.602508 0.000000 
-2.902046 1.669138 0.000000 
-0.770600 -0.332015 0.000000 
-0.790096 -0.240356 0.000000 
-0.811857 -0.159649 0.000000 
-0.835807 -0.081085 0.000000 
-0.859157 -0.010957 0.000000 
-0.881226 0.049095 0.000000 
-0.903169 0.108445 0.000000 
-0.928196 0.172489 0.000000 
-2.785442 1.636585 0.000000 
-2.944278 1.575843 0.000000 
-2.855014 1.538697 0.000000 
-2.796189 1.478617 0.000000 
-2.651235 1.621839 0.000000 
-2.517962 1.611492 0.000000 
-2.394240 1.602329 0.000000 
-2.275192 1.594332 0.000000 
-2.180847 1.569771 0.000000 
-2.099904 1.543292 0.000000 
-2.018420 1.512052 0.000000 
-1.945469 1.516350 0.000000 
-1.885190 1.549690 0.000000 
-1.829736 1.570258 0.000000 
-1.760875 1.595490 0.000000 
-1.680504 1.623914 0.000000 
-1.617798 1.642231 0.000000 
-1.570169 1.656755 0.000000 
-1.527149 1.670945 0.000000 
-1.482581 1.683074 0.000000 
-1.433927 1.689614 0.000000 
-1.386311 1.697529 0.000000 
-1.337319 1.706259 0.000000 
-1.286363 1.713339 0.000000 
-1.235962 1.714057 0.000000 
-1.188452 1.718870 0.000000 
-1.140860 1.728321 0.000000 
-1.091558 1.727630 0.000000 
-1.038962 1.716611 0.000000 
-0.982519 1.697613 0.000000 
-0.922315 1.680871 0.000000 
-0.869867 1.670546 0.000000 
-0.827747 1.664057 0.000000 
-0.785371 1.659145 0.000000 
-0.748025 1.649408 0.000000 
-0.712781 1.639141 0.000000 
-0.681690 1.625209 0.000000 
-0.657198 1.614075 0.000000 
-0.633895 1.607411 0.000000 
-0.612002 1.602956 0.000000 
-0.594184 1.595743 0.000000 
-0.577381 1.586293 0.000000 
-0.560109 1.571010 0.000000 
-0.540091 1.538555 0.000000 
-1.243914 -0.100290 0.000000 
-1.232782 -0.086573 0.000000 
-1.257376 -0.114644 0.000000 
-1.224378 -0.067874 0.000000 
-1.271472 -0.133990 0.000000 
-1.215702 -0.045877 0.000000 
-1.204660 -0.019820 0.000000 
-1.290143 -0.161731 0.000000 
-1.314447 -0.206771 0.000000 
-1.190204 0.010486 0.000000 
-1.318041 -0.260126 0.000000 
-1.171655 0.044642 0.000000 
-1.149359 0.080957 0.000000 
-1.123094 0.119205 0.000000 
-1.284246 -0.310105 0.000000 
-1.239750 -0.360831 0.000000 
-1.083297 0.163196 0.000000 
-1.028190 0.194868 0.000000 
-1.181630 -0.403188 0.000000 
-1.112789 -0.434615 0.000000 
-1.040643 -0.446786 0.000000 
-0.978118 -0.449872 0.000000 
-0.927392 -0.462898 0.000000 
-0.889718 -0.502032 0.000000 
-0.873564 -0.558583 0.000000 
-0.920771 -0.590777 0.000000 
-0.935346 -0.523508 0.000000 
-0.991249 -0.600352 0.000000 
-1.088918 -0.597624 0.000000 
-1.067426 -0.517972 0.000000 
-1.189474 -0.590061 0.000000 
-1.147229 -0.505305 0.000000 
-1.266509 -0.566771 0.000000 
-1.219913 -0.479128 0.000000 
-1.335307 -0.530944 0.000000 
-1.284456 -0.441129 0.000000 
-1.402357 -0.487040 0.000000 
-1.341444 -0.393328 0.000000 
-1.466758 -0.434365 0.000000 
-1.539152 -0.373566 0.000000 
-1.393011 -0.335397 0.000000 
-1.612839 -0.303294 0.000000 
-1.665320 -0.245716 0.000000 
-1.691220 -0.180890 0.000000 
-1.704696 -0.095396 0.000000 
-1.850073 0.071473 0.000000 
-1.911042 0.015648 0.000000 
-1.969645 -0.041188 0.000000 
-1.726970 0.011015 0.000000 
-0.222881 0.218845 0.000000 
-0.195707 0.191261 0.000000 
-0.164205 0.154314 0.000000 
-0.127520 0.121616 0.000000 
-0.095686 0.092125 0.000000 
-0.059027 0.063647 0.000000 
-0.018954 0.033663 0.000000 
0.030296 0.002392 0.000000 
0.086536 -0.018133 0.000000 
0.141893 -0.036865 0.000000 
0.202102 -0.066145 0.000000 
0.263408 -0.106061 0.000000 
0.311661 -0.156048 0.000000 
0.333954 -0.215671 0.000000 
0.338621 -0.276121 0.000000 
0.341530 -0.330060 0.000000 
0.353165 -0.380248 0.000000 
0.365710 -0.438671 0.000000 
0.363543 -0.508200 0.000000 
0.357353 -0.570314 0.000000 
0.351188 -0.621057 0.000000 
0.363842 -0.668085 0.000000 
-1.737069 -0.534736 0.000000 
-0.199590 0.271462 0.000000 
-0.156305 0.241546 0.000000 
-0.462327 1.507502 0.000000 
0.741313 2.030076 0.000000 
0.482415 -0.678856 0.000000 
0.446104 -0.686752 0.000000 
0.403556 -0.692406 0.000000 
-0.104001 0.213481 0.000000 
-0.514998 1.439556 0.000000 
-0.059937 0.179076 0.000000 
0.738519 2.004811 0.000000 
0.714572 2.017111 0.000000 
-0.249752 0.298285 0.000000 
-0.036232 0.135278 0.000000 
0.000772 0.107446 0.000000 
0.035161 0.081801 0.000000 
-1.776537 -0.534177 0.000000 
-1.836238 -0.529993 0.000000 
-0.309416 0.312385 0.000000 
-0.378944 0.310121 0.000000 
-2.292732 0.189709 0.000000 
-2.315166 0.139718 0.000000 
-2.314418 0.092162 0.000000 
-2.293418 0.045775 0.000000 
-2.279687 -0.004104 0.000000 
-2.253462 -0.051369 0.000000 
0.075120 0.054058 0.000000 
0.131113 0.041450 0.000000 
-0.977004 0.243434 0.000000 
-0.860050 0.233268 0.000000 
-1.912142 -0.521936 0.000000 
-1.989966 -0.530717 0.000000 
-2.023752 -0.463175 0.000000 
-2.082175 -0.391914 0.000000 
0.723889 1.973298 0.000000 
0.691466 1.992141 0.000000 
0.665980 1.959494 0.000000 
0.704783 1.932226 0.000000 
0.637970 1.921436 0.000000 
0.681732 1.885018 0.000000 
0.670916 1.838842 0.000000 
0.602858 1.889768 0.000000 
0.659584 1.798418 0.000000 
0.560783 1.863397 0.000000 
0.636111 1.762344 0.000000 
0.607495 1.712553 0.000000 
0.595324 1.649073 0.000000 
0.604052 1.584399 0.000000 
0.514160 1.833994 0.000000 
0.453857 1.806549 0.000000 
0.392525 1.804570 0.000000 
0.334098 1.803042 0.000000 
0.278675 1.784288 0.000000 
0.217273 1.766213 0.000000 
0.149449 1.748857 0.000000 
0.614128 1.532124 0.000000 
0.621313 1.484544 0.000000 
0.624262 1.439665 0.000000 
-2.197766 -0.104558 0.000000 
-2.158682 -0.179482 0.000000 
-2.124695 -0.045228 0.000000 
-2.150589 -0.345608 0.000000 
-2.141926 -0.268062 0.000000 
-0.393439 -0.684622 0.000000 
-0.412631 -0.640579 0.000000 
-0.436983 -0.599975 0.000000 
-0.445953 -0.556556 0.000000 
-0.458251 -0.523730 0.000000 
-0.479726 -0.488964 0.000000 
-0.496934 -0.440233 0.000000 
-0.509002 -0.385149 0.000000 
-0.517157 -0.330819 0.000000 
-0.545309 -0.279543 0.000000 
-0.442273 -0.682017 0.000000 
-0.496002 -0.672499 0.000000 
-0.557668 -0.674606 0.000000 
-0.618975 -0.659126 0.000000 
-0.334659 1.971892 0.000000 
-0.367985 1.942175 0.000000 
-0.385153 1.905749 0.000000 
-0.396797 1.871882 0.000000 
-0.406285 1.836360 0.000000 
-0.402558 1.797227 0.000000 
-0.406645 1.758783 0.000000 
-0.418378 1.726369 0.000000 
-0.428059 1.697244 0.000000 
-0.435849 1.667696 0.000000 
-0.442335 1.637661 0.000000 
-0.445406 1.604596 0.000000 
-0.444483 1.558880 0.000000 
0.619822 1.393933 0.000000 
-1.077870 0.290498 0.000000 
-1.149036 0.248539 0.000000 
-1.174735 0.173696 0.000000 
-1.192231 0.121973 0.000000 
-1.210811 0.080196 0.000000 
-1.228352 0.040857 0.000000 
-1.238869 0.002877 0.000000 
-1.244643 -0.028620 0.000000 
-1.248534 -0.053522 0.000000 
-1.252336 -0.072809 0.000000 
-1.262323 -0.086061 0.000000 
-1.280319 -0.096977 0.000000 
-0.451814 0.287461 0.000000 
-0.526928 0.243939 0.000000 
0.194935 0.024458 0.000000 
0.069048 1.734758 0.000000 
-0.574175 0.173255 0.000000 
-0.593607 0.092152 0.000000 
-1.764101 0.131837 0.000000 
-2.210991 0.250693 0.000000 
-0.825996 0.147991 0.000000 
-0.799223 0.076911 0.000000 
-0.760911 0.010478 0.000000 
0.605964 1.342981 0.000000 
0.587834 1.285621 0.000000 
0.576354 1.225772 0.000000 
0.574971 1.170764 0.000000 
0.580375 1.127739 0.000000 
0.545179 1.105355 0.000000 
0.509957 1.073093 0.000000 
0.484198 1.036690 0.000000 
0.468721 1.005536 0.000000 
0.449386 0.987005 0.000000 
0.422962 0.974340 0.000000 
0.391379 0.955189 0.000000 
0.357154 0.931125 0.000000 
0.323730 0.902753 0.000000 
-0.582151 -0.218676 0.000000 
0.265957 -0.001972 0.000000 
0.333763 -0.048101 0.000000 
0.378371 -0.115117 0.000000 
0.400918 -0.189512 0.000000 
0.401084 -0.252501 0.000000 
0.404345 -0.306601 0.000000 
0.432648 -0.357683 0.000000 
0.450030 -0.422125 0.000000 
0.529803 -0.268971 0.000000 
0.491947 -0.317109 0.000000 
0.453243 -0.267225 0.000000 
0.449550 -0.496449 0.000000 
0.498420 -0.223098 0.000000 
0.474171 -0.163156 0.000000 
0.457863 -0.088583 0.000000 
0.462195 -0.555103 0.000000 
0.478704 -0.601439 0.000000 
0.483460 -0.642405 0.000000 
0.412910 -0.580744 0.000000 
0.398390 -0.619458 0.000000 
0.404290 -0.653745 0.000000 
0.442452 -0.649187 0.000000 
0.436659 -0.614022 0.000000 
-0.727378 -0.063656 0.000000 
-0.616071 0.018363 0.000000 
-0.623548 -0.055918 0.000000 
-0.605779 -0.136926 0.000000 
-0.706340 -0.149374 0.000000 
-0.681483 -0.235636 0.000000 
-0.032304 1.729197 0.000000 
-0.128010 1.765346 0.000000 
-0.195732 1.832470 0.000000 
-0.243911 1.886384 0.000000 
-0.287859 1.933788 0.000000 
-0.335518 1.906092 0.000000 
-0.667608 -0.321016 0.000000 
-0.584906 -0.327784 0.000000 
-0.658169 -0.401025 0.000000 
-0.578442 -0.393155 0.000000 
-0.639050 -0.472468 0.000000 
-0.607982 -0.547985 0.000000 
-0.562541 -0.455854 0.000000 
-0.536184 -0.516877 0.000000 
-0.495978 -0.554839 0.000000 
-0.500680 -0.607233 0.000000 
-0.573051 -0.611687 0.000000 
-2.690892 1.502491 0.000000 
-2.684799 1.416479 0.000000 
-2.602920 1.415217 0.000000 
-2.574381 1.500210 0.000000 
-2.518122 1.435084 0.000000 
-2.424460 1.458982 0.000000 
-2.320006 1.450051 0.000000 
-2.229986 1.426433 0.000000 
-2.146342 1.385193 0.000000 
-1.455055 -0.276416 0.000000 
-1.387692 -0.196092 0.000000 
-1.339496 -0.142764 0.000000 
-1.304977 -0.114204 0.000000 
-1.531301 -0.210923 0.000000 
-1.604385 -0.166810 0.000000 
-1.592423 -0.066130 0.000000 
-1.608296 0.057833 0.000000 
-1.827918 0.256279 0.000000 
0.477873 0.025082 0.000000 
0.477147 0.059980 0.000000 
0.465631 0.094221 0.000000 
-0.587742 1.538430 0.000000 
-0.593403 1.562533 0.000000 
-0.604579 1.575189 0.000000 
-0.619289 1.580875 0.000000 
-0.639577 1.578702 0.000000 
-0.665912 1.580318 0.000000 
-0.697937 1.587305 0.000000 
-0.595692 1.484941 0.000000 
-0.726123 1.602116 0.000000 
-0.757398 1.612687 0.000000 
-0.794522 1.610112 0.000000 
-0.841416 1.607534 0.000000 
-0.894922 1.608895 0.000000 
-0.956071 1.617310 0.000000 
-1.020951 1.636232 0.000000 
-1.077937 1.663867 0.000000 
-1.120258 1.692595 0.000000 
-1.171769 1.668334 0.000000 
0.332207 0.221725 0.000000 
0.333662 0.179990 0.000000 
0.321472 0.250342 0.000000 
0.302407 0.277155 0.000000 
0.214022 0.291817 0.000000 
0.194081 0.352841 0.000000 
0.186716 0.408354 0.000000 
0.189303 0.461126 0.000000 
0.360023 0.140309 0.000000 
0.405131 0.115175 0.000000 
0.201671 0.510372 0.000000 
0.218038 0.560633 0.000000 
0.236652 0.609567 0.000000 
0.256885 0.651501 0.000000 
0.278373 0.679995 0.000000 
0.284019 0.713393 0.000000 
0.276718 0.760140 0.000000 
0.278735 0.816953 0.000000 
0.296322 0.867221 0.000000 
-1.507867 1.620092 0.000000 
-1.548116 1.595450 0.000000 
-1.598023 1.568070 0.000000 
-1.467251 1.634866 0.000000 
-1.422160 1.642149 0.000000 
-1.373311 1.648866 0.000000 
-1.322903 1.656642 0.000000 
-1.275577 1.665888 0.000000 
-1.225048 1.664489 0.000000 
-1.662214 1.544401 0.000000 
-1.732600 1.524461 0.000000 
-1.794687 1.510086 0.000000 
-1.841773 1.480899 0.000000 
-2.078405 0.548171 0.000000 
-2.079214 0.626761 0.000000 
-2.097651 0.470571 0.000000 
-2.129318 0.398832 0.000000 
-2.096743 0.707323 0.000000 
-2.169699 0.343489 0.000000 
-1.991686 0.270489 0.000000 
-1.642187 0.196045 0.000000 
-1.989898 0.103264 0.000000 
-2.064526 0.031451 0.000000 
-1.914688 0.176798 0.000000 
-2.037969 0.959875 0.000000 
-2.021377 0.844190 0.000000 
-2.055796 1.089037 0.000000 
-2.102728 1.191690 0.000000 
-2.047875 1.333992 0.000000 
0.428030 0.080723 0.000000 
0.375625 0.059487 0.000000 
0.313454 0.072588 0.000000 
0.290352 0.218623 0.000000 
0.238487 0.929540 0.000000 
0.440631 0.042615 0.000000 
0.396678 0.002838 0.000000 
0.460488 -0.023082 0.000000 
0.523747 1.153030 0.000000 
-2.262588 0.116285 0.000000 
-2.220468 0.172312 0.000000 
-2.218579 0.062774 0.000000 
-2.146376 0.114624 0.000000 
-2.206503 -0.002297 0.000000 
0.473879 1.114418 0.000000 
0.446488 1.062087 0.000000 
0.440978 1.018068 0.000000 
0.409581 1.010213 0.000000 
0.629179 1.839108 0.000000 
0.593839 1.806635 0.000000 
0.550362 1.762431 0.000000 
0.483841 1.722008 0.000000 
0.202470 0.863176 0.000000 
0.241245 0.715400 0.000000 
0.205152 0.690600 0.000000 
0.175878 0.642459 0.000000 
0.153326 0.583953 0.000000 
0.132079 0.523503 0.000000 
0.113278 0.459047 0.000000 
0.106000 0.390724 0.000000 
0.109640 0.321527 0.000000 
0.121648 0.250849 0.000000 
0.032483 0.161235 0.000000 
0.246820 0.243914 0.000000 
0.099619 0.109600 0.000000 
0.373127 0.995330 0.000000 
-0.307911 1.858470 0.000000 
-0.360136 1.840001 0.000000 
-0.343252 1.785655 0.000000 
-0.270247 1.793800 0.000000 
0.168337 0.106119 0.000000 
0.242346 0.095781 0.000000 
0.270369 0.164818 0.000000 
0.505525 1.220791 0.000000 
-0.689828 0.048047 0.000000 
-0.729540 0.105451 0.000000 
-0.746154 0.179923 0.000000 
-0.657668 0.196487 0.000000 
-0.661195 0.112200 0.000000 
-0.924642 0.349163 0.000000 
-1.137284 1.612526 0.000000 
-1.072920 1.567932 0.000000 
-1.248127 1.624823 0.000000 
-1.304069 1.608501 0.000000 
-1.360197 1.600841 0.000000 
-1.411221 1.596701 0.000000 
-1.453165 1.593471 0.000000 
-1.486003 1.576009 0.000000 
-1.510814 1.532540 0.000000 
-1.558800 1.487871 0.000000 
-0.995058 1.541179 0.000000 
-0.919611 1.530703 0.000000 
-0.852227 1.537635 0.000000 
-0.796966 1.554154 0.000000 
-0.752732 1.573322 0.000000 
-1.635591 1.460538 0.000000 
-1.992480 0.735240 0.000000 
-1.965104 0.625460 0.000000 
-1.974377 0.522128 0.000000 
-2.014368 0.428506 0.000000 
-2.065453 0.345320 0.000000 
-2.071492 0.192253 0.000000 
-2.131272 0.275789 0.000000 
-1.712039 1.447215 0.000000 
-1.781280 1.447166 0.000000 
-1.884796 1.417109 0.000000 
0.516332 1.636772 0.000000 
0.538779 1.565643 0.000000 
0.517174 1.295177 0.000000 
0.552532 1.357113 0.000000 
0.576896 1.399040 0.000000 
0.583356 1.436066 0.000000 