# vtk DataFile Version 3.0 
vtk output 
ASCII 
DATASET UNSTRUCTURED_GRID 
POINTS 899 float 
-3.648847 2.273681 0.000000 
-3.619410 2.233129 0.000000 
-3.578536 2.197534 0.000000 
-3.540028 2.161883 0.000000 
-3.511690 2.129688 0.000000 
-3.481362 2.099829 0.000000 
-3.451569 2.059156 0.000000 
0.772356 2.176195 0.000000 
0.774615 2.150073 0.000000 
0.769962 2.121319 0.000000 
-3.399514 2.028880 0.000000 
0.413960 -0.615962 0.000000 
0.455573 -0.611659 0.000000 
-1.762619 -0.515858 0.000000 
-1.783389 -0.480461 0.000000 
-1.714437 -0.451672 0.000000 
0.732567 2.170519 0.000000 
0.698438 2.156683 0.000000 
0.491831 -0.597457 0.000000 
0.519501 -0.567052 0.000000 
0.530556 -0.526605 0.000000 
0.532354 -0.480801 0.000000 
0.531774 -0.430294 0.000000 
-3.460923 1.967147 0.000000 
0.663989 2.134737 0.000000 
0.631675 2.107342 0.000000 
0.601833 2.083286 0.000000 
0.569607 2.060029 0.000000 
0.534059 2.037951 0.000000 
0.492599 2.016812 0.000000 
0.444403 1.998147 0.000000 
0.762807 2.080345 0.000000 
-1.708694 -0.417290 0.000000 
-1.726386 -0.377026 0.000000 
-1.761257 -0.353005 0.000000 
-1.812853 -0.345157 0.000000 
-0.690422 -0.597492 0.000000 
-0.624256 -0.615420 0.000000 
-0.561079 -0.623602 0.000000 
-0.500739 -0.625057 0.000000 
-0.445387 -0.625119 0.000000 
0.532260 -0.371210 0.000000 
0.536647 -0.301877 0.000000 
-1.881389 -0.332656 0.000000 
-0.389303 -0.622845 0.000000 
-0.340338 -0.607560 0.000000 
-0.344339 -0.553425 0.000000 
-0.358558 -0.500885 0.000000 
-0.381750 -0.459974 0.000000 
-0.406193 -0.425799 0.000000 
-0.417316 -0.394301 0.000000 
-0.428320 -0.360044 0.000000 
-0.436973 -0.315780 0.000000 
-0.444212 -0.260237 0.000000 
-0.452662 -0.201379 0.000000 
-0.468602 -0.144480 0.000000 
0.553166 -0.237162 0.000000 
0.573193 -0.179491 0.000000 
0.574450 -0.127751 0.000000 
0.561087 -0.077431 0.000000 
0.550432 -0.022108 0.000000 
0.748903 2.027027 0.000000 
0.730940 1.970535 0.000000 
0.715868 1.924375 0.000000 
0.699446 1.888248 0.000000 
0.684888 1.847258 0.000000 
0.675900 1.801054 0.000000 
0.669871 1.751494 0.000000 
0.664455 1.703637 0.000000 
0.668163 1.657217 0.000000 
0.672091 1.607384 0.000000 
0.674558 1.559360 0.000000 
0.673045 1.509281 0.000000 
0.386491 1.988466 0.000000 
0.664855 1.450542 0.000000 
0.652298 1.392464 0.000000 
0.638456 1.338815 0.000000 
0.623121 1.289304 0.000000 
0.616008 1.246277 0.000000 
0.600787 1.211335 0.000000 
0.571289 1.181886 0.000000 
0.539016 1.150725 0.000000 
0.513857 1.121826 0.000000 
0.493343 1.095591 0.000000 
0.469109 1.077778 0.000000 
0.444920 1.061334 0.000000 
0.415324 1.040368 0.000000 
0.383540 1.015616 0.000000 
0.356179 0.986283 0.000000 
0.343879 0.947384 0.000000 
0.337476 0.901863 0.000000 
0.332404 0.856577 0.000000 
0.328512 0.816887 0.000000 
0.319594 0.780807 0.000000 
0.304149 0.747397 0.000000 
0.290502 0.707006 0.000000 
0.275896 0.659143 0.000000 
0.261905 0.617174 0.000000 
0.250150 0.583579 0.000000 
0.250896 0.545774 0.000000 
0.259587 0.503171 0.000000 
0.284617 0.460398 0.000000 
0.315237 0.430736 0.000000 
0.340022 0.411300 0.000000 
0.354380 0.385451 0.000000 
0.368685 0.358308 0.000000 
0.385568 0.331912 0.000000 
0.415372 0.307115 0.000000 
0.447119 0.275402 0.000000 
0.477633 0.247486 0.000000 
0.503078 0.219549 0.000000 
0.518876 0.181495 0.000000 
0.527127 0.145527 0.000000 
0.534187 0.100981 0.000000 
0.543185 0.040201 0.000000 
0.322519 1.977411 0.000000 
0.263849 1.964294 0.000000 
0.208223 1.958874 0.000000 
0.150441 1.955045 0.000000 
-0.687392 -0.524425 0.000000 
-3.327058 2.002648 0.000000 
-3.276080 1.956227 0.000000 
-3.224941 1.922640 0.000000 
-3.181728 1.893481 0.000000 
-3.135074 1.856552 0.000000 
-3.078123 1.832259 0.000000 
-1.944260 -0.287778 0.000000 
0.083204 1.960202 0.000000 
0.005786 1.954849 0.000000 
-0.071812 1.964087 0.000000 
-0.135705 1.993629 0.000000 
-0.182391 2.035234 0.000000 
-1.999041 -0.216809 0.000000 
-1.843230 -0.491318 0.000000 
-0.491126 -0.080520 0.000000 
-0.512312 -0.007277 0.000000 
-0.526535 0.055556 0.000000 
-0.527935 0.117678 0.000000 
-0.524207 0.184847 0.000000 
-0.505864 0.241979 0.000000 
-0.468875 0.291191 0.000000 
-0.410369 0.320436 0.000000 
-0.354013 0.341553 0.000000 
-0.301050 0.351499 0.000000 
-0.255730 0.352272 0.000000 
-0.695595 -0.446130 0.000000 
-0.726457 -0.369248 0.000000 
-0.747352 -0.299793 0.000000 
-3.396487 1.945513 0.000000 
-3.344056 1.866125 0.000000 
-3.294256 1.822724 0.000000 
-3.248246 1.784400 0.000000 
-3.196818 1.745046 0.000000 
-3.159669 1.693736 0.000000 
-3.113281 1.647031 0.000000 
-3.056061 1.627468 0.000000 
-2.996684 1.604843 0.000000 
-2.933161 1.575227 0.000000 
-2.879064 1.539084 0.000000 
-2.813006 1.514299 0.000000 
-2.751664 1.491249 0.000000 
-2.686782 1.461926 0.000000 
-1.922020 -0.488511 0.000000 
-1.999705 -0.490010 0.000000 
-2.060018 -0.468406 0.000000 
-2.032615 -0.133419 0.000000 
-2.048550 -0.047697 0.000000 
-2.029059 0.018196 0.000000 
-2.105228 -0.411348 0.000000 
-2.154373 -0.343753 0.000000 
-2.203584 -0.289130 0.000000 
-2.237020 -0.227694 0.000000 
-2.250593 -0.162402 0.000000 
-2.270119 -0.090618 0.000000 
-2.297898 -0.020307 0.000000 
-2.327118 0.041273 0.000000 
-2.346747 0.095243 0.000000 
-2.362840 0.148352 0.000000 
-2.374561 0.199397 0.000000 
-2.373128 0.251372 0.000000 
-2.334174 0.317962 0.000000 
-2.331842 0.358581 0.000000 
-2.284565 0.367339 0.000000 
-0.236368 2.084770 0.000000 
-0.299146 2.128596 0.000000 
-0.346614 2.148522 0.000000 
-0.382877 2.112018 0.000000 
-0.412447 2.082969 0.000000 
-0.433989 2.042681 0.000000 
-0.446472 1.999715 0.000000 
-0.451628 1.960396 0.000000 
-0.451047 1.921934 0.000000 
-0.449242 1.885931 0.000000 
-0.453345 1.854041 0.000000 
-0.460251 1.826348 0.000000 
-0.470304 1.797563 0.000000 
-0.475290 1.768073 0.000000 
-0.478341 1.738287 0.000000 
-0.479442 1.701551 0.000000 
-2.609147 1.448136 0.000000 
-2.517189 1.442638 0.000000 
-2.434013 1.442975 0.000000 
-2.352624 1.432943 0.000000 
-2.274410 1.413572 0.000000 
-2.204499 1.378924 0.000000 
-2.180326 1.310041 0.000000 
-2.178559 1.221505 0.000000 
-2.168273 1.131476 0.000000 
-2.159086 1.033412 0.000000 
-2.144575 0.944253 0.000000 
-2.163040 0.869036 0.000000 
-2.183612 0.794944 0.000000 
-2.172907 0.730387 0.000000 
-2.161614 0.667632 0.000000 
-2.169833 0.607520 0.000000 
-2.188987 0.545766 0.000000 
-2.218663 0.494521 0.000000 
-2.229021 0.438647 0.000000 
-2.997130 1.815462 0.000000 
-3.021908 1.717324 0.000000 
-2.902046 1.783954 0.000000 
-0.770600 -0.217199 0.000000 
-0.790096 -0.125540 0.000000 
-0.811857 -0.044833 0.000000 
-0.835807 0.033731 0.000000 
-0.859157 0.103859 0.000000 
-0.881226 0.163911 0.000000 
-0.903169 0.223261 0.000000 
-0.928196 0.287305 0.000000 
-2.785442 1.751401 0.000000 
-2.944278 1.690659 0.000000 
-2.855014 1.653513 0.000000 
-2.796189 1.593433 0.000000 
-2.651235 1.736655 0.000000 
-2.517962 1.726308 0.000000 
-2.394240 1.717145 0.000000 
-2.275192 1.709149 0.000000 
-2.180847 1.684588 0.000000 
-2.099904 1.658108 0.000000 
-2.018420 1.626868 0.000000 
-1.945469 1.631166 0.000000 
-1.885190 1.664506 0.000000 
-1.829736 1.685074 0.000000 
-1.760875 1.710306 0.000000 
-1.680504 1.738730 0.000000 
-1.617798 1.757047 0.000000 
-1.570169 1.771571 0.000000 
-1.527149 1.785761 0.000000 
-1.482581 1.797890 0.000000 
-1.433927 1.804430 0.000000 
-1.386311 1.812345 0.000000 
-1.337319 1.821076 0.000000 
-1.286363 1.828155 0.000000 
-1.235962 1.828873 0.000000 
-1.188452 1.833686 0.000000 
-1.140860 1.843137 0.000000 
-1.091558 1.842446 0.000000 
-1.038962 1.831427 0.000000 
-0.982519 1.812429 0.000000 
-0.922315 1.795687 0.000000 
-0.869867 1.785363 0.000000 
-0.827747 1.778873 0.000000 
-0.785371 1.773961 0.000000 
-0.748025 1.764224 0.000000 
-0.712781 1.753957 0.000000 
-0.681690 1.740025 0.000000 
-0.657198 1.728891 0.000000 
-0.633895 1.722227 0.000000 
-0.612002 1.717772 0.000000 
-0.594184 1.710559 0.000000 
-0.577381 1.701109 0.000000 
-0.560109 1.685826 0.000000 
-0.540091 1.653371 0.000000 
-1.243914 0.014526 0.000000 
-1.232782 0.028243 0.000000 
-1.257376 0.000172 0.000000 
-1.224378 0.046942 0.000000 
-1.271472 -0.019173 0.000000 
-1.215702 0.068939 0.000000 
-1.204660 0.094996 0.000000 
-1.290143 -0.046915 0.000000 
-1.314447 -0.091955 0.000000 
-1.190204 0.125302 0.000000 
-1.318041 -0.145309 0.000000 
-1.171655 0.159458 0.000000 
-1.149359 0.195773 0.000000 
-1.123094 0.234021 0.000000 
-1.284246 -0.195289 0.000000 
-1.239750 -0.246015 0.000000 
-1.083297 0.278013 0.000000 
-1.028190 0.309684 0.000000 
-1.181630 -0.288372 0.000000 
-1.112789 -0.319799 0.000000 
-1.040643 -0.331969 0.000000 
-0.978118 -0.335056 0.000000 
-0.927392 -0.348082 0.000000 
-0.889718 -0.387216 0.000000 
-0.873564 -0.443766 0.000000 
-0.920771 -0.475960 0.000000 
-0.935346 -0.408692 0.000000 
-0.991249 -0.485536 0.000000 
-1.088918 -0.482808 0.000000 
-1.067426 -0.403156 0.000000 
-1.189474 -0.475245 0.000000 
-1.147229 -0.390489 0.000000 
-1.266509 -0.451955 0.000000 
-1.219913 -0.364312 0.000000 
-1.335307 -0.416128 0.000000 
-1.284456 -0.326313 0.000000 
-1.402357 -0.372224 0.000000 
-1.341444 -0.278512 0.000000 
-1.466758 -0.319549 0.000000 
-1.539152 -0.258750 0.000000 
-1.393011 -0.220581 0.000000 
-1.612839 -0.188478 0.000000 
-1.665320 -0.130900 0.000000 
-1.691220 -0.066073 0.000000 
-1.704696 0.019420 0.000000 
-1.850073 0.186290 0.000000 
-1.911042 0.130465 0.000000 
-1.969645 0.073628 0.000000 
-1.726970 0.125831 0.000000 
-0.222881 0.333661 0.000000 
-0.195707 0.306078 0.000000 
-0.164205 0.269130 0.000000 
-0.127520 0.236432 0.000000 
-0.095686 0.206941 0.000000 
-0.059027 0.178463 0.000000 
-0.018954 0.148479 0.000000 
0.030296 0.117209 0.000000 
0.086536 0.096683 0.000000 
0.141893 0.077951 0.000000 
0.202102 0.048672 0.000000 
0.263408 0.008755 0.000000 
0.311661 -0.041232 0.000000 
0.333954 -0.100855 0.000000 
0.338621 -0.161305 0.000000 
0.341530 -0.215243 0.000000 
0.353165 -0.265432 0.000000 
0.365710 -0.323855 0.000000 
0.363543 -0.393383 0.000000 
[...]
POINT_DATA 899 
VECTORS X_GC float 
-3.648847 2.273681 0.000000 
-3.619410 2.233129 0.000000 
-3.578536 2.197534 0.000000 
-3.540028 2.161883 0.000000 
-3.511690 2.129688 0.000000 
-3.481362 2.099829 0.000000 
-3.451569 2.059156 0.000000 
0.772356 2.176195 0.000000 
0.774615 2.150073 0.000000 
0.769962 2.121319 0.000000 
-3.399514 2.028880 0.000000 
0.413960 -0.615962 0.000000 
0.455573 -0.611659 0.000000 
-1.762619 -0.515858 0.000000 
-1.783389 -0.480461 0.000000 
-1.714437 -0.451672 0.000000 
0.732567 2.170519 0.000000 
0.698438 2.156683 0.000000 
0.491831 -0.597457 0.000000 
0.519501 -0.567052 0.000000 
0.530556 -0.526605 0.000000 
0.532354 -0.480801 0.000000 
0.531774 -0.430294 0.000000 
-3.460923 1.967147 0.000000 
0.663989 2.134737 0.000000 
0.631675 2.107342 0.000000 
0.601833 2.083286 0.000000 
0.569607 2.060029 0.000000 
0.534059 2.037951 0.000000 
0.492599 2.016812 0.000000 
0.444403 1.998147 0.000000 
0.762807 2.080345 0.000000 
-1.708694 -0.417290 0.000000 
-1.726386 -0.377026 0.000000 
-1.761257 -0.353005 0.000000 
-1.812853 -0.345157 0.000000 
-0.690422 -0.597492 0.000000 
-0.624256 -0.615420 0.000000 
-0.561079 -0.623602 0.000000 
-0.500739 -0.625057 0.000000 
-0.445387 -0.625119 0.000000 
0.532260 -0.371210 0.000000 
0.536647 -0.301877 0.000000 
-1.881389 -0.332656 0.000000 
-0.389303 -0.622845 0.000000 
-0.340338 -0.607560 0.000000 
-0.344339 -0.553425 0.000000 
-0.358558 -0.500885 0.000000 
-0.381750 -0.459974 0.000000 
-0.406193 -0.425799 0.000000 
-0.417316 -0.394301 0.000000 
-0.428320 -0.360044 0.000000 
-0.436973 -0.315780 0.000000 
-0.444212 -0.260237 0.000000 
-0.452662 -0.201379 0.000000 
-0.468602 -0.144480 0.000000 
0.553166 -0.237162 0.000000 
0.573193 -0.179491 0.000000 
0.574450 -0.127751 0.000000 
0.561087 -0.077431 0.000000 
0.550432 -0.022108 0.000000 
0.748903 2.027027 0.000000 
0.730940 1.970535 0.000000 
0.715868 1.924375 0.000000 
0.699446 1.888248 0.000000 
0.684888 1.847258 0.000000 
0.675900 1.801054 0.000000 
0.669871 1.751494 0.000000 
0.664455 1.703637 0.000000 
0.668163 1.657217 0.000000 
0.672091 1.607384 0.000000 
0.674558 1.559360 0.000000 
0.673045 1.509281 0.000000 
0.386491 1.988466 0.000000 
0.664855 1.450542 0.000000 
0.652298 1.392464 0.000000 
0.638456 1.338815 0.000000 
0.623121 1.289304 0.000000 
0.616008 1.246277 0.000000 
0.600787 1.211335 0.000000 
0.571289 1.181886 0.000000 
0.539016 1.150725 0.000000 
0.513857 1.121826 0.000000 
0.493343 1.095591 0.000000 
0.469109 1.077778 0.000000 
0.444920 1.061334 0.000000 
0.415324 1.040368 0.000000 
0.383540 1.015616 0.000000 
0.356179 0.986283 0.000000 
0.343879 0.947384 0.000000 
0.337476 0.901863 0.000000 
0.332404 0.856577 0.000000 
0.328512 0.816887 0.000000 
0.319594 0.780807 0.000000 
0.304149 0.747397 0.000000 
0.290502 0.707006 0.000000 
0.275896 0.659143 0.000000 
0.261905 0.617174 0.000000 
0.250150 0.583579 0.000000 
0.250896 0.545774 0.000000 
0.259587 0.503171 0.000000 
0.284617 0.460398 0.000000 
0.315237 0.430736 0.000000 
0.340022 0.411300 0.000000 
0.354380 0.385451 0.000000 
0.368685 0.358308 0.000000 
0.385568 0.331912 0.000000 
0.415372 0.307115 0.000000 
0.447119 0.275402 0.000000 
0.477633 0.247486 0.000000 
0.503078 0.219549 0.000000 
0.518876 0.181495 0.000000 
0.527127 0.145527 0.000000 
0.534187 0.100981 0.000000 
0.543185 0.040201 0.000000 
0.322519 1.977411 0.000000 
0.263849 1.964294 0.000000 
0.208223 1.958874 0.000000 
0.150441 1.955045 0.000000 
-0.687392 -0.524425 0.000000 
-3.327058 2.002648 0.000000 
-3.276080 1.956227 0.000000 
-3.224941 1.922640 0.000000 
-3.181728 1.893481 0.000000 
-3.135074 1.856552 0.000000 
-3.078123 1.832259 0.000000 
-1.944260 -0.287778 0.000000 
0.083204 1.960202 0.000000 
0.005786 1.954849 0.000000 
-0.071812 1.964087 0.000000 
-0.135705 1.993629 0.000000 
-0.182391 2.035234 0.000000 
-1.999041 -0.216809 0.000000 
-1.843230 -0.491318 0.000000 
-0.491126 -0.080520 0.000000 
-0.512312 -0.007277 0.000000 
-0.526535 0.055556 0.000000 
-0.527935 0.117678 0.000000 
-0.524207 0.184847 0.000000 
-0.505864 0.241979 0.000000 
-0.468875 0.291191 0.000000 
-0.410369 0.320436 0.000000 
-0.354013 0.341553 0.000000 
-0.301050 0.351499 0.000000 
-0.255730 0.352272 0.000000 
-0.695595 -0.446130 0.000000 
-0.726457 -0.369248 0.000000 
-0.747352 -0.299793 0.000000 
-3.396487 1.945513 0.000000 
-3.344056 1.866125 0.000000 
-3.294256 1.822724 0.000000 
-3.248246 1.784400 0.000000 
-3.196818 1.745046 0.000000 
-3.159669 1.693736 0.000000 
-3.113281 1.647031 0.000000 
-3.056061 1.627468 0.000000 
-2.996684 1.604843 0.000000 
-2.933161 1.575227 0.000000 
-2.879064 1.539084 0.000000 
-2.813006 1.514299 0.000000 
-2.751664 1.491249 0.000000 
-2.686782 1.461926 0.000000 
-1.922020 -0.488511 0.000000 
-1.999705 -0.490010 0.000000 
-2.060018 -0.468406 0.000000 
-2.032615 -0.133419 0.000000 
-2.048550 -0.047697 0.000000 
-2.029059 0.018196 0.000000 
-2.105228 -0.411348 0.000000 
-2.154373 -0.343753 0.000000 
-2.203584 -0.289130 0.000000 
-2.237020 -0.227694 0.000000 
-2.250593 -0.162402 0.000000 
-2.270119 -0.090618 0.000000 
-2.297898 -0.020307 0.000000 
-2.327118 0.041273 0.000000 
-2.346747 0.095243 0.000000 
-2.362840 0.148352 0.000000 
-2.374561 0.199397 0.000000 
-2.373128 0.251372 0.000000 
-2.334174 0.317962 0.000000 
-2.331842 0.358581 0.000000 
-2.284565 0.367339 0.000000 
-0.236368 2.084770 0.000000 
-0.299146 2.128596 0.000000 
-0.346614 2.148522 0.000000 
-0.382877 2.112018 0.000000 
-0.412447 2.082969 0.000000 
-0.433989 2.042681 0.000000 
-0.446472 1.999715 0.000000 
-0.451628 1.960396 0.000000 
-0.451047 1.921934 0.000000 
-0.449242 1.885931 0.000000 
-0.453345 1.854041 0.000000 
-0.460251 1.826348 0.000000 
-0.470304 1.797563 0.000000 
-0.475290 1.768073 0.000000 
-0.478341 1.738287 0.000000 
-0.479442 1.701551 0.000000 
-2.609147 1.448136 0.000000 
-2.517189 1.442638 0.000000 
-2.434013 1.442975 0.000000 
-2.352624 1.432943 0.000000 
-2.274410 1.413572 0.000000 
-2.204499 1.378924 0.000000 
-2.180326 1.310041 0.000000 
-2.178559 1.221505 0.000000 
-2.168273 1.131476 0.000000 
-2.159086 1.033412 0.000000 
-2.144575 0.944253 0.000000 
-2.163040 0.869036 0.000000 
-2.183612 0.794944 0.000000 
-2.172907 0.730387 0.000000 
-2.161614 0.667632 0.000000 
-2.169833 0.607520 0.000000 
-2.188987 0.545766 0.000000 
-2.218663 0.494521 0.000000 
-2.229021 0.438647 0.000000 
-2.997130 1.815462 0.000000 
-3.021908 1.717324 0.000000 
-2.902046 1.783954 0.000000 
-0.770600 -0.217199 0.000000 
-0.790096 -0.125540 0.000000 
-0.811857 -0.044833 0.000000 
-0.835807 0.033731 0.000000 
-0.859157 0.103859 0.000000 
-0.881226 0.163911 0.000000 
-0.903169 0.223261 0.000000 
-0.928196 0.287305 0.000000 
-2.785442 1.751401 0.000000 
-2.944278 1.690659 0.000000 
-2.855014 1.653513 0.000000 
-2.796189 1.593433 0.000000 
-2.651235 1.736655 0.000000 
-2.517962 1.726308 0.000000 
-2.394240 1.717145 0.000000 
-2.275192 1.709149 0.000000 
-2.180847 1.684588 0.000000 
-2.099904 1.658108 0.000000 
-2.018420 1.626868 0.000000 
-1.945469 1.631166 0.000000 
-1.885190 1.664506 0.000000 
-1.829736 1.685074 0.000000 
-1.760875 1.710306 0.000000 
-1.680504 1.738730 0.000000 
-1.617798 1.757047 0.000000 
-1.570169 1.771571 0.000000 
-1.527149 1.785761 0.000000 
-1.482581 1.797890 0.000000 
-1.433927 1.804430 0.000000 
-1.386311 1.812345 0.000000 
-1.337319 1.821076 0.000000 
-1.286363 1.828155 0.000000 
-1.235962 1.828873 0.000000 
-1.188452 1.833686 0.000000 
-1.140860 1.843137 0.000000 
-1.091558 1.842446 0.000000 
-1.038962 1.831427 0.000000 
-0.982519 1.812429 0.000000 
-0.922315 1.795687 0.000000 
-0.869867 1.785363 0.000000 
-0.827747 1.778873 0.000000 
-0.785371 1.773961 0.000000 
-0.748025 1.764224 0.000000 
-0.712781 1.753957 0.000000 
-0.681690 1.740025 0.000000 
-0.657198 1.728891 0.000000 
-0.633895 1.722227 0.000000 
-0.612002 1.717772 0.000000 
-0.594184 1.710559 0.000000 
-0.577381 1.701109 0.000000 
-0.560109 1.685826 0.000000 
-0.540091 1.653371 0.000000 
-1.243914 0.014526 0.000000 
-1.232782 0.028243 0.000000 
-1.257376 0.000172 0.000000 
-1.224378 0.046942 0.000000 
-1.271472 -0.019173 0.000000 
-1.215702 0.068939 0.000000 
-1.204660 0.094996 0.000000 
-1.290143 -0.046915 0.000000 
-1.314447 -0.091955 0.000000 
-1.190204 0.125302 0.000000 
-1.318041 -0.145309 0.000000 
-1.171655 0.159458 0.000000 
-1.149359 0.195773 0.000000 
-1.123094 0.234021 0.000000 
-1.284246 -0.195289 0.000000 
-1.239750 -0.246015 0.000000 
-1.083297 0.278013 0.000000 
-1.028190 0.309684 0.000000 
-1.181630 -0.288372 0.000000 
-1.112789 -0.319799 0.000000 
-1.040643 -0.331969 0.000000 
-0.978118 -0.335056 0.000000 
-0.927392 -0.348082 0.000000 
-0.889718 -0.387216 0.000000 
-0.873564 -0.443766 0.000000 
-0.920771 -0.475960 0.000000 
-0.935346 -0.408692 0.000000 
-0.991249 -0.485536 0.000000 
-1.088918 -0.482808 0.000000 
-1.067426 -0.403156 0.000000 
-1.189474 -0.475245 0.000000 
-1.147229 -0.390489 0.000000 
-1.266509 -0.451955 0.000000 
-1.219913 -0.364312 0.000000 
-1.335307 -0.416128 0.000000 
-1.284456 -0.326313 0.000000 
-1.402357 -0.372224 0.000000 
-1.341444 -0.278512 0.000000 
-1.466758 -0.319549 0.000000 
-1.539152 -0.258750 0.000000 
-1.393011 -0.220581 0.000000 
-1.612839 -0.188478 0.000000 
-1.665320 -0.130900 0.000000 
-1.691220 -0.066073 0.000000 
-1.704696 0.019420 0.000000 
-1.850073 0.186290 0.000000 
-1.911042 0.130465 0.000000 
-1.969645 0.073628 0.000000 
-1.726970 0.125831 0.000000 
-0.222881 0.333661 0.000000 
-0.195707 0.306078 0.000000 
-0.164205 0.269130 0.000000 
-0.127520 0.236432 0.000000 
-0.095686 0.206941 0.000000 
-0.059027 0.178463 0.000000 
-0.018954 0.148479 0.000000 
0.030296 0.117209 0.000000 
0.086536 0.096683 0.000000 
0.141893 0.077951 0.000000 
0.202102 0.048672 0.000000 
0.263408 0.008755 0.000000 
0.311661 -0.041232 0.000000 
0.333954 -0.100855 0.000000 
0.338621 -0.161305 0.000000 
0.341530 -0.215243 0.000000 
0.353165 -0.265432 0.000000 
0.365710 -0.323855 0.000000 
0.363543 -0.393383 0.000000 
0.357353 -0.455498 0.000000 
0.351188 -0.506240 0.000000 
0.363842 -0.553269 0.000000 
-1.737069 -0.419920 0.000000 
-0.199590 0.386278 0.000000 
-0.156305 0.356362 0.000000 
-0.462327 1.622318 0.000000 
0.741313 2.144892 0.000000 
0.482415 -0.564039 0.000000 
0.446104 -0.571935 0.000000 
0.403556 -0.577590 0.000000 
-0.104001 0.328297 0.000000 
-0.514998 1.554372 0.000000 
-0.059937 0.293892 0.000000 
0.738519 2.119627 0.000000 
0.714572 2.131928 0.000000 
-0.249752 0.413102 0.000000 
-0.036232 0.250094 0.000000 
0.000772 0.222262 0.000000 
0.035161 0.196617 0.000000 
-1.776537 -0.419361 0.000000 
-1.836238 -0.415177 0.000000 
-0.309416 0.427202 0.000000 
-0.378944 0.424938 0.000000 
-2.292732 0.304526 0.000000 
-2.315166 0.254535 0.000000 
-2.314418 0.206978 0.000000 
-2.293418 0.160592 0.000000 
-2.279687 0.110712 0.000000 
-2.253462 0.063447 0.000000 
0.075120 0.168874 0.000000 
0.131113 0.156267 0.000000 
-0.977004 0.358250 0.000000 
-0.860050 0.348085 0.000000 
-1.912142 -0.407120 0.000000 
-1.989966 -0.415901 0.000000 
-2.023752 -0.348359 0.000000 
-2.082175 -0.277098 0.000000 
0.723889 2.088114 0.000000 
0.691466 2.106957 0.000000 
0.665980 2.074310 0.000000 
0.704783 2.047042 0.000000 
0.637970 2.036252 0.000000 
0.681732 1.999834 0.000000 
0.670916 1.953659 0.000000 
0.602858 2.004584 0.000000 
0.659584 1.913235 0.000000 
0.560783 1.978213 0.000000 
0.636111 1.877160 0.000000 
0.607495 1.827369 0.000000 
0.595324 1.763889 0.000000 
0.604052 1.699216 0.000000 
0.514160 1.948810 0.000000 
0.453857 1.921365 0.000000 
0.392525 1.919387 0.000000 
0.334098 1.917858 0.000000 
0.278675 1.899104 0.000000 
0.217273 1.881029 0.000000 
0.149449 1.863674 0.000000 
0.614128 1.646940 0.000000 
0.621313 1.599361 0.000000 
0.624262 1.554481 0.000000 
-2.197766 0.010258 0.000000 
-2.158682 -0.064665 0.000000 
-2.124695 0.069589 0.000000 
-2.150589 -0.230792 0.000000 
-2.141926 -0.153246 0.000000 
-0.393439 -0.569806 0.000000 
-0.412631 -0.525763 0.000000 
-0.436983 -0.485159 0.000000 
-0.445953 -0.441740 0.000000 
-0.458251 -0.408914 0.000000 
-0.479726 -0.374147 0.000000 
-0.496934 -0.325417 0.000000 
-0.509002 -0.270333 0.000000 
-0.517157 -0.216002 0.000000 
-0.545309 -0.164727 0.000000 
-0.442273 -0.567200 0.000000 
-0.496002 -0.557683 0.000000 
-0.557668 -0.559790 0.000000 
-0.618975 -0.544310 0.000000 
-0.334659 2.086709 0.000000 
-0.367985 2.056991 0.000000 
-0.385153 2.020566 0.000000 
-0.396797 1.986698 0.000000 
-0.406285 1.951176 0.000000 
-0.402558 1.912043 0.000000 
-0.406645 1.873600 0.000000 
-0.418378 1.841185 0.000000 
-0.428059 1.812060 0.000000 
-0.435849 1.782512 0.000000 
-0.442335 1.752478 0.000000 
-0.445406 1.719412 0.000000 
-0.444483 1.673696 0.000000 
0.619822 1.508749 0.000000 
-1.077870 0.405314 0.000000 
-1.149036 0.363355 0.000000 
-1.174735 0.288513 0.000000 
-1.192231 0.236789 0.000000 
-1.210811 0.195013 0.000000 
-1.228352 0.155673 0.000000 
-1.238869 0.117693 0.000000 
-1.244643 0.086196 0.000000 
-1.248534 0.061295 0.000000 
-1.252336 0.042007 0.000000 
-1.262323 0.028755 0.000000 
-1.280319 0.017839 0.000000 
-0.451814 0.402277 0.000000 
-0.526928 0.358756 0.000000 
0.194935 0.139274 0.000000 
0.069048 1.849574 0.000000 
-0.574175 0.288071 0.000000 
-0.593607 0.206968 0.000000 
-1.764101 0.246653 0.000000 
-2.210991 0.365510 0.000000 
-0.825996 0.262808 0.000000 
-0.799223 0.191727 0.000000 
-0.760911 0.125294 0.000000 
0.605964 1.457797 0.000000 
0.587834 1.400437 0.000000 
0.576354 1.340589 0.000000 
0.574971 1.285580 0.000000 
0.580375 1.242556 0.000000 
0.545179 1.220172 0.000000 
0.509957 1.187909 0.000000 
0.484198 1.151507 0.000000 
0.468721 1.120352 0.000000 
0.449386 1.101821 0.000000 
0.422962 1.089156 0.000000 
0.391379 1.070005 0.000000 
0.357154 1.045941 0.000000 
0.323730 1.017569 0.000000 
-0.582151 -0.103859 0.000000 
0.265957 0.112845 0.000000 
0.333763 0.066715 0.000000 
0.378371 -0.000301 0.000000 
0.400918 -0.074696 0.000000 
0.401084 -0.137684 0.000000 
0.404345 -0.191785 0.000000 
0.432648 -0.242867 0.000000 
0.450030 -0.307308 0.000000 
0.529803 -0.154155 0.000000 
0.491947 -0.202292 0.000000 
0.453243 -0.152409 0.000000 
0.449550 -0.381632 0.000000 
0.498420 -0.108282 0.000000 
0.474171 -0.048340 0.000000 
0.457863 0.026233 0.000000 
0.462195 -0.440287 0.000000 
0.478704 -0.486622 0.000000 
0.483460 -0.527588 0.000000 
0.412910 -0.465928 0.000000 
0.398390 -0.504641 0.000000 
0.404290 -0.538929 0.000000 
0.442452 -0.534371 0.000000 
0.436659 -0.499206 0.000000 
-0.727378 0.051161 0.000000 
-0.616071 0.133179 0.000000 
-0.623548 0.058898 0.000000 
-0.605779 -0.022109 0.000000 
-0.706340 -0.034558 0.000000 
-0.681483 -0.120819 0.000000 
-0.032304 1.844013 0.000000 
-0.128010 1.880163 0.000000 
-0.195732 1.947287 0.000000 
-0.243911 2.001201 0.000000 
-0.287859 2.048604 0.000000 
-0.335518 2.020908 0.000000 
-0.667608 -0.206200 0.000000 
-0.584906 -0.212968 0.000000 
-0.658169 -0.286209 0.000000 
-0.578442 -0.278339 0.000000 
-0.639050 -0.357651 0.000000 
-0.607982 -0.433168 0.000000 
-0.562541 -0.341038 0.000000 
-0.536184 -0.402061 0.000000 
-0.495978 -0.440023 0.000000 
-0.500680 -0.492417 0.000000 
-0.573051 -0.496870 0.000000 
-2.690892 1.617307 0.000000 
-2.684799 1.531295 0.000000 
-2.602920 1.530033 0.000000 
-2.574381 1.615026 0.000000 
-2.518122 1.549900 0.000000 
-2.424460 1.573798 0.000000 
-2.320006 1.564867 0.000000 
-2.229986 1.541249 0.000000 
-2.146342 1.500009 0.000000 
-1.455055 -0.161600 0.000000 
-1.387692 -0.081276 0.000000 
-1.339496 -0.027948 0.000000 
-1.304977 0.000612 0.000000 
-1.531301 -0.096107 0.000000 
-1.604385 -0.051994 0.000000 
-1.592423 0.048686 0.000000 
-1.608296 0.172649 0.000000 
-1.827918 0.371095 0.000000 
0.477873 0.139898 0.000000 
0.477147 0.174797 0.000000 
0.465631 0.209037 0.000000 
-0.587742 1.653246 0.000000 
-0.593403 1.677350 0.000000 
-0.604579 1.690006 0.000000 
-0.619289 1.695692 0.000000 
-0.639577 1.693518 0.000000 
-0.665912 1.695134 0.000000 
-0.697937 1.702121 0.000000 
-0.595692 1.599758 0.000000 
-0.726123 1.716933 0.000000 
-0.757398 1.727503 0.000000 
-0.794522 1.724928 0.000000 
-0.841416 1.722350 0.000000 
-0.894922 1.723711 0.000000 
-0.956071 1.732127 0.000000 
-1.020951 1.751048 0.000000 
-1.077937 1.778683 0.000000 
-1.120258 1.807411 0.000000 
-1.171769 1.783151 0.000000 
0.332207 0.336542 0.000000 
0.333662 0.294806 0.000000 
0.321472 0.365158 0.000000 
0.302407 0.391971 0.000000 
0.214022 0.406633 0.000000 
0.194081 0.467658 0.000000 
0.186716 0.523170 0.000000 
0.189303 0.575943 0.000000 
0.360023 0.255125 0.000000 
0.405131 0.229992 0.000000 
0.201671 0.625188 0.000000 
0.218038 0.675449 0.000000 
0.236652 0.724383 0.000000 
0.256885 0.766317 0.000000 
0.278373 0.794811 0.000000 
0.284019 0.828209 0.000000 
0.276718 0.874956 0.000000 
0.278735 0.931769 0.000000 
0.296322 0.982037 0.000000 
-1.507867 1.734908 0.000000 
-1.548116 1.710266 0.000000 
-1.598023 1.682887 0.000000 
-1.467251 1.749682 0.000000 
-1.422160 1.756966 0.000000 
-1.373311 1.763682 0.000000 
-1.322903 1.771459 0.000000 
-1.275577 1.780704 0.000000 
-1.225048 1.779305 0.000000 
-1.662214 1.659217 0.000000 
-1.732600 1.639278 0.000000 
-1.794687 1.624902 0.000000 
-1.841773 1.595715 0.000000 
-2.078405 0.662988 0.000000 
-2.079214 0.741577 0.000000 
-2.097651 0.585387 0.000000 
-2.129318 0.513649 0.000000 
-2.096743 0.822139 0.000000 
-2.169699 0.458305 0.000000 
-1.991686 0.385305 0.000000 
-1.642187 0.310861 0.000000 
-1.989898 0.218080 0.000000 
-2.064526 0.146268 0.000000 
-1.914688 0.291615 0.000000 
-2.037969 1.074691 0.000000 
-2.021377 0.959007 0.000000 
-2.055796 1.203853 0.000000 
-2.102728 1.306506 0.000000 
-2.047875 1.448808 0.000000 
0.428030 0.195539 0.000000 
0.375625 0.174303 0.000000 
0.313454 0.187404 0.000000 
0.290352 0.333439 0.000000 
0.238487 1.044356 0.000000 
0.440631 0.157432 0.000000 
0.396678 0.117655 0.000000 
0.460488 0.091734 0.000000 
0.523747 1.267846 0.000000 
-2.262588 0.231101 0.000000 
-2.220468 0.287128 0.000000 
-2.218579 0.177590 0.000000 
-2.146376 0.229440 0.000000 
-2.206503 0.112519 0.000000 
0.473879 1.229234 0.000000 
0.446488 1.176903 0.000000 
0.440978 1.132884 0.000000 
0.409581 1.125029 0.000000 
0.629179 1.953924 0.000000 
0.593839 1.921451 0.000000 
0.550362 1.877247 0.000000 
0.483841 1.836824 0.000000 
0.202470 0.977992 0.000000 
0.241245 0.830216 0.000000 
0.205152 0.805416 0.000000 
0.175878 0.757275 0.000000 
0.153326 0.698769 0.000000 
0.132079 0.638319 0.000000 
0.113278 0.573863 0.000000 
0.106000 0.505540 0.000000 
0.109640 0.436343 0.000000 
0.121648 0.365665 0.000000 
0.032483 0.276051 0.000000 
0.246820 0.358730 0.000000 
0.099619 0.224417 0.000000 
0.373127 1.110147 0.000000 
-0.307911 1.973287 0.000000 
-0.360136 1.954817 0.000000 
-0.343252 1.900472 0.000000 
-0.270247 1.908616 0.000000 
0.168337 0.220935 0.000000 
0.242346 0.210598 0.000000 
0.270369 0.279634 0.000000 
0.505525 1.335608 0.000000 
-0.689828 0.162863 0.000000 
-0.729540 0.220267 0.000000 
-0.746154 0.294739 0.000000 
-0.657668 0.311303 0.000000 
-0.661195 0.227017 0.000000 
-0.924642 0.463979 0.000000 
-1.137284 1.727342 0.000000 
-1.072920 1.682748 0.000000 
-1.248127 1.739639 0.000000 
-1.304069 1.723317 0.000000 
-1.360197 1.715657 0.000000 
-1.411221 1.711517 0.000000 
-1.453165 1.708288 0.000000 
-1.486003 1.690826 0.000000 
-1.510814 1.647356 0.000000 
-1.558800 1.602688 0.000000 
-0.995058 1.655995 0.000000 
-0.919611 1.645519 0.000000 
-0.852227 1.652451 0.000000 
-0.796966 1.668970 0.000000 
-0.752732 1.688138 0.000000 
-1.635591 1.575355 0.000000 
-1.992480 0.850056 0.000000 
-1.965104 0.740277 0.000000 
-1.974377 0.636944 0.000000 
-2.014368 0.543322 0.000000 
-2.065453 0.460136 0.000000 
-2.071492 0.307069 0.000000 
-2.131272 0.390606 0.000000 
-1.712039 1.562032 0.000000 
-1.781280 1.561982 0.000000 
-1.884796 1.531925 0.000000 
0.516332 1.751588 0.000000 
0.538779 1.680460 0.000000 
0.517174 1.409993 0.000000 
0.552532 1.471929 0.000000 
0.576896 1.513856 0.000000 
0.583356 1.550882 0.000000 
0.576083 1.587887 0.000000 