# vtk DataFile Version 3.0 
vtk output 
ASCII 
DATASET UNSTRUCTURED_GRID 
POINTS 899 float 
-3.648847 2.295802 0.000000 
-3.619410 2.255250 0.000000 
-3.578536 2.219656 0.000000 
-3.540028 2.184005 0.000000 
-3.511690 2.151809 0.000000 
-3.481362 2.121951 0.000000 
-3.451569 2.081277 0.000000 
0.772356 2.198316 0.000000 
0.774615 2.172195 0.000000 
0.769962 2.143441 0.000000 
-3.399514 2.051002 0.000000 
0.413960 -0.593841 0.000000 
0.455573 -0.589538 0.000000 
-1.762619 -0.493736 0.000000 
-1.783389 -0.458340 0.000000 
-1.714437 -0.429550 0.000000 
0.732567 2.192641 0.000000 
0.698438 2.178805 0.000000 
0.491831 -0.575335 0.000000 
0.519501 -0.544930 0.000000 
0.530556 -0.504483 0.000000 
0.532354 -0.458679 0.000000 
0.531774 -0.408172 0.000000 
-3.460923 1.989269 0.000000 
0.663989 2.156858 0.000000 
0.631675 2.129464 0.000000 
0.601833 2.105408 0.000000 
0.569607 2.082150 0.000000 
0.534059 2.060073 0.000000 
0.492599 2.038933 0.000000 
0.444403 2.020268 0.000000 
0.762807 2.102467 0.000000 
-1.708694 -0.395168 0.000000 
-1.726386 -0.354904 0.000000 
-1.761257 -0.330884 0.000000 
-1.812853 -0.323035 0.000000 
-0.690422 -0.575371 0.000000 
-0.624256 -0.593298 0.000000 
-0.561079 -0.601480 0.000000 
-0.500739 -0.602936 0.000000 
-0.445387 -0.602998 0.000000 
0.532260 -0.349089 0.000000 
0.536647 -0.279755 0.000000 
-1.881389 -0.310535 0.000000 
-0.389303 -0.600723 0.000000 
-0.340338 -0.585438 0.000000 
-0.344339 -0.531303 0.000000 
-0.358558 -0.478763 0.000000 
-0.381750 -0.437852 0.000000 
-0.406193 -0.403677 0.000000 
-0.417316 -0.372179 0.000000 
-0.428320 -0.337923 0.000000 
-0.436973 -0.293658 0.000000 
-0.444212 -0.238115 0.000000 
-0.452662 -0.179257 0.000000 
-0.468602 -0.122358 0.000000 
0.553166 -0.215041 0.000000 
0.573193 -0.157370 0.000000 
0.574450 -0.105629 0.000000 
0.561087 -0.055309 0.000000 
0.550432 0.000014 0.000000 
0.748903 2.049149 0.000000 
0.730940 1.992656 0.000000 
0.715868 1.946497 0.000000 
0.699446 1.910369 0.000000 
0.684888 1.869380 0.000000 
0.675900 1.823175 0.000000 
0.669871 1.773615 0.000000 
0.664455 1.725758 0.000000 
0.668163 1.679339 0.000000 
0.672091 1.629505 0.000000 
0.674558 1.581482 0.000000 
0.673045 1.531403 0.000000 
0.386491 2.010588 0.000000 
0.664855 1.472664 0.000000 
0.652298 1.414586 0.000000 
0.638456 1.360936 0.000000 
0.623121 1.311426 0.000000 
0.616008 1.268399 0.000000 
0.600787 1.233457 0.000000 
0.571289 1.204008 0.000000 
0.539016 1.172846 0.000000 
0.513857 1.143947 0.000000 
0.493343 1.117712 0.000000 
0.469109 1.099900 0.000000 
0.444920 1.083455 0.000000 
0.415324 1.062489 0.000000 
0.383540 1.037737 0.000000 
0.356179 1.008405 0.000000 
0.343879 0.969505 0.000000 
0.337476 0.923985 0.000000 
0.332404 0.878699 0.000000 
0.328512 0.839009 0.000000 
0.319594 0.802929 0.000000 
0.304149 0.769518 0.000000 
0.290502 0.729127 0.000000 
0.275896 0.681265 0.000000 
0.261905 0.639296 0.000000 
0.250150 0.605701 0.000000 
0.250896 0.567896 0.000000 
0.259587 0.525292 0.000000 
0.284617 0.482519 0.000000 
0.315237 0.452858 0.000000 
0.340022 0.433421 0.000000 
0.354380 0.407572 0.000000 
0.368685 0.380430 0.000000 
0.385568 0.354033 0.000000 
0.415372 0.329236 0.000000 
0.447119 0.297524 0.000000 
0.477633 0.269607 0.000000 
0.503078 0.241671 0.000000 
0.518876 0.203617 0.000000 
0.527127 0.167648 0.000000 
0.534187 0.123103 0.000000 
0.543185 0.062323 0.000000 
0.322519 1.999532 0.000000 
0.263849 1.986415 0.000000 
0.208223 1.980996 0.000000 
0.150441 1.977167 0.000000 
-0.687392 -0.502303 0.000000 
-3.327058 2.024770 0.000000 
-3.276080 1.978348 0.000000 
-3.224941 1.944761 0.000000 
-3.181728 1.915603 0.000000 
-3.135074 1.878673 0.000000 
-3.078123 1.854380 0.000000 
-1.944260 -0.265656 0.000000 
0.083204 1.982323 0.000000 
0.005786 1.976970 0.000000 
-0.071812 1.986209 0.000000 
-0.135705 2.015750 0.000000 
-0.182391 2.057356 0.000000 
-1.999041 -0.194688 0.000000 
-1.843230 -0.469197 0.000000 
-0.491126 -0.058398 0.000000 
-0.512312 0.014845 0.000000 
-0.526535 0.077677 0.000000 
-0.527935 0.139799 0.000000 
-0.524207 0.206969 0.000000 
-0.505864 0.264101 0.000000 
-0.468875 0.313313 0.000000 
-0.410369 0.342558 0.000000 
-0.354013 0.363675 0.000000 
-0.301050 0.373620 0.000000 
-0.255730 0.374393 0.000000 
-0.695595 -0.424008 0.000000 
-0.726457 -0.347126 0.000000 
-0.747352 -0.277671 0.000000 
-3.396487 1.967634 0.000000 
-3.344056 1.888246 0.000000 
-3.294256 1.844846 0.000000 
-3.248246 1.806521 0.000000 
-3.196818 1.767168 0.000000 
-3.159669 1.715858 0.000000 
-3.113281 1.669153 0.000000 
-3.056061 1.649590 0.000000 
-2.996684 1.626965 0.000000 
-2.933161 1.597349 0.000000 
-2.879064 1.561206 0.000000 
-2.813006 1.536420 0.000000 
-2.751664 1.513370 0.000000 
-2.686782 1.484047 0.000000 
-1.922020 -0.466390 0.000000 
-1.999705 -0.467889 0.000000 
-2.060018 -0.446285 0.000000 
-2.032615 -0.111298 0.000000 
-2.048550 -0.025575 0.000000 
-2.029059 0.040318 0.000000 
-2.105228 -0.389227 0.000000 
-2.154373 -0.321632 0.000000 
-2.203584 -0.267008 0.000000 
-2.237020 -0.205573 0.000000 
-2.250593 -0.140280 0.000000 
-2.270119 -0.068496 0.000000 
-2.297898 0.001814 0.000000 
-2.327118 0.063394 0.000000 
-2.346747 0.117364 0.000000 
-2.362840 0.170473 0.000000 
-2.374561 0.221518 0.000000 
-2.373128 0.273494 0.000000 
-2.334174 0.340084 0.000000 
-2.331842 0.380702 0.000000 
-2.284565 0.389461 0.000000 
-0.236368 2.106891 0.000000 
-0.299146 2.150718 0.000000 
-0.346614 2.170643 0.000000 
-0.382877 2.134140 0.000000 
-0.412447 2.105090 0.000000 
-0.433989 2.064803 0.000000 
-0.446472 2.021836 0.000000 
-0.451628 1.982518 0.000000 
-0.451047 1.944056 0.000000 
-0.449242 1.908052 0.000000 
-0.453345 1.876163 0.000000 
-0.460251 1.848469 0.000000 
-0.470304 1.819684 0.000000 
-0.475290 1.790194 0.000000 
-0.478341 1.760409 0.000000 
-0.479442 1.723673 0.000000 
-2.609147 1.470258 0.000000 
-2.517189 1.464760 0.000000 
-2.434013 1.465096 0.000000 
-2.352624 1.455065 0.000000 
-2.274410 1.435694 0.000000 
-2.204499 1.401045 0.000000 
-2.180326 1.332162 0.000000 
-2.178559 1.243626 0.000000 
-2.168273 1.153597 0.000000 
-2.159086 1.055533 0.000000 
-2.144575 0.966374 0.000000 
-2.163040 0.891157 0.000000 
-2.183612 0.817066 0.000000 
-2.172907 0.752508 0.000000 
-2.161614 0.689753 0.000000 
-2.169833 0.629641 0.000000 
-2.188987 0.567888 0.000000 
-2.218663 0.516642 0.000000 
-2.229021 0.460769 0.000000 
-2.997130 1.837583 0.000000 
-3.021908 1.739445 0.000000 
-2.902046 1.806076 0.000000 
-0.770600 -0.195078 0.000000 
-0.790096 -0.103419 0.000000 
-0.811857 -0.022711 0.000000 
-0.835807 0.055853 0.000000 
-0.859157 0.125981 0.000000 
-0.881226 0.186032 0.000000 
-0.903169 0.245383 0.000000 
-0.928196 0.309427 0.000000 
-2.785442 1.773523 0.000000 
-2.944278 1.712781 0.000000 
-2.855014 1.675635 0.000000 
-2.796189 1.615555 0.000000 
-2.651235 1.758777 0.000000 
-2.517962 1.748430 0.000000 
-2.394240 1.739267 0.000000 
-2.275192 1.731270 0.000000 
-2.180847 1.706709 0.000000 
-2.099904 1.680230 0.000000 
-2.018420 1.648990 0.000000 
-1.945469 1.653288 0.000000 
-1.885190 1.686627 0.000000 
-1.829736 1.707196 0.000000 
-1.760875 1.732427 0.000000 
-1.680504 1.760852 0.000000 
-1.617798 1.779169 0.000000 
-1.570169 1.793692 0.000000 
-1.527149 1.807882 0.000000 
-1.482581 1.820011 0.000000 
-1.433927 1.826552 0.000000 
-1.386311 1.834467 0.000000 
-1.337319 1.843197 0.000000 
-1.286363 1.850277 0.000000 
-1.235962 1.850994 0.000000 
-1.188452 1.855807 0.000000 
-1.140860 1.865258 0.000000 
-1.091558 1.864568 0.000000 
-1.038962 1.853549 0.000000 
-0.982519 1.834551 0.000000 
-0.922315 1.817809 0.000000 
-0.869867 1.807484 0.000000 
-0.827747 1.800994 0.000000 
-0.785371 1.796083 0.000000 
-0.748025 1.786346 0.000000 
-0.712781 1.776078 0.000000 
-0.681690 1.762147 0.000000 
-0.657198 1.751012 0.000000 
-0.633895 1.744349 0.000000 
-0.612002 1.739894 0.000000 
-0.594184 1.732681 0.000000 
-0.577381 1.723231 0.000000 
-0.560109 1.707947 0.000000 
-0.540091 1.675493 0.000000 
-1.243914 0.036647 0.000000 
-1.232782 0.050364 0.000000 
-1.257376 0.022294 0.000000 
-1.224378 0.069064 0.000000 
-1.271472 0.002948 0.000000 
-1.215702 0.091061 0.000000 
-1.204660 0.117117 0.000000 
-1.290143 -0.024794 0.000000 
-1.314447 -0.069834 0.000000 
-1.190204 0.147424 0.000000 
-1.318041 -0.123188 0.000000 
-1.171655 0.181580 0.000000 
-1.149359 0.217894 0.000000 
-1.123094 0.256143 0.000000 
-1.284246 -0.173167 0.000000 
-1.239750 -0.223894 0.000000 
-1.083297 0.300134 0.000000 
-1.028190 0.331805 0.000000 
-1.181630 -0.266250 0.000000 
-1.112789 -0.297678 0.000000 
-1.040643 -0.309848 0.000000 
-0.978118 -0.312934 0.000000 
-0.927392 -0.325960 0.000000 
-0.889718 -0.365095 0.000000 
-0.873564 -0.421645 0.000000 
-0.920771 -0.453839 0.000000 
-0.935346 -0.386570 0.000000 
-0.991249 -0.463415 0.000000 
-1.088918 -0.460687 0.000000 
-1.067426 -0.381035 0.000000 
-1.189474 -0.453123 0.000000 
-1.147229 -0.368368 0.000000 
-1.266509 -0.429833 0.000000 
-1.219913 -0.342190 0.000000 
-1.335307 -0.394006 0.000000 
-1.284456 -0.304191 0.000000 
-1.402357 -0.350103 0.000000 
-1.341444 -0.256390 0.000000 
-1.466758 -0.297427 0.000000 
-1.539152 -0.236628 0.000000 
-1.393011 -0.198459 0.000000 
-1.612839 -0.166357 0.000000 
-1.665320 -0.108778 0.000000 
-1.691220 -0.043952 0.000000 
-1.704696 0.041542 0.000000 
-1.850073 0.208411 0.000000 
-1.911042 0.152586 0.000000 
-1.969645 0.095750 0.000000 
-1.726970 0.147953 0.000000 
-0.222881 0.355782 0.000000 
-0.195707 0.328199 0.000000 
-0.164205 0.291252 0.000000 
-0.127520 0.258554 0.000000 
-0.095686 0.229063 0.000000 
-0.059027 0.200584 0.000000 
-0.018954 0.170601 0.000000 
0.030296 0.139330 0.000000 
0.086536 0.118804 0.000000 
0.141893 0.100073 0.000000 
0.202102 0.070793 0.000000 
0.263408 0.030876 0.000000 
0.311661 -0.019111 0.000000 
0.333954 -0.078733 0.000000 
0.338621 -0.139183 0.000000 
0.341530 -0.193122 0.000000 
0.353165 -0.243311 0.000000 
0.365710 -0.301733 0.000000 
0.363543 -0.371262 0.000000 
[...]
POINT_DATA 899 
VECTORS X_GC float 
-3.648847 2.295802 0.000000 
-3.619410 2.255250 0.000000 
-3.578536 2.219656 0.000000 
-3.540028 2.184005 0.000000 
-3.511690 2.151809 0.000000 
-3.481362 2.121951 0.000000 
-3.451569 2.081277 0.000000 
0.772356 2.198316 0.000000 
0.774615 2.172195 0.000000 
0.769962 2.143441 0.000000 
-3.399514 2.051002 0.000000 
0.413960 -0.593841 0.000000 
0.455573 -0.589538 0.000000 
-1.762619 -0.493736 0.000000 
-1.783389 -0.458340 0.000000 
-1.714437 -0.429550 0.000000 
0.732567 2.192641 0.000000 
0.698438 2.178805 0.000000 
0.491831 -0.575335 0.000000 
0.519501 -0.544930 0.000000 
0.530556 -0.504483 0.000000 
0.532354 -0.458679 0.000000 
0.531774 -0.408172 0.000000 
-3.460923 1.989269 0.000000 
0.663989 2.156858 0.000000 
0.631675 2.129464 0.000000 
0.601833 2.105408 0.000000 
0.569607 2.082150 0.000000 
0.534059 2.060073 0.000000 
0.492599 2.038933 0.000000 
0.444403 2.020268 0.000000 
0.762807 2.102467 0.000000 
-1.708694 -0.395168 0.000000 
-1.726386 -0.354904 0.000000 
-1.761257 -0.330884 0.000000 
-1.812853 -0.323035 0.000000 
-0.690422 -0.575371 0.000000 
-0.624256 -0.593298 0.000000 
-0.561079 -0.601480 0.000000 
-0.500739 -0.602936 0.000000 
-0.445387 -0.602998 0.000000 
0.532260 -0.349089 0.000000 
0.536647 -0.279755 0.000000 
-1.881389 -0.310535 0.000000 
-0.389303 -0.600723 0.000000 
-0.340338 -0.585438 0.000000 
-0.344339 -0.531303 0.000000 
-0.358558 -0.478763 0.000000 
-0.381750 -0.437852 0.000000 
-0.406193 -0.403677 0.000000 
-0.417316 -0.372179 0.000000 
-0.428320 -0.337923 0.000000 
-0.436973 -0.293658 0.000000 
-0.444212 -0.238115 0.000000 
-0.452662 -0.179257 0.000000 
-0.468602 -0.122358 0.000000 
0.553166 -0.215041 0.000000 
0.573193 -0.157370 0.000000 
0.574450 -0.105629 0.000000 
0.561087 -0.055309 0.000000 
0.550432 0.000014 0.000000 
0.748903 2.049149 0.000000 
0.730940 1.992656 0.000000 
0.715868 1.946497 0.000000 
0.699446 1.910369 0.000000 
0.684888 1.869380 0.000000 
0.675900 1.823175 0.000000 
0.669871 1.773615 0.000000 
0.664455 1.725758 0.000000 
0.668163 1.679339 0.000000 
0.672091 1.629505 0.000000 
0.674558 1.581482 0.000000 
0.673045 1.531403 0.000000 
0.386491 2.010588 0.000000 
0.664855 1.472664 0.000000 
0.652298 1.414586 0.000000 
0.638456 1.360936 0.000000 
0.623121 1.311426 0.000000 
0.616008 1.268399 0.000000 
0.600787 1.233457 0.000000 
0.571289 1.204008 0.000000 
0.539016 1.172846 0.000000 
0.513857 1.143947 0.000000 
0.493343 1.117712 0.000000 
0.469109 1.099900 0.000000 
0.444920 1.083455 0.000000 
0.415324 1.062489 0.000000 
0.383540 1.037737 0.000000 
0.356179 1.008405 0.000000 
0.343879 0.969505 0.000000 
0.337476 0.923985 0.000000 
0.332404 0.878699 0.000000 
0.328512 0.839009 0.000000 
0.319594 0.802929 0.000000 
0.304149 0.769518 0.000000 
0.290502 0.729127 0.000000 
0.275896 0.681265 0.000000 
0.261905 0.639296 0.000000 
0.250150 0.605701 0.000000 
0.250896 0.567896 0.000000 
0.259587 0.525292 0.000000 
0.284617 0.482519 0.000000 
0.315237 0.452858 0.000000 
0.340022 0.433421 0.000000 
0.354380 0.407572 0.000000 
0.368685 0.380430 0.000000 
0.385568 0.354033 0.000000 
0.415372 0.329236 0.000000 
0.447119 0.297524 0.000000 
0.477633 0.269607 0.000000 
0.503078 0.241671 0.000000 
0.518876 0.203617 0.000000 
0.527127 0.167648 0.000000 
0.534187 0.123103 0.000000 
0.543185 0.062323 0.000000 
0.322519 1.999532 0.000000 
0.263849 1.986415 0.000000 
0.208223 1.980996 0.000000 
0.150441 1.977167 0.000000 
-0.687392 -0.502303 0.000000 
-3.327058 2.024770 0.000000 
-3.276080 1.978348 0.000000 
-3.224941 1.944761 0.000000 
-3.181728 1.915603 0.000000 
-3.135074 1.878673 0.000000 
-3.078123 1.854380 0.000000 
-1.944260 -0.265656 0.000000 
0.083204 1.982323 0.000000 
0.005786 1.976970 0.000000 
-0.071812 1.986209 0.000000 
-0.135705 2.015750 0.000000 
-0.182391 2.057356 0.000000 
-1.999041 -0.194688 0.000000 
-1.843230 -0.469197 0.000000 
-0.491126 -0.058398 0.000000 
-0.512312 0.014845 0.000000 
-0.526535 0.077677 0.000000 
-0.527935 0.139799 0.000000 
-0.524207 0.206969 0.000000 
-0.505864 0.264101 0.000000 
-0.468875 0.313313 0.000000 
-0.410369 0.342558 0.000000 
-0.354013 0.363675 0.000000 
-0.301050 0.373620 0.000000 
-0.255730 0.374393 0.000000 
-0.695595 -0.424008 0.000000 
-0.726457 -0.347126 0.000000 
-0.747352 -0.277671 0.000000 
-3.396487 1.967634 0.000000 
-3.344056 1.888246 0.000000 
-3.294256 1.844846 0.000000 
-3.248246 1.806521 0.000000 
-3.196818 1.767168 0.000000 
-3.159669 1.715858 0.000000 
-3.113281 1.669153 0.000000 
-3.056061 1.649590 0.000000 
-2.996684 1.626965 0.000000 
-2.933161 1.597349 0.000000 
-2.879064 1.561206 0.000000 
-2.813006 1.536420 0.000000 
-2.751664 1.513370 0.000000 
-2.686782 1.484047 0.000000 
-1.922020 -0.466390 0.000000 
-1.999705 -0.467889 0.000000 
-2.060018 -0.446285 0.000000 
-2.032615 -0.111298 0.000000 
-2.048550 -0.025575 0.000000 
-2.029059 0.040318 0.000000 
-2.105228 -0.389227 0.000000 
-2.154373 -0.321632 0.000000 
-2.203584 -0.267008 0.000000 
-2.237020 -0.205573 0.000000 
-2.250593 -0.140280 0.000000 
-2.270119 -0.068496 0.000000 
-2.297898 0.001814 0.000000 
-2.327118 0.063394 0.000000 
-2.346747 0.117364 0.000000 
-2.362840 0.170473 0.000000 
-2.374561 0.221518 0.000000 
-2.373128 0.273494 0.000000 
-2.334174 0.340084 0.000000 
-2.331842 0.380702 0.000000 
-2.284565 0.389461 0.000000 
-0.236368 2.106891 0.000000 
-0.299146 2.150718 0.000000 
-0.346614 2.170643 0.000000 
-0.382877 2.134140 0.000000 
-0.412447 2.105090 0.000000 
-0.433989 2.064803 0.000000 
-0.446472 2.021836 0.000000 
-0.451628 1.982518 0.000000 
-0.451047 1.944056 0.000000 
-0.449242 1.908052 0.000000 
-0.453345 1.876163 0.000000 
-0.460251 1.848469 0.000000 
-0.470304 1.819684 0.000000 
-0.475290 1.790194 0.000000 
-0.478341 1.760409 0.000000 
-0.479442 1.723673 0.000000 
-2.609147 1.470258 0.000000 
-2.517189 1.464760 0.000000 
-2.434013 1.465096 0.000000 
-2.352624 1.455065 0.000000 
-2.274410 1.435694 0.000000 
-2.204499 1.401045 0.000000 
-2.180326 1.332162 0.000000 
-2.178559 1.243626 0.000000 
-2.168273 1.153597 0.000000 
-2.159086 1.055533 0.000000 
-2.144575 0.966374 0.000000 
-2.163040 0.891157 0.000000 
-2.183612 0.817066 0.000000 
-2.172907 0.752508 0.000000 
-2.161614 0.689753 0.000000 
-2.169833 0.629641 0.000000 
-2.188987 0.567888 0.000000 
-2.218663 0.516642 0.000000 
-2.229021 0.460769 0.000000 
-2.997130 1.837583 0.000000 
-3.021908 1.739445 0.000000 
-2.902046 1.806076 0.000000 
-0.770600 -0.195078 0.000000 
-0.790096 -0.103419 0.000000 
-0.811857 -0.022711 0.000000 
-0.835807 0.055853 0.000000 
-0.859157 0.125981 0.000000 
-0.881226 0.186032 0.000000 
-0.903169 0.245383 0.000000 
-0.928196 0.309427 0.000000 
-2.785442 1.773523 0.000000 
-2.944278 1.712781 0.000000 
-2.855014 1.675635 0.000000 
-2.796189 1.615555 0.000000 
-2.651235 1.758777 0.000000 
-2.517962 1.748430 0.000000 
-2.394240 1.739267 0.000000 
-2.275192 1.731270 0.000000 
-2.180847 1.706709 0.000000 
-2.099904 1.680230 0.000000 
-2.018420 1.648990 0.000000 
-1.945469 1.653288 0.000000 
-1.885190 1.686627 0.000000 
-1.829736 1.707196 0.000000 
-1.760875 1.732427 0.000000 
-1.680504 1.760852 0.000000 
-1.617798 1.779169 0.000000 
-1.570169 1.793692 0.000000 
-1.527149 1.807882 0.000000 
-1.482581 1.820011 0.000000 
-1.433927 1.826552 0.000000 
-1.386311 1.834467 0.000000 
-1.337319 1.843197 0.000000 
-1.286363 1.850277 0.000000 
-1.235962 1.850994 0.000000 
-1.188452 1.855807 0.000000 
-1.140860 1.865258 0.000000 
-1.091558 1.864568 0.000000 
-1.038962 1.853549 0.000000 
-0.982519 1.834551 0.000000 
-0.922315 1.817809 0.000000 
-0.869867 1.807484 0.000000 
-0.827747 1.800994 0.000000 
-0.785371 1.796083 0.000000 
-0.748025 1.786346 0.000000 
-0.712781 1.776078 0.000000 
-0.681690 1.762147 0.000000 
-0.657198 1.751012 0.000000 
-0.633895 1.744349 0.000000 
-0.612002 1.739894 0.000000 
-0.594184 1.732681 0.000000 
-0.577381 1.723231 0.000000 
-0.560109 1.707947 0.000000 
-0.540091 1.675493 0.000000 
-1.243914 0.036647 0.000000 
-1.232782 0.050364 0.000000 
-1.257376 0.022294 0.000000 
-1.224378 0.069064 0.000000 
-1.271472 0.002948 0.000000 
-1.215702 0.091061 0.000000 
-1.204660 0.117117 0.000000 
-1.290143 -0.024794 0.000000 
-1.314447 -0.069834 0.000000 
-1.190204 0.147424 0.000000 
-1.318041 -0.123188 0.000000 
-1.171655 0.181580 0.000000 
-1.149359 0.217894 0.000000 
-1.123094 0.256143 0.000000 
-1.284246 -0.173167 0.000000 
-1.239750 -0.223894 0.000000 
-1.083297 0.300134 0.000000 
-1.028190 0.331805 0.000000 
-1.181630 -0.266250 0.000000 
-1.112789 -0.297678 0.000000 
-1.040643 -0.309848 0.000000 
-0.978118 -0.312934 0.000000 
-0.927392 -0.325960 0.000000 
-0.889718 -0.365095 0.000000 
-0.873564 -0.421645 0.000000 
-0.920771 -0.453839 0.000000 
-0.935346 -0.386570 0.000000 
-0.991249 -0.463415 0.000000 
-1.088918 -0.460687 0.000000 
-1.067426 -0.381035 0.000000 
-1.189474 -0.453123 0.000000 
-1.147229 -0.368368 0.000000 
-1.266509 -0.429833 0.000000 
-1.219913 -0.342190 0.000000 
-1.335307 -0.394006 0.000000 
-1.284456 -0.304191 0.000000 
-1.402357 -0.350103 0.000000 
-1.341444 -0.256390 0.000000 
-1.466758 -0.297427 0.000000 
-1.539152 -0.236628 0.000000 
-1.393011 -0.198459 0.000000 
-1.612839 -0.166357 0.000000 
-1.665320 -0.108778 0.000000 
-1.691220 -0.043952 0.000000 
-1.704696 0.041542 0.000000 
-1.850073 0.208411 0.000000 
-1.911042 0.152586 0.000000 
-1.969645 0.095750 0.000000 
-1.726970 0.147953 0.000000 
-0.222881 0.355782 0.000000 
-0.195707 0.328199 0.000000 
-0.164205 0.291252 0.000000 
-0.127520 0.258554 0.000000 
-0.095686 0.229063 0.000000 
-0.059027 0.200584 0.000000 
-0.018954 0.170601 0.000000 
0.030296 0.139330 0.000000 
0.086536 0.118804 0.000000 
0.141893 0.100073 0.000000 
0.202102 0.070793 0.000000 
0.263408 0.030876 0.000000 
0.311661 -0.019111 0.000000 
0.333954 -0.078733 0.000000 
0.338621 -0.139183 0.000000 
0.341530 -0.193122 0.000000 
0.353165 -0.243311 0.000000 
0.365710 -0.301733 0.000000 
0.363543 -0.371262 0.000000 
0.357353 -0.433377 0.000000 
0.351188 -0.484119 0.000000 
0.363842 -0.531147 0.000000 
-1.737069 -0.397798 0.000000 
-0.199590 0.408400 0.000000 
-0.156305 0.378484 0.000000 
-0.462327 1.644440 0.000000 
0.741313 2.167014 0.000000 
0.482415 -0.541918 0.000000 
0.446104 -0.549814 0.000000 
0.403556 -0.555468 0.000000 
-0.104001 0.350419 0.000000 
-0.514998 1.576494 0.000000 
-0.059937 0.316014 0.000000 
0.738519 2.141749 0.000000 
0.714572 2.154049 0.000000 
-0.249752 0.435223 0.000000 
-0.036232 0.272216 0.000000 
0.000772 0.244383 0.000000 
0.035161 0.218739 0.000000 
-1.776537 -0.397240 0.000000 
-1.836238 -0.393055 0.000000 
-0.309416 0.449323 0.000000 
-0.378944 0.447059 0.000000 
-2.292732 0.326647 0.000000 
-2.315166 0.276656 0.000000 
-2.314418 0.229099 0.000000 
-2.293418 0.182713 0.000000 
-2.279687 0.132834 0.000000 
-2.253462 0.085568 0.000000 
0.075120 0.190996 0.000000 
0.131113 0.178388 0.000000 
-0.977004 0.380372 0.000000 
-0.860050 0.370206 0.000000 
-1.912142 -0.384999 0.000000 
-1.989966 -0.393779 0.000000 
-2.023752 -0.326237 0.000000 
-2.082175 -0.254976 0.000000 
0.723889 2.110236 0.000000 
0.691466 2.129079 0.000000 
0.665980 2.096432 0.000000 
0.704783 2.069164 0.000000 
0.637970 2.058374 0.000000 
0.681732 2.021955 0.000000 
0.670916 1.975780 0.000000 
0.602858 2.026706 0.000000 
0.659584 1.935356 0.000000 
0.560783 2.000335 0.000000 
0.636111 1.899282 0.000000 
0.607495 1.849491 0.000000 
0.595324 1.786010 0.000000 
0.604052 1.721337 0.000000 
0.514160 1.970932 0.000000 
0.453857 1.943487 0.000000 
0.392525 1.941508 0.000000 
0.334098 1.939980 0.000000 
0.278675 1.921226 0.000000 
0.217273 1.903151 0.000000 
0.149449 1.885795 0.000000 
0.614128 1.669061 0.000000 
0.621313 1.621482 0.000000 
0.624262 1.576602 0.000000 
-2.197766 0.032380 0.000000 
-2.158682 -0.042544 0.000000 
-2.124695 0.091710 0.000000 
-2.150589 -0.208670 0.000000 
-2.141926 -0.131124 0.000000 
-0.393439 -0.547684 0.000000 
-0.412631 -0.503641 0.000000 
-0.436983 -0.463038 0.000000 
-0.445953 -0.419618 0.000000 
-0.458251 -0.386792 0.000000 
-0.479726 -0.352026 0.000000 
-0.496934 -0.303295 0.000000 
-0.509002 -0.248211 0.000000 
-0.517157 -0.193881 0.000000 
-0.545309 -0.142606 0.000000 
-0.442273 -0.545079 0.000000 
-0.496002 -0.535562 0.000000 
-0.557668 -0.537668 0.000000 
-0.618975 -0.522188 0.000000 
-0.334659 2.108830 0.000000 
-0.367985 2.079113 0.000000 
-0.385153 2.042687 0.000000 
-0.396797 2.008820 0.000000 
-0.406285 1.973298 0.000000 
-0.402558 1.934165 0.000000 
-0.406645 1.895721 0.000000 
-0.418378 1.863307 0.000000 
-0.428059 1.834181 0.000000 
-0.435849 1.804634 0.000000 
-0.442335 1.774599 0.000000 
-0.445406 1.741534 0.000000 
-0.444483 1.695818 0.000000 
0.619822 1.530870 0.000000 
-1.077870 0.427435 0.000000 
-1.149036 0.385477 0.000000 
-1.174735 0.310634 0.000000 
-1.192231 0.258911 0.000000 
-1.210811 0.217134 0.000000 
-1.228352 0.177795 0.000000 
-1.238869 0.139814 0.000000 
-1.244643 0.108317 0.000000 
-1.248534 0.083416 0.000000 
-1.252336 0.064128 0.000000 
-1.262323 0.050877 0.000000 
-1.280319 0.039961 0.000000 
-0.451814 0.424399 0.000000 
-0.526928 0.380877 0.000000 
0.194935 0.161396 0.000000 
0.069048 1.871695 0.000000 
-0.574175 0.310193 0.000000 
-0.593607 0.229090 0.000000 
-1.764101 0.268775 0.000000 
-2.210991 0.387631 0.000000 
-0.825996 0.284929 0.000000 
-0.799223 0.213849 0.000000 
-0.760911 0.147415 0.000000 
0.605964 1.479919 0.000000 
0.587834 1.422559 0.000000 
0.576354 1.362710 0.000000 
0.574971 1.307702 0.000000 
0.580375 1.264677 0.000000 
0.545179 1.242293 0.000000 
0.509957 1.210031 0.000000 
0.484198 1.173628 0.000000 
0.468721 1.142474 0.000000 
0.449386 1.123943 0.000000 
0.422962 1.111277 0.000000 
0.391379 1.092126 0.000000 
0.357154 1.068063 0.000000 
0.323730 1.039691 0.000000 
-0.582151 -0.081738 0.000000 
0.265957 0.134966 0.000000 
0.333763 0.088837 0.000000 
0.378371 0.021821 0.000000 
0.400918 -0.052574 0.000000 
0.401084 -0.115563 0.000000 
0.404345 -0.169664 0.000000 
0.432648 -0.220746 0.000000 
0.450030 -0.285187 0.000000 
0.529803 -0.132033 0.000000 
0.491947 -0.180171 0.000000 
0.453243 -0.130287 0.000000 
0.449550 -0.359511 0.000000 
0.498420 -0.086160 0.000000 
0.474171 -0.026219 0.000000 
0.457863 0.048355 0.000000 
0.462195 -0.418165 0.000000 
0.478704 -0.464501 0.000000 
0.483460 -0.505467 0.000000 
0.412910 -0.443807 0.000000 
0.398390 -0.482520 0.000000 
0.404290 -0.516807 0.000000 
0.442452 -0.512249 0.000000 
0.436659 -0.477085 0.000000 
-0.727378 0.073282 0.000000 
-0.616071 0.155300 0.000000 
-0.623548 0.081020 0.000000 
-0.605779 0.000012 0.000000 
-0.706340 -0.012436 0.000000 
-0.681483 -0.098698 0.000000 
-0.032304 1.866135 0.000000 
-0.128010 1.902284 0.000000 
-0.195732 1.969408 0.000000 
-0.243911 2.023322 0.000000 
-0.287859 2.070726 0.000000 
-0.335518 2.043030 0.000000 
-0.667608 -0.184079 0.000000 
-0.584906 -0.190847 0.000000 
-0.658169 -0.264087 0.000000 
-0.578442 -0.256217 0.000000 
-0.639050 -0.335530 0.000000 
-0.607982 -0.411047 0.000000 
-0.562541 -0.318916 0.000000 
-0.536184 -0.379940 0.000000 
-0.495978 -0.417901 0.000000 
-0.500680 -0.470296 0.000000 
-0.573051 -0.474749 0.000000 
-2.690892 1.639429 0.000000 
-2.684799 1.553416 0.000000 
-2.602920 1.552154 0.000000 
-2.574381 1.637147 0.000000 
-2.518122 1.572021 0.000000 
-2.424460 1.595919 0.000000 
-2.320006 1.586988 0.000000 
-2.229986 1.563370 0.000000 
-2.146342 1.522130 0.000000 
-1.455055 -0.139478 0.000000 
-1.387692 -0.059154 0.000000 
-1.339496 -0.005826 0.000000 
-1.304977 0.022734 0.000000 
-1.531301 -0.073985 0.000000 
-1.604385 -0.029873 0.000000 
-1.592423 0.070808 0.000000 
-1.608296 0.194771 0.000000 
-1.827918 0.393216 0.000000 
0.477873 0.162020 0.000000 
0.477147 0.196918 0.000000 
0.465631 0.231158 0.000000 
-0.587742 1.675368 0.000000 
-0.593403 1.699471 0.000000 
-0.604579 1.712127 0.000000 
-0.619289 1.717813 0.000000 
-0.639577 1.715640 0.000000 
-0.665912 1.717256 0.000000 
-0.697937 1.724243 0.000000 
-0.595692 1.621879 0.000000 
-0.726123 1.739054 0.000000 
-0.757398 1.749625 0.000000 
-0.794522 1.747049 0.000000 
-0.841416 1.744472 0.000000 
-0.894922 1.745832 0.000000 
-0.956071 1.754248 0.000000 
-1.020951 1.773169 0.000000 
-1.077937 1.800804 0.000000 
-1.120258 1.829532 0.000000 
-1.171769 1.805272 0.000000 
0.332207 0.358663 0.000000 
0.333662 0.316928 0.000000 
0.321472 0.387280 0.000000 
0.302407 0.414093 0.000000 
0.214022 0.428755 0.000000 
0.194081 0.489779 0.000000 
0.186716 0.545292 0.000000 
0.189303 0.598064 0.000000 
0.360023 0.277246 0.000000 
0.405131 0.252113 0.000000 
0.201671 0.647310 0.000000 
0.218038 0.697571 0.000000 
0.236652 0.746505 0.000000 
0.256885 0.788438 0.000000 
0.278373 0.816933 0.000000 
0.284019 0.850331 0.000000 
0.276718 0.897078 0.000000 
0.278735 0.953891 0.000000 
0.296322 1.004158 0.000000 
-1.507867 1.757030 0.000000 
-1.548116 1.732388 0.000000 
-1.598023 1.705008 0.000000 
-1.467251 1.771804 0.000000 
-1.422160 1.779087 0.000000 
-1.373311 1.785803 0.000000 
-1.322903 1.793580 0.000000 
-1.275577 1.802826 0.000000 
-1.225048 1.801426 0.000000 
-1.662214 1.681339 0.000000 
-1.732600 1.661399 0.000000 
-1.794687 1.647024 0.000000 
-1.841773 1.617836 0.000000 
-2.078405 0.685109 0.000000 
-2.079214 0.763698 0.000000 
-2.097651 0.607509 0.000000 
-2.129318 0.535770 0.000000 
-2.096743 0.844261 0.000000 
-2.169699 0.480427 0.000000 
-1.991686 0.407426 0.000000 
-1.642187 0.332982 0.000000 
-1.989898 0.240202 0.000000 
-2.064526 0.168389 0.000000 
-1.914688 0.313736 0.000000 
-2.037969 1.096813 0.000000 
-2.021377 0.981128 0.000000 
-2.055796 1.225975 0.000000 
-2.102728 1.328628 0.000000 
-2.047875 1.470930 0.000000 
0.428030 0.217661 0.000000 
0.375625 0.196425 0.000000 
0.313454 0.209526 0.000000 
0.290352 0.355560 0.000000 
0.238487 1.066478 0.000000 
0.440631 0.179553 0.000000 
0.396678 0.139776 0.000000 
0.460488 0.113856 0.000000 
0.523747 1.289968 0.000000 
-2.262588 0.253222 0.000000 
-2.220468 0.309250 0.000000 
-2.218579 0.199711 0.000000 
-2.146376 0.251561 0.000000 
-2.206503 0.134641 0.000000 
0.473879 1.251356 0.000000 
0.446488 1.199024 0.000000 
0.440978 1.155006 0.000000 
0.409581 1.147150 0.000000 
0.629179 1.976046 0.000000 
0.593839 1.943573 0.000000 
0.550362 1.899369 0.000000 
0.483841 1.858946 0.000000 
0.202470 1.000114 0.000000 
0.241245 0.852338 0.000000 
0.205152 0.827537 0.000000 
0.175878 0.779397 0.000000 
0.153326 0.720891 0.000000 
0.132079 0.660441 0.000000 
0.113278 0.595985 0.000000 
0.106000 0.527662 0.000000 
0.109640 0.458465 0.000000 
0.121648 0.387787 0.000000 
0.032483 0.298173 0.000000 
0.246820 0.380851 0.000000 
0.099619 0.246538 0.000000 
0.373127 1.132268 0.000000 
-0.307911 1.995408 0.000000 
-0.360136 1.976939 0.000000 
-0.343252 1.922593 0.000000 
-0.270247 1.930737 0.000000 
0.168337 0.243057 0.000000 
0.242346 0.232719 0.000000 
0.270369 0.301756 0.000000 
0.505525 1.357729 0.000000 
-0.689828 0.184984 0.000000 
-0.729540 0.242388 0.000000 
-0.746154 0.316861 0.000000 
-0.657668 0.333425 0.000000 
-0.661195 0.249138 0.000000 
-0.924642 0.486101 0.000000 
-1.137284 1.749464 0.000000 
-1.072920 1.704870 0.000000 
-1.248127 1.761761 0.000000 
-1.304069 1.745439 0.000000 
-1.360197 1.737778 0.000000 
-1.411221 1.733639 0.000000 
-1.453165 1.730409 0.000000 
-1.486003 1.712947 0.000000 
-1.510814 1.669478 0.000000 
-1.558800 1.624809 0.000000 
-0.995058 1.678117 0.000000 
-0.919611 1.667641 0.000000 
-0.852227 1.674573 0.000000 
-0.796966 1.691091 0.000000 
-0.752732 1.710260 0.000000 
-1.635591 1.597476 0.000000 
-1.992480 0.872178 0.000000 
-1.965104 0.762398 0.000000 
-1.974377 0.659065 0.000000 
-2.014368 0.565444 0.000000 
-2.065453 0.482258 0.000000 
-2.071492 0.329191 0.000000 
-2.131272 0.412727 0.000000 
-1.712039 1.584153 0.000000 
-1.781280 1.584104 0.000000 
-1.884796 1.554047 0.000000 
0.516332 1.773709 0.000000 
0.538779 1.702581 0.000000 
0.517174 1.432115 0.000000 
0.552532 1.494051 0.000000 
0.576896 1.535977 0.000000 
0.583356 1.573004 0.000000 
0.576083 1.610008 0.000000 
0.562288 1.652368 0.000000 