# vtk DataFile Version 3.0 
vtk output 
ASCII 
DATASET UNSTRUCTURED_GRID 
POINTS 899 float 
-3.648847 2.285335 0.000000 
-3.619410 2.244783 0.000000 
-3.578536 2.209188 0.000000 
-3.540028 2.173537 0.000000 
-3.511690 2.141342 0.000000 
-3.481362 2.111484 0.000000 
-3.451569 2.070810 0.000000 
0.772356 2.187849 0.000000 
0.774615 2.161728 0.000000 
0.769962 2.132974 0.000000 
-3.399514 2.040534 0.000000 
0.413960 -0.604308 0.000000 
0.455573 -0.600005 0.000000 
-1.762619 -0.504203 0.000000 
-1.783389 -0.468807 0.000000 
-1.714437 -0.440018 0.000000 
0.732567 2.182173 0.000000 
0.698438 2.168337 0.000000 
0.491831 -0.585802 0.000000 
0.519501 -0.555397 0.000000 
0.530556 -0.514951 0.000000 
0.532354 -0.469146 0.000000 
0.531774 -0.418640 0.000000 
-3.460923 1.978801 0.000000 
0.663989 2.146391 0.000000 
0.631675 2.118996 0.000000 
0.601833 2.094941 0.000000 
0.569607 2.071683 0.000000 
0.534059 2.049606 0.000000 
0.492599 2.028466 0.000000 
0.444403 2.009801 0.000000 
0.762807 2.091999 0.000000 
-1.708694 -0.405635 0.000000 
-1.726386 -0.365372 0.000000 
-1.761257 -0.341351 0.000000 
-1.812853 -0.333503 0.000000 
-0.690422 -0.585838 0.000000 
-0.624256 -0.603766 0.000000 
-0.561079 -0.611947 0.000000 
-0.500739 -0.613403 0.000000 
-0.445387 -0.613465 0.000000 
0.532260 -0.359556 0.000000 
0.536647 -0.290223 0.000000 
-1.881389 -0.321002 0.000000 
-0.389303 -0.611191 0.000000 
-0.340338 -0.595905 0.000000 
-0.344339 -0.541770 0.000000 
-0.358558 -0.489231 0.000000 
-0.381750 -0.448319 0.000000 
-0.406193 -0.414145 0.000000 
-0.417316 -0.382647 0.000000 
-0.428320 -0.348390 0.000000 
-0.436973 -0.304125 0.000000 
-0.444212 -0.248583 0.000000 
-0.452662 -0.189724 0.000000 
-0.468602 -0.132825 0.000000 
0.553166 -0.225508 0.000000 
0.573193 -0.167837 0.000000 
0.574450 -0.116096 0.000000 
0.561087 -0.065777 0.000000 
0.550432 -0.010453 0.000000 
0.748903 2.038681 0.000000 
0.730940 1.982189 0.000000 
0.715868 1.936030 0.000000 
0.699446 1.899902 0.000000 
0.684888 1.858912 0.000000 
0.675900 1.812708 0.000000 
0.669871 1.763148 0.000000 
0.664455 1.715291 0.000000 
0.668163 1.668872 0.000000 
0.672091 1.619038 0.000000 
0.674558 1.571015 0.000000 
0.673045 1.520935 0.000000 
0.386491 2.000121 0.000000 
0.664855 1.462196 0.000000 
0.652298 1.404119 0.000000 
0.638456 1.350469 0.000000 
0.623121 1.300959 0.000000 
0.616008 1.257932 0.000000 
0.600787 1.222989 0.000000 
0.571289 1.193540 0.000000 
0.539016 1.162379 0.000000 
0.513857 1.133480 0.000000 
0.493343 1.107245 0.000000 
0.469109 1.089432 0.000000 
0.444920 1.072988 0.000000 
0.415324 1.052022 0.000000 
0.383540 1.027270 0.000000 
0.356179 0.997938 0.000000 
0.343879 0.959038 0.000000 
0.337476 0.913518 0.000000 
0.332404 0.868231 0.000000 
0.328512 0.828541 0.000000 
0.319594 0.792462 0.000000 
0.304149 0.759051 0.000000 
0.290502 0.718660 0.000000 
0.275896 0.670798 0.000000 
0.261905 0.628828 0.000000 
0.250150 0.595233 0.000000 
0.250896 0.557428 0.000000 
0.259587 0.514825 0.000000 
0.284617 0.472052 0.000000 
0.315237 0.442390 0.000000 
0.340022 0.422954 0.000000 
0.354380 0.397105 0.000000 
0.368685 0.369962 0.000000 
0.385568 0.343566 0.000000 
0.415372 0.318769 0.000000 
0.447119 0.287057 0.000000 
0.477633 0.259140 0.000000 
0.503078 0.231204 0.000000 
0.518876 0.193149 0.000000 
0.527127 0.157181 0.000000 
0.534187 0.112636 0.000000 
0.543185 0.051855 0.000000 
0.322519 1.989065 0.000000 
0.263849 1.975948 0.000000 
0.208223 1.970528 0.000000 
0.150441 1.966700 0.000000 
-0.687392 -0.512771 0.000000 
-3.327058 2.014302 0.000000 
-3.276080 1.967881 0.000000 
-3.224941 1.934294 0.000000 
-3.181728 1.905136 0.000000 
-3.135074 1.868206 0.000000 
-3.078123 1.843913 0.000000 
-1.944260 -0.276124 0.000000 
0.083204 1.971856 0.000000 
0.005786 1.966503 0.000000 
-0.071812 1.975741 0.000000 
-0.135705 2.005283 0.000000 
-0.182391 2.046888 0.000000 
-1.999041 -0.205155 0.000000 
-1.843230 -0.479664 0.000000 
-0.491126 -0.068865 0.000000 
-0.512312 0.004378 0.000000 
-0.526535 0.067210 0.000000 
-0.527935 0.129332 0.000000 
-0.524207 0.196502 0.000000 
-0.505864 0.253634 0.000000 
-0.468875 0.302846 0.000000 
-0.410369 0.332091 0.000000 
-0.354013 0.353208 0.000000 
-0.301050 0.363153 0.000000 
-0.255730 0.363926 0.000000 
-0.695595 -0.434475 0.000000 
-0.726457 -0.357594 0.000000 
-0.747352 -0.288138 0.000000 
-3.396487 1.957167 0.000000 
-3.344056 1.877779 0.000000 
-3.294256 1.834378 0.000000 
-3.248246 1.796054 0.000000 
-3.196818 1.756700 0.000000 
-3.159669 1.705390 0.000000 
-3.113281 1.658686 0.000000 
-3.056061 1.639122 0.000000 
-2.996684 1.616498 0.000000 
-2.933161 1.586881 0.000000 
-2.879064 1.550738 0.000000 
-2.813006 1.525953 0.000000 
-2.751664 1.502903 0.000000 
-2.686782 1.473580 0.000000 
-1.922020 -0.476857 0.000000 
-1.999705 -0.478356 0.000000 
-2.060018 -0.456752 0.000000 
-2.032615 -0.121765 0.000000 
-2.048550 -0.036043 0.000000 
-2.029059 0.029850 0.000000 
-2.105228 -0.399694 0.000000 
-2.154373 -0.332099 0.000000 
-2.203584 -0.277475 0.000000 
-2.237020 -0.216040 0.000000 
-2.250593 -0.150747 0.000000 
-2.270119 -0.078963 0.000000 
-2.297898 -0.008653 0.000000 
-2.327118 0.052927 0.000000 
-2.346747 0.106897 0.000000 
-2.362840 0.160006 0.000000 
-2.374561 0.211051 0.000000 
-2.373128 0.263026 0.000000 
-2.334174 0.329617 0.000000 
-2.331842 0.370235 0.000000 
-2.284565 0.378993 0.000000 
-0.236368 2.096424 0.000000 
-0.299146 2.140251 0.000000 
-0.346614 2.160176 0.000000 
-0.382877 2.123673 0.000000 
-0.412447 2.094623 0.000000 
-0.433989 2.054335 0.000000 
-0.446472 2.011369 0.000000 
-0.451628 1.972051 0.000000 
-0.451047 1.933588 0.000000 
-0.449242 1.897585 0.000000 
-0.453345 1.865695 0.000000 
-0.460251 1.838002 0.000000 
-0.470304 1.809217 0.000000 
-0.475290 1.779727 0.000000 
-0.478341 1.749941 0.000000 
-0.479442 1.713205 0.000000 
-2.609147 1.459791 0.000000 
-2.517189 1.454292 0.000000 
-2.434013 1.454629 0.000000 
-2.352624 1.444597 0.000000 
-2.274410 1.425226 0.000000 
-2.204499 1.390578 0.000000 
-2.180326 1.321695 0.000000 
-2.178559 1.233159 0.000000 
-2.168273 1.143130 0.000000 
-2.159086 1.045066 0.000000 
-2.144575 0.955907 0.000000 
-2.163040 0.880690 0.000000 
-2.183612 0.806598 0.000000 
-2.172907 0.742041 0.000000 
-2.161614 0.679286 0.000000 
-2.169833 0.619174 0.000000 
-2.188987 0.557420 0.000000 
-2.218663 0.506175 0.000000 
-2.229021 0.450302 0.000000 
-2.997130 1.827116 0.000000 
-3.021908 1.728978 0.000000 
-2.902046 1.795609 0.000000 
-0.770600 -0.205545 0.000000 
-0.790096 -0.113886 0.000000 
-0.811857 -0.033178 0.000000 
-0.835807 0.045386 0.000000 
-0.859157 0.115514 0.000000 
-0.881226 0.175565 0.000000 
-0.903169 0.234916 0.000000 
-0.928196 0.298960 0.000000 
-2.785442 1.763055 0.000000 
-2.944278 1.702314 0.000000 
-2.855014 1.665168 0.000000 
-2.796189 1.605088 0.000000 
-2.651235 1.748309 0.000000 
-2.517962 1.737962 0.000000 
-2.394240 1.728799 0.000000 
-2.275192 1.720803 0.000000 
-2.180847 1.696242 0.000000 
-2.099904 1.669762 0.000000 
-2.018420 1.638523 0.000000 
-1.945469 1.642820 0.000000 
-1.885190 1.676160 0.000000 
-1.829736 1.696729 0.000000 
-1.760875 1.721960 0.000000 
-1.680504 1.750385 0.000000 
-1.617798 1.768702 0.000000 
-1.570169 1.783225 0.000000 
-1.527149 1.797415 0.000000 
-1.482581 1.809544 0.000000 
-1.433927 1.816085 0.000000 
-1.386311 1.824000 0.000000 
-1.337319 1.832730 0.000000 
-1.286363 1.839810 0.000000 
-1.235962 1.840527 0.000000 
-1.188452 1.845340 0.000000 
-1.140860 1.854791 0.000000 
-1.091558 1.854100 0.000000 
-1.038962 1.843082 0.000000 
-0.982519 1.824084 0.000000 
-0.922315 1.807342 0.000000 
-0.869867 1.797017 0.000000 
-0.827747 1.790527 0.000000 
-0.785371 1.785615 0.000000 
-0.748025 1.775878 0.000000 
-0.712781 1.765611 0.000000 
-0.681690 1.751679 0.000000 
-0.657198 1.740545 0.000000 
-0.633895 1.733882 0.000000 
-0.612002 1.729427 0.000000 
-0.594184 1.722214 0.000000 
-0.577381 1.712764 0.000000 
-0.560109 1.697480 0.000000 
-0.540091 1.665026 0.000000 
-1.243914 0.026180 0.000000 
-1.232782 0.039897 0.000000 
-1.257376 0.011826 0.000000 
-1.224378 0.058597 0.000000 
-1.271472 -0.007519 0.000000 
-1.215702 0.080594 0.000000 
-1.204660 0.106650 0.000000 
-1.290143 -0.035261 0.000000 
-1.314447 -0.080301 0.000000 
-1.190204 0.136957 0.000000 
-1.318041 -0.133655 0.000000 
-1.171655 0.171113 0.000000 
-1.149359 0.207427 0.000000 
-1.123094 0.245676 0.000000 
-1.284246 -0.183635 0.000000 
-1.239750 -0.234361 0.000000 
-1.083297 0.289667 0.000000 
-1.028190 0.321338 0.000000 
-1.181630 -0.276717 0.000000 
-1.112789 -0.308145 0.000000 
-1.040643 -0.320315 0.000000 
-0.978118 -0.323402 0.000000 
-0.927392 -0.336427 0.000000 
-0.889718 -0.375562 0.000000 
-0.873564 -0.432112 0.000000 
-0.920771 -0.464306 0.000000 
-0.935346 -0.397038 0.000000 
-0.991249 -0.473882 0.000000 
-1.088918 -0.471154 0.000000 
-1.067426 -0.391502 0.000000 
-1.189474 -0.463591 0.000000 
-1.147229 -0.378835 0.000000 
-1.266509 -0.440301 0.000000 
-1.219913 -0.352657 0.000000 
-1.335307 -0.404474 0.000000 
-1.284456 -0.314658 0.000000 
-1.402357 -0.360570 0.000000 
-1.341444 -0.266858 0.000000 
-1.466758 -0.307895 0.000000 
-1.539152 -0.247095 0.000000 
-1.393011 -0.208927 0.000000 
-1.612839 -0.176824 0.000000 
-1.665320 -0.119246 0.000000 
-1.691220 -0.054419 0.000000 
-1.704696 0.031075 0.000000 
-1.850073 0.197944 0.000000 
-1.911042 0.142119 0.000000 
-1.969645 0.085282 0.000000 
-1.726970 0.137485 0.000000 
-0.222881 0.345315 0.000000 
-0.195707 0.317732 0.000000 
-0.164205 0.280785 0.000000 
-0.127520 0.248087 0.000000 
-0.095686 0.218595 0.000000 
-0.059027 0.190117 0.000000 
-0.018954 0.160134 0.000000 
0.030296 0.128863 0.000000 
0.086536 0.108337 0.000000 
0.141893 0.089606 0.000000 
0.202102 0.060326 0.000000 
0.263408 0.020409 0.000000 
0.311661 -0.029578 0.000000 
0.333954 -0.089200 0.000000 
0.338621 -0.149651 0.000000 
0.341530 -0.203589 0.000000 
0.353165 -0.253778 0.000000 
0.365710 -0.312201 0.000000 
0.363543 -0.381729 0.000000 
[...]
POINT_DATA 899 
VECTORS X_GC float 
-3.648847 2.285335 0.000000 
-3.619410 2.244783 0.000000 
-3.578536 2.209188 0.000000 
-3.540028 2.173537 0.000000 
-3.511690 2.141342 0.000000 
-3.481362 2.111484 0.000000 
-3.451569 2.070810 0.000000 
0.772356 2.187849 0.000000 
0.774615 2.161728 0.000000 
0.769962 2.132974 0.000000 
-3.399514 2.040534 0.000000 
0.413960 -0.604308 0.000000 
0.455573 -0.600005 0.000000 
-1.762619 -0.504203 0.000000 
-1.783389 -0.468807 0.000000 
-1.714437 -0.440018 0.000000 
0.732567 2.182173 0.000000 
0.698438 2.168337 0.000000 
0.491831 -0.585802 0.000000 
0.519501 -0.555397 0.000000 
0.530556 -0.514951 0.000000 
0.532354 -0.469146 0.000000 
0.531774 -0.418640 0.000000 
-3.460923 1.978801 0.000000 
0.663989 2.146391 0.000000 
0.631675 2.118996 0.000000 
0.601833 2.094941 0.000000 
0.569607 2.071683 0.000000 
0.534059 2.049606 0.000000 
0.492599 2.028466 0.000000 
0.444403 2.009801 0.000000 
0.762807 2.091999 0.000000 
-1.708694 -0.405635 0.000000 
-1.726386 -0.365372 0.000000 
-1.761257 -0.341351 0.000000 
-1.812853 -0.333503 0.000000 
-0.690422 -0.585838 0.000000 
-0.624256 -0.603766 0.000000 
-0.561079 -0.611947 0.000000 
-0.500739 -0.613403 0.000000 
-0.445387 -0.613465 0.000000 
0.532260 -0.359556 0.000000 
0.536647 -0.290223 0.000000 
-1.881389 -0.321002 0.000000 
-0.389303 -0.611191 0.000000 
-0.340338 -0.595905 0.000000 
-0.344339 -0.541770 0.000000 
-0.358558 -0.489231 0.000000 
-0.381750 -0.448319 0.000000 
-0.406193 -0.414145 0.000000 
-0.417316 -0.382647 0.000000 
-0.428320 -0.348390 0.000000 
-0.436973 -0.304125 0.000000 
-0.444212 -0.248583 0.000000 
-0.452662 -0.189724 0.000000 
-0.468602 -0.132825 0.000000 
0.553166 -0.225508 0.000000 
0.573193 -0.167837 0.000000 
0.574450 -0.116096 0.000000 
0.561087 -0.065777 0.000000 
0.550432 -0.010453 0.000000 
0.748903 2.038681 0.000000 
0.730940 1.982189 0.000000 
0.715868 1.936030 0.000000 
0.699446 1.899902 0.000000 
0.684888 1.858912 0.000000 
0.675900 1.812708 0.000000 
0.669871 1.763148 0.000000 
0.664455 1.715291 0.000000 
0.668163 1.668872 0.000000 
0.672091 1.619038 0.000000 
0.674558 1.571015 0.000000 
0.673045 1.520935 0.000000 
0.386491 2.000121 0.000000 
0.664855 1.462196 0.000000 
0.652298 1.404119 0.000000 
0.638456 1.350469 0.000000 
0.623121 1.300959 0.000000 
0.616008 1.257932 0.000000 
0.600787 1.222989 0.000000 
0.571289 1.193540 0.000000 
0.539016 1.162379 0.000000 
0.513857 1.133480 0.000000 
0.493343 1.107245 0.000000 
0.469109 1.089432 0.000000 
0.444920 1.072988 0.000000 
0.415324 1.052022 0.000000 
0.383540 1.027270 0.000000 
0.356179 0.997938 0.000000 
0.343879 0.959038 0.000000 
0.337476 0.913518 0.000000 
0.332404 0.868231 0.000000 
0.328512 0.828541 0.000000 
0.319594 0.792462 0.000000 
0.304149 0.759051 0.000000 
0.290502 0.718660 0.000000 
0.275896 0.670798 0.000000 
0.261905 0.628828 0.000000 
0.250150 0.595233 0.000000 
0.250896 0.557428 0.000000 
0.259587 0.514825 0.000000 
0.284617 0.472052 0.000000 
0.315237 0.442390 0.000000 
0.340022 0.422954 0.000000 
0.354380 0.397105 0.000000 
0.368685 0.369962 0.000000 
0.385568 0.343566 0.000000 
0.415372 0.318769 0.000000 
0.447119 0.287057 0.000000 
0.477633 0.259140 0.000000 
0.503078 0.231204 0.000000 
0.518876 0.193149 0.000000 
0.527127 0.157181 0.000000 
0.534187 0.112636 0.000000 
0.543185 0.051855 0.000000 
0.322519 1.989065 0.000000 
0.263849 1.975948 0.000000 
0.208223 1.970528 0.000000 
0.150441 1.966700 0.000000 
-0.687392 -0.512771 0.000000 
-3.327058 2.014302 0.000000 
-3.276080 1.967881 0.000000 
-3.224941 1.934294 0.000000 
-3.181728 1.905136 0.000000 
-3.135074 1.868206 0.000000 
-3.078123 1.843913 0.000000 
-1.944260 -0.276124 0.000000 
0.083204 1.971856 0.000000 
0.005786 1.966503 0.000000 
-0.071812 1.975741 0.000000 
-0.135705 2.005283 0.000000 
-0.182391 2.046888 0.000000 
-1.999041 -0.205155 0.000000 
-1.843230 -0.479664 0.000000 
-0.491126 -0.068865 0.000000 
-0.512312 0.004378 0.000000 
-0.526535 0.067210 0.000000 
-0.527935 0.129332 0.000000 
-0.524207 0.196502 0.000000 
-0.505864 0.253634 0.000000 
-0.468875 0.302846 0.000000 
-0.410369 0.332091 0.000000 
-0.354013 0.353208 0.000000 
-0.301050 0.363153 0.000000 
-0.255730 0.363926 0.000000 
-0.695595 -0.434475 0.000000 
-0.726457 -0.357594 0.000000 
-0.747352 -0.288138 0.000000 
-3.396487 1.957167 0.000000 
-3.344056 1.877779 0.000000 
-3.294256 1.834378 0.000000 
-3.248246 1.796054 0.000000 
-3.196818 1.756700 0.000000 
-3.159669 1.705390 0.000000 
-3.113281 1.658686 0.000000 
-3.056061 1.639122 0.000000 
-2.996684 1.616498 0.000000 
-2.933161 1.586881 0.000000 
-2.879064 1.550738 0.000000 
-2.813006 1.525953 0.000000 
-2.751664 1.502903 0.000000 
-2.686782 1.473580 0.000000 
-1.922020 -0.476857 0.000000 
-1.999705 -0.478356 0.000000 
-2.060018 -0.456752 0.000000 
-2.032615 -0.121765 0.000000 
-2.048550 -0.036043 0.000000 
-2.029059 0.029850 0.000000 
-2.105228 -0.399694 0.000000 
-2.154373 -0.332099 0.000000 
-2.203584 -0.277475 0.000000 
-2.237020 -0.216040 0.000000 
-2.250593 -0.150747 0.000000 
-2.270119 -0.078963 0.000000 
-2.297898 -0.008653 0.000000 
-2.327118 0.052927 0.000000 
-2.346747 0.106897 0.000000 
-2.362840 0.160006 0.000000 
-2.374561 0.211051 0.000000 
-2.373128 0.263026 0.000000 
-2.334174 0.329617 0.000000 
-2.331842 0.370235 0.000000 
-2.284565 0.378993 0.000000 
-0.236368 2.096424 0.000000 
-0.299146 2.140251 0.000000 
-0.346614 2.160176 0.000000 
-0.382877 2.123673 0.000000 
-0.412447 2.094623 0.000000 
-0.433989 2.054335 0.000000 
-0.446472 2.011369 0.000000 
-0.451628 1.972051 0.000000 
-0.451047 1.933588 0.000000 
-0.449242 1.897585 0.000000 
-0.453345 1.865695 0.000000 
-0.460251 1.838002 0.000000 
-0.470304 1.809217 0.000000 
-0.475290 1.779727 0.000000 
-0.478341 1.749941 0.000000 
-0.479442 1.713205 0.000000 
-2.609147 1.459791 0.000000 
-2.517189 1.454292 0.000000 
-2.434013 1.454629 0.000000 
-2.352624 1.444597 0.000000 
-2.274410 1.425226 0.000000 
-2.204499 1.390578 0.000000 
-2.180326 1.321695 0.000000 
-2.178559 1.233159 0.000000 
-2.168273 1.143130 0.000000 
-2.159086 1.045066 0.000000 
-2.144575 0.955907 0.000000 
-2.163040 0.880690 0.000000 
-2.183612 0.806598 0.000000 
-2.172907 0.742041 0.000000 
-2.161614 0.679286 0.000000 
-2.169833 0.619174 0.000000 
-2.188987 0.557420 0.000000 
-2.218663 0.506175 0.000000 
-2.229021 0.450302 0.000000 
-2.997130 1.827116 0.000000 
-3.021908 1.728978 0.000000 
-2.902046 1.795609 0.000000 
-0.770600 -0.205545 0.000000 
-0.790096 -0.113886 0.000000 
-0.811857 -0.033178 0.000000 
-0.835807 0.045386 0.000000 
-0.859157 0.115514 0.000000 
-0.881226 0.175565 0.000000 
-0.903169 0.234916 0.000000 
-0.928196 0.298960 0.000000 
-2.785442 1.763055 0.000000 
-2.944278 1.702314 0.000000 
-2.855014 1.665168 0.000000 
-2.796189 1.605088 0.000000 
-2.651235 1.748309 0.000000 
-2.517962 1.737962 0.000000 
-2.394240 1.728799 0.000000 
-2.275192 1.720803 0.000000 
-2.180847 1.696242 0.000000 
-2.099904 1.669762 0.000000 
-2.018420 1.638523 0.000000 
-1.945469 1.642820 0.000000 
-1.885190 1.676160 0.000000 
-1.829736 1.696729 0.000000 
-1.760875 1.721960 0.000000 
-1.680504 1.750385 0.000000 
-1.617798 1.768702 0.000000 
-1.570169 1.783225 0.000000 
-1.527149 1.797415 0.000000 
-1.482581 1.809544 0.000000 
-1.433927 1.816085 0.000000 
-1.386311 1.824000 0.000000 
-1.337319 1.832730 0.000000 
-1.286363 1.839810 0.000000 
-1.235962 1.840527 0.000000 
-1.188452 1.845340 0.000000 
-1.140860 1.854791 0.000000 
-1.091558 1.854100 0.000000 
-1.038962 1.843082 0.000000 
-0.982519 1.824084 0.000000 
-0.922315 1.807342 0.000000 
-0.869867 1.797017 0.000000 
-0.827747 1.790527 0.000000 
-0.785371 1.785615 0.000000 
-0.748025 1.775878 0.000000 
-0.712781 1.765611 0.000000 
-0.681690 1.751679 0.000000 
-0.657198 1.740545 0.000000 
-0.633895 1.733882 0.000000 
-0.612002 1.729427 0.000000 
-0.594184 1.722214 0.000000 
-0.577381 1.712764 0.000000 
-0.560109 1.697480 0.000000 
-0.540091 1.665026 0.000000 
-1.243914 0.026180 0.000000 
-1.232782 0.039897 0.000000 
-1.257376 0.011826 0.000000 
-1.224378 0.058597 0.000000 
-1.271472 -0.007519 0.000000 
-1.215702 0.080594 0.000000 
-1.204660 0.106650 0.000000 
-1.290143 -0.035261 0.000000 
-1.314447 -0.080301 0.000000 
-1.190204 0.136957 0.000000 
-1.318041 -0.133655 0.000000 
-1.171655 0.171113 0.000000 
-1.149359 0.207427 0.000000 
-1.123094 0.245676 0.000000 
-1.284246 -0.183635 0.000000 
-1.239750 -0.234361 0.000000 
-1.083297 0.289667 0.000000 
-1.028190 0.321338 0.000000 
-1.181630 -0.276717 0.000000 
-1.112789 -0.308145 0.000000 
-1.040643 -0.320315 0.000000 
-0.978118 -0.323402 0.000000 
-0.927392 -0.336427 0.000000 
-0.889718 -0.375562 0.000000 
-0.873564 -0.432112 0.000000 
-0.920771 -0.464306 0.000000 
-0.935346 -0.397038 0.000000 
-0.991249 -0.473882 0.000000 
-1.088918 -0.471154 0.000000 
-1.067426 -0.391502 0.000000 
-1.189474 -0.463591 0.000000 
-1.147229 -0.378835 0.000000 
-1.266509 -0.440301 0.000000 
-1.219913 -0.352657 0.000000 
-1.335307 -0.404474 0.000000 
-1.284456 -0.314658 0.000000 
-1.402357 -0.360570 0.000000 
-1.341444 -0.266858 0.000000 
-1.466758 -0.307895 0.000000 
-1.539152 -0.247095 0.000000 
-1.393011 -0.208927 0.000000 
-1.612839 -0.176824 0.000000 
-1.665320 -0.119246 0.000000 
-1.691220 -0.054419 0.000000 
-1.704696 0.031075 0.000000 
-1.850073 0.197944 0.000000 
-1.911042 0.142119 0.000000 
-1.969645 0.085282 0.000000 
-1.726970 0.137485 0.000000 
-0.222881 0.345315 0.000000 
-0.195707 0.317732 0.000000 
-0.164205 0.280785 0.000000 
-0.127520 0.248087 0.000000 
-0.095686 0.218595 0.000000 
-0.059027 0.190117 0.000000 
-0.018954 0.160134 0.000000 
0.030296 0.128863 0.000000 
0.086536 0.108337 0.000000 
0.141893 0.089606 0.000000 
0.202102 0.060326 0.000000 
0.263408 0.020409 0.000000 
0.311661 -0.029578 0.000000 
0.333954 -0.089200 0.000000 
0.338621 -0.149651 0.000000 
0.341530 -0.203589 0.000000 
0.353165 -0.253778 0.000000 
0.365710 -0.312201 0.000000 
0.363543 -0.381729 0.000000 
0.357353 -0.443844 0.000000 
0.351188 -0.494586 0.000000 
0.363842 -0.541614 0.000000 
-1.737069 -0.408265 0.000000 
-0.199590 0.397932 0.000000 
-0.156305 0.368016 0.000000 
-0.462327 1.633972 0.000000 
0.741313 2.156547 0.000000 
0.482415 -0.552385 0.000000 
0.446104 -0.560281 0.000000 
0.403556 -0.565935 0.000000 
-0.104001 0.339951 0.000000 
-0.514998 1.566027 0.000000 
-0.059937 0.305547 0.000000 
0.738519 2.131282 0.000000 
0.714572 2.143582 0.000000 
-0.249752 0.424756 0.000000 
-0.036232 0.261748 0.000000 
0.000772 0.233916 0.000000 
0.035161 0.208271 0.000000 
-1.776537 -0.407707 0.000000 
-1.836238 -0.403522 0.000000 
-0.309416 0.438856 0.000000 
-0.378944 0.436592 0.000000 
-2.292732 0.316180 0.000000 
-2.315166 0.266189 0.000000 
-2.314418 0.218632 0.000000 
-2.293418 0.172246 0.000000 
-2.279687 0.122367 0.000000 
-2.253462 0.075101 0.000000 
0.075120 0.180529 0.000000 
0.131113 0.167921 0.000000 
-0.977004 0.369904 0.000000 
-0.860050 0.359739 0.000000 
-1.912142 -0.395466 0.000000 
-1.989966 -0.404246 0.000000 
-2.023752 -0.336704 0.000000 
-2.082175 -0.265443 0.000000 
0.723889 2.099769 0.000000 
0.691466 2.118611 0.000000 
0.665980 2.085965 0.000000 
0.704783 2.058696 0.000000 
0.637970 2.047907 0.000000 
0.681732 2.011488 0.000000 
0.670916 1.965313 0.000000 
0.602858 2.016239 0.000000 
0.659584 1.924889 0.000000 
0.560783 1.989868 0.000000 
0.636111 1.888814 0.000000 
0.607495 1.839024 0.000000 
0.595324 1.775543 0.000000 
0.604052 1.710870 0.000000 
0.514160 1.960464 0.000000 
0.453857 1.933019 0.000000 
0.392525 1.931041 0.000000 
0.334098 1.929512 0.000000 
0.278675 1.910759 0.000000 
0.217273 1.892683 0.000000 
0.149449 1.875328 0.000000 
0.614128 1.658594 0.000000 
0.621313 1.611015 0.000000 
0.624262 1.566135 0.000000 
-2.197766 0.021913 0.000000 
-2.158682 -0.053011 0.000000 
-2.124695 0.081243 0.000000 
-2.150589 -0.219137 0.000000 
-2.141926 -0.141592 0.000000 
-0.393439 -0.558152 0.000000 
-0.412631 -0.514108 0.000000 
-0.436983 -0.473505 0.000000 
-0.445953 -0.430085 0.000000 
-0.458251 -0.397260 0.000000 
-0.479726 -0.362493 0.000000 
-0.496934 -0.313762 0.000000 
-0.509002 -0.258679 0.000000 
-0.517157 -0.204348 0.000000 
-0.545309 -0.153073 0.000000 
-0.442273 -0.555546 0.000000 
-0.496002 -0.546029 0.000000 
-0.557668 -0.548136 0.000000 
-0.618975 -0.532655 0.000000 
-0.334659 2.098363 0.000000 
-0.367985 2.068646 0.000000 
-0.385153 2.032220 0.000000 
-0.396797 1.998353 0.000000 
-0.406285 1.962830 0.000000 
-0.402558 1.923697 0.000000 
-0.406645 1.885254 0.000000 
-0.418378 1.852840 0.000000 
-0.428059 1.823714 0.000000 
-0.435849 1.794167 0.000000 
-0.442335 1.764132 0.000000 
-0.445406 1.731067 0.000000 
-0.444483 1.685350 0.000000 
0.619822 1.520403 0.000000 
-1.077870 0.416968 0.000000 
-1.149036 0.375009 0.000000 
-1.174735 0.300167 0.000000 
-1.192231 0.248444 0.000000 
-1.210811 0.206667 0.000000 
-1.228352 0.167327 0.000000 
-1.238869 0.129347 0.000000 
-1.244643 0.097850 0.000000 
-1.248534 0.072949 0.000000 
-1.252336 0.053661 0.000000 
-1.262323 0.040410 0.000000 
-1.280319 0.029494 0.000000 
-0.451814 0.413932 0.000000 
-0.526928 0.370410 0.000000 
0.194935 0.150929 0.000000 
0.069048 1.861228 0.000000 
-0.574175 0.299726 0.000000 
-0.593607 0.218623 0.000000 
-1.764101 0.258307 0.000000 
-2.210991 0.377164 0.000000 
-0.825996 0.274462 0.000000 
-0.799223 0.203381 0.000000 
-0.760911 0.136948 0.000000 
0.605964 1.469451 0.000000 
0.587834 1.412091 0.000000 
0.576354 1.352243 0.000000 
0.574971 1.297234 0.000000 
0.580375 1.254210 0.000000 
0.545179 1.231826 0.000000 
0.509957 1.199563 0.000000 
0.484198 1.163161 0.000000 
0.468721 1.132007 0.000000 
0.449386 1.113475 0.000000 
0.422962 1.100810 0.000000 
0.391379 1.081659 0.000000 
0.357154 1.057596 0.000000 
0.323730 1.029223 0.000000 
-0.582151 -0.092205 0.000000 
0.265957 0.124499 0.000000 
0.333763 0.078369 0.000000 
0.378371 0.011354 0.000000 
0.400918 -0.063041 0.000000 
0.401084 -0.126030 0.000000 
0.404345 -0.180131 0.000000 
0.432648 -0.231213 0.000000 
0.450030 -0.295654 0.000000 
0.529803 -0.142501 0.000000 
0.491947 -0.190638 0.000000 
0.453243 -0.140755 0.000000 
0.449550 -0.369978 0.000000 
0.498420 -0.096627 0.000000 
0.474171 -0.036686 0.000000 
0.457863 0.037887 0.000000 
0.462195 -0.428632 0.000000 
0.478704 -0.474968 0.000000 
0.483460 -0.515934 0.000000 
0.412910 -0.454274 0.000000 
0.398390 -0.492987 0.000000 
0.404290 -0.527275 0.000000 
0.442452 -0.522716 0.000000 
0.436659 -0.487552 0.000000 
-0.727378 0.062815 0.000000 
-0.616071 0.144833 0.000000 
-0.623548 0.070552 0.000000 
-0.605779 -0.010455 0.000000 
-0.706340 -0.022903 0.000000 
-0.681483 -0.109165 0.000000 
-0.032304 1.855667 0.000000 
-0.128010 1.891817 0.000000 
-0.195732 1.958941 0.000000 
-0.243911 2.012855 0.000000 
-0.287859 2.060258 0.000000 
-0.335518 2.032563 0.000000 
-0.667608 -0.194546 0.000000 
-0.584906 -0.201314 0.000000 
-0.658169 -0.274555 0.000000 
-0.578442 -0.266684 0.000000 
-0.639050 -0.345997 0.000000 
-0.607982 -0.421514 0.000000 
-0.562541 -0.329384 0.000000 
-0.536184 -0.390407 0.000000 
-0.495978 -0.428369 0.000000 
-0.500680 -0.480763 0.000000 
-0.573051 -0.485216 0.000000 
-2.690892 1.628962 0.000000 
-2.684799 1.542949 0.000000 
-2.602920 1.541687 0.000000 
-2.574381 1.626680 0.000000 
-2.518122 1.561554 0.000000 
-2.424460 1.585452 0.000000 
-2.320006 1.576521 0.000000 
-2.229986 1.552903 0.000000 
-2.146342 1.511663 0.000000 
-1.455055 -0.149946 0.000000 
-1.387692 -0.069622 0.000000 
-1.339496 -0.016294 0.000000 
-1.304977 0.012266 0.000000 
-1.531301 -0.084452 0.000000 
-1.604385 -0.040340 0.000000 
-1.592423 0.060341 0.000000 
-1.608296 0.184304 0.000000 
-1.827918 0.382749 0.000000 
0.477873 0.151552 0.000000 
0.477147 0.186451 0.000000 
0.465631 0.220691 0.000000 
-0.587742 1.664900 0.000000 
-0.593403 1.689004 0.000000 
-0.604579 1.701660 0.000000 
-0.619289 1.707346 0.000000 
-0.639577 1.705173 0.000000 
-0.665912 1.706789 0.000000 
-0.697937 1.713775 0.000000 
-0.595692 1.611412 0.000000 
-0.726123 1.728587 0.000000 
-0.757398 1.739158 0.000000 
-0.794522 1.736582 0.000000 
-0.841416 1.734004 0.000000 
-0.894922 1.735365 0.000000 
-0.956071 1.743781 0.000000 
-1.020951 1.762702 0.000000 
-1.077937 1.790337 0.000000 
-1.120258 1.819065 0.000000 
-1.171769 1.794805 0.000000 
0.332207 0.348196 0.000000 
0.333662 0.306461 0.000000 
0.321472 0.376813 0.000000 
0.302407 0.403625 0.000000 
0.214022 0.418287 0.000000 
0.194081 0.479312 0.000000 
0.186716 0.534825 0.000000 
0.189303 0.587597 0.000000 
0.360023 0.266779 0.000000 
0.405131 0.241646 0.000000 
0.201671 0.636843 0.000000 
0.218038 0.687104 0.000000 
0.236652 0.736037 0.000000 
0.256885 0.777971 0.000000 
0.278373 0.806465 0.000000 
0.284019 0.839863 0.000000 
0.276718 0.886611 0.000000 
0.278735 0.943424 0.000000 
0.296322 0.993691 0.000000 
-1.507867 1.746563 0.000000 
-1.548116 1.721920 0.000000 
-1.598023 1.694541 0.000000 
-1.467251 1.761336 0.000000 
-1.422160 1.768620 0.000000 
-1.373311 1.775336 0.000000 
-1.322903 1.783113 0.000000 
-1.275577 1.792359 0.000000 
-1.225048 1.790959 0.000000 
-1.662214 1.670871 0.000000 
-1.732600 1.650932 0.000000 
-1.794687 1.636556 0.000000 
-1.841773 1.607369 0.000000 
-2.078405 0.674642 0.000000 
-2.079214 0.753231 0.000000 
-2.097651 0.597042 0.000000 
-2.129318 0.525303 0.000000 
-2.096743 0.833793 0.000000 
-2.169699 0.469959 0.000000 
-1.991686 0.396959 0.000000 
-1.642187 0.322515 0.000000 
-1.989898 0.229734 0.000000 
-2.064526 0.157922 0.000000 
-1.914688 0.303269 0.000000 
-2.037969 1.086345 0.000000 
-2.021377 0.970661 0.000000 
-2.055796 1.215507 0.000000 
-2.102728 1.318160 0.000000 
-2.047875 1.460463 0.000000 
0.428030 0.207193 0.000000 
0.375625 0.185958 0.000000 
0.313454 0.199058 0.000000 
0.290352 0.345093 0.000000 
0.238487 1.056011 0.000000 
0.440631 0.169086 0.000000 
0.396678 0.129309 0.000000 
0.460488 0.103388 0.000000 
0.523747 1.279501 0.000000 
-2.262588 0.242755 0.000000 
-2.220468 0.298783 0.000000 
-2.218579 0.189244 0.000000 
-2.146376 0.241094 0.000000 
-2.206503 0.124174 0.000000 
0.473879 1.240889 0.000000 
0.446488 1.188557 0.000000 
0.440978 1.144538 0.000000 
0.409581 1.136683 0.000000 
0.629179 1.965579 0.000000 
0.593839 1.933105 0.000000 
0.550362 1.888901 0.000000 
0.483841 1.848479 0.000000 
0.202470 0.989646 0.000000 
0.241245 0.841871 0.000000 
0.205152 0.817070 0.000000 
0.175878 0.768930 0.000000 
0.153326 0.710423 0.000000 
0.132079 0.649973 0.000000 
0.113278 0.585517 0.000000 
0.106000 0.517194 0.000000 
0.109640 0.447998 0.000000 
0.121648 0.377320 0.000000 
0.032483 0.287705 0.000000 
0.246820 0.370384 0.000000 
0.099619 0.236071 0.000000 
0.373127 1.121801 0.000000 
-0.307911 1.984941 0.000000 
-0.360136 1.966471 0.000000 
-0.343252 1.912126 0.000000 
-0.270247 1.920270 0.000000 
0.168337 0.232589 0.000000 
0.242346 0.222252 0.000000 
0.270369 0.291288 0.000000 
0.505525 1.347262 0.000000 
-0.689828 0.174517 0.000000 
-0.729540 0.231921 0.000000 
-0.746154 0.306393 0.000000 
-0.657668 0.322958 0.000000 
-0.661195 0.238671 0.000000 
-0.924642 0.475633 0.000000 
-1.137284 1.738997 0.000000 
-1.072920 1.694403 0.000000 
-1.248127 1.751294 0.000000 
-1.304069 1.734971 0.000000 
-1.360197 1.727311 0.000000 
-1.411221 1.723171 0.000000 
-1.453165 1.719942 0.000000 
-1.486003 1.702480 0.000000 
-1.510814 1.659011 0.000000 
-1.558800 1.614342 0.000000 
-0.995058 1.667650 0.000000 
-0.919611 1.657173 0.000000 
-0.852227 1.664105 0.000000 
-0.796966 1.680624 0.000000 
-0.752732 1.699793 0.000000 
-1.635591 1.587009 0.000000 
-1.992480 0.861710 0.000000 
-1.965104 0.751931 0.000000 
-1.974377 0.648598 0.000000 
-2.014368 0.554976 0.000000 
-2.065453 0.471790 0.000000 
-2.071492 0.318723 0.000000 
-2.131272 0.402260 0.000000 
-1.712039 1.573686 0.000000 
-1.781280 1.573636 0.000000 
-1.884796 1.543579 0.000000 
0.516332 1.763242 0.000000 
0.538779 1.692114 0.000000 
0.517174 1.421647 0.000000 
0.552532 1.483584 0.000000 
0.576896 1.525510 0.000000 
0.583356 1.562536 0.000000 
0.576083 1.599541 0.000000 