# vtk DataFile Version 3.0 
vtk output 
ASCII 
DATASET UNSTRUCTURED_GRID 
POINTS 899 float 
-3.648847 2.336720 0.000000 
-3.619410 2.296168 0.000000 
-3.578536 2.260573 0.000000 
-3.540028 2.224922 0.000000 
-3.511690 2.192727 0.000000 
-3.481362 2.162869 0.000000 
-3.451569 2.122195 0.000000 
0.772356 2.239234 0.000000 
0.774615 2.213113 0.000000 
0.769962 2.184358 0.000000 
-3.399514 2.091919 0.000000 
0.413960 -0.552923 0.000000 
0.455573 -0.548620 0.000000 
-1.762619 -0.452819 0.000000 
-1.783389 -0.417422 0.000000 
-1.714437 -0.388633 0.000000 
0.732567 2.233558 0.000000 
0.698438 2.219722 0.000000 
0.491831 -0.534418 0.000000 
0.519501 -0.504012 0.000000 
0.530556 -0.463566 0.000000 
0.532354 -0.417762 0.000000 
0.531774 -0.367255 0.000000 
-3.460923 2.030186 0.000000 
0.663989 2.197776 0.000000 
0.631675 2.170381 0.000000 
0.601833 2.146325 0.000000 
0.569607 2.123068 0.000000 
0.534059 2.100990 0.000000 
0.492599 2.079851 0.000000 
0.444403 2.061186 0.000000 
0.762807 2.143384 0.000000 
-1.708694 -0.354251 0.000000 
-1.726386 -0.313987 0.000000 
-1.761257 -0.289966 0.000000 
-1.812853 -0.282118 0.000000 
-0.690422 -0.534453 0.000000 
-0.624256 -0.552381 0.000000 
-0.561079 -0.560563 0.000000 
-0.500739 -0.562018 0.000000 
-0.445387 -0.562080 0.000000 
0.532260 -0.308171 0.000000 
0.536647 -0.238838 0.000000 
-1.881389 -0.269617 0.000000 
-0.389303 -0.559806 0.000000 
-0.340338 -0.544521 0.000000 
-0.344339 -0.490386 0.000000 
-0.358558 -0.437846 0.000000 
-0.381750 -0.396935 0.000000 
-0.406193 -0.362760 0.000000 
-0.417316 -0.331262 0.000000 
-0.428320 -0.297005 0.000000 
-0.436973 -0.252741 0.000000 
-0.444212 -0.197198 0.000000 
-0.452662 -0.138340 0.000000 
-0.468602 -0.081440 0.000000 
0.553166 -0.174123 0.000000 
0.573193 -0.116452 0.000000 
0.574450 -0.064712 0.000000 
0.561087 -0.014392 0.000000 
0.550432 0.040931 0.000000 
0.748903 2.090066 0.000000 
0.730940 2.033574 0.000000 
0.715868 1.987415 0.000000 
0.699446 1.951287 0.000000 
0.684888 1.910297 0.000000 
0.675900 1.864093 0.000000 
0.669871 1.814533 0.000000 
0.664455 1.766676 0.000000 
0.668163 1.720256 0.000000 
0.672091 1.670423 0.000000 
0.674558 1.622399 0.000000 
0.673045 1.572320 0.000000 
0.386491 2.051505 0.000000 
0.664855 1.513581 0.000000 
0.652298 1.455504 0.000000 
0.638456 1.401854 0.000000 
0.623121 1.352344 0.000000 
0.616008 1.309316 0.000000 
0.600787 1.274374 0.000000 
0.571289 1.244925 0.000000 
0.539016 1.213764 0.000000 
0.513857 1.184865 0.000000 
0.493343 1.158630 0.000000 
0.469109 1.140817 0.000000 
0.444920 1.124373 0.000000 
0.415324 1.103407 0.000000 
0.383540 1.078655 0.000000 
0.356179 1.049322 0.000000 
0.343879 1.010423 0.000000 
0.337476 0.964902 0.000000 
0.332404 0.919616 0.000000 
0.328512 0.879926 0.000000 
0.319594 0.843847 0.000000 
0.304149 0.810436 0.000000 
0.290502 0.770045 0.000000 
0.275896 0.722182 0.000000 
0.261905 0.680213 0.000000 
0.250150 0.646618 0.000000 
0.250896 0.608813 0.000000 
0.259587 0.566210 0.000000 
0.284617 0.523437 0.000000 
0.315237 0.493775 0.000000 
0.340022 0.474339 0.000000 
0.354380 0.448490 0.000000 
0.368685 0.421347 0.000000 
0.385568 0.394951 0.000000 
0.415372 0.370154 0.000000 
0.447119 0.338441 0.000000 
0.477633 0.310525 0.000000 
0.503078 0.282588 0.000000 
0.518876 0.244534 0.000000 
0.527127 0.208566 0.000000 
0.534187 0.164020 0.000000 
0.543185 0.103240 0.000000 
0.322519 2.040450 0.000000 
0.263849 2.027333 0.000000 
0.208223 2.021913 0.000000 
0.150441 2.018084 0.000000 
-0.687392 -0.461386 0.000000 
-3.327058 2.065687 0.000000 
-3.276080 2.019266 0.000000 
-3.224941 1.985679 0.000000 
-3.181728 1.956521 0.000000 
-3.135074 1.919591 0.000000 
-3.078123 1.895298 0.000000 
-1.944260 -0.224739 0.000000 
0.083204 2.023241 0.000000 
0.005786 2.017888 0.000000 
-0.071812 2.027126 0.000000 
-0.135705 2.056668 0.000000 
-0.182391 2.098273 0.000000 
-1.999041 -0.153770 0.000000 
-1.843230 -0.428279 0.000000 
-0.491126 -0.017481 0.000000 
-0.512312 0.055762 0.000000 
-0.526535 0.118595 0.000000 
-0.527935 0.180717 0.000000 
-0.524207 0.247887 0.000000 
-0.505864 0.305018 0.000000 
-0.468875 0.354230 0.000000 
-0.410369 0.383475 0.000000 
-0.354013 0.404593 0.000000 
-0.301050 0.414538 0.000000 
-0.255730 0.415311 0.000000 
-0.695595 -0.383090 0.000000 
-0.726457 -0.306209 0.000000 
-0.747352 -0.236754 0.000000 
-3.396487 2.008552 0.000000 
-3.344056 1.929164 0.000000 
-3.294256 1.885763 0.000000 
-3.248246 1.847439 0.000000 
-3.196818 1.808085 0.000000 
-3.159669 1.756775 0.000000 
-3.113281 1.710070 0.000000 
-3.056061 1.690507 0.000000 
-2.996684 1.667882 0.000000 
-2.933161 1.638266 0.000000 
-2.879064 1.602123 0.000000 
-2.813006 1.577338 0.000000 
-2.751664 1.554288 0.000000 
-2.686782 1.524965 0.000000 
-1.922020 -0.425472 0.000000 
-1.999705 -0.426971 0.000000 
-2.060018 -0.405367 0.000000 
-2.032615 -0.070380 0.000000 
-2.048550 0.015342 0.000000 
-2.029059 0.081235 0.000000 
-2.105228 -0.348309 0.000000 
-2.154373 -0.280714 0.000000 
-2.203584 -0.226091 0.000000 
-2.237020 -0.164655 0.000000 
-2.250593 -0.099363 0.000000 
-2.270119 -0.027579 0.000000 
-2.297898 0.042732 0.000000 
-2.327118 0.104312 0.000000 
-2.346747 0.158282 0.000000 
-2.362840 0.211391 0.000000 
-2.374561 0.262436 0.000000 
-2.373128 0.314411 0.000000 
-2.334174 0.381001 0.000000 
-2.331842 0.421620 0.000000 
-2.284565 0.430378 0.000000 
-0.236368 2.147809 0.000000 
-0.299146 2.191635 0.000000 
-0.346614 2.211561 0.000000 
-0.382877 2.175057 0.000000 
-0.412447 2.146008 0.000000 
-0.433989 2.105720 0.000000 
-0.446472 2.062754 0.000000 
-0.451628 2.023436 0.000000 
-0.451047 1.984973 0.000000 
-0.449242 1.948970 0.000000 
-0.453345 1.917080 0.000000 
-0.460251 1.889387 0.000000 
-0.470304 1.860602 0.000000 
-0.475290 1.831112 0.000000 
-0.478341 1.801326 0.000000 
-0.479442 1.764590 0.000000 
-2.609147 1.511175 0.000000 
-2.517189 1.505677 0.000000 
-2.434013 1.506014 0.000000 
-2.352624 1.495982 0.000000 
-2.274410 1.476611 0.000000 
-2.204499 1.441963 0.000000 
-2.180326 1.373080 0.000000 
-2.178559 1.284544 0.000000 
-2.168273 1.194515 0.000000 
-2.159086 1.096451 0.000000 
-2.144575 1.007292 0.000000 
-2.163040 0.932075 0.000000 
-2.183612 0.857983 0.000000 
-2.172907 0.793426 0.000000 
-2.161614 0.730671 0.000000 
-2.169833 0.670559 0.000000 
-2.188987 0.608805 0.000000 
-2.218663 0.557560 0.000000 
-2.229021 0.501686 0.000000 
-2.997130 1.878501 0.000000 
-3.021908 1.780363 0.000000 
-2.902046 1.846993 0.000000 
-0.770600 -0.154160 0.000000 
-0.790096 -0.062501 0.000000 
-0.811857 0.018207 0.000000 
-0.835807 0.096771 0.000000 
-0.859157 0.166898 0.000000 
-0.881226 0.226950 0.000000 
-0.903169 0.286301 0.000000 
-0.928196 0.350345 0.000000 
-2.785442 1.814440 0.000000 
-2.944278 1.753698 0.000000 
-2.855014 1.716553 0.000000 
-2.796189 1.656472 0.000000 
-2.651235 1.799694 0.000000 
-2.517962 1.789347 0.000000 
-2.394240 1.780184 0.000000 
-2.275192 1.772188 0.000000 
-2.180847 1.747627 0.000000 
-2.099904 1.721147 0.000000 
-2.018420 1.689907 0.000000 
-1.945469 1.694205 0.000000 
-1.885190 1.727545 0.000000 
-1.829736 1.748113 0.000000 
-1.760875 1.773345 0.000000 
-1.680504 1.801769 0.000000 
-1.617798 1.820086 0.000000 
-1.570169 1.834610 0.000000 
-1.527149 1.848800 0.000000 
-1.482581 1.860929 0.000000 
-1.433927 1.867469 0.000000 
-1.386311 1.875384 0.000000 
-1.337319 1.884115 0.000000 
-1.286363 1.891194 0.000000 
-1.235962 1.891912 0.000000 
-1.188452 1.896725 0.000000 
-1.140860 1.906176 0.000000 
-1.091558 1.905485 0.000000 
-1.038962 1.894466 0.000000 
-0.982519 1.875469 0.000000 
-0.922315 1.858726 0.000000 
-0.869867 1.848402 0.000000 
-0.827747 1.841912 0.000000 
-0.785371 1.837000 0.000000 
-0.748025 1.827263 0.000000 
-0.712781 1.816996 0.000000 
-0.681690 1.803064 0.000000 
-0.657198 1.791930 0.000000 
-0.633895 1.785267 0.000000 
-0.612002 1.780811 0.000000 
-0.594184 1.773598 0.000000 
-0.577381 1.764148 0.000000 
-0.560109 1.748865 0.000000 
-0.540091 1.716411 0.000000 
-1.243914 0.077565 0.000000 
-1.232782 0.091282 0.000000 
-1.257376 0.063211 0.000000 
-1.224378 0.109981 0.000000 
-1.271472 0.043866 0.000000 
-1.215702 0.131978 0.000000 
-1.204660 0.158035 0.000000 
-1.290143 0.016124 0.000000 
-1.314447 -0.028916 0.000000 
-1.190204 0.188341 0.000000 
-1.318041 -0.082270 0.000000 
-1.171655 0.222497 0.000000 
-1.149359 0.258812 0.000000 
-1.123094 0.297060 0.000000 
-1.284246 -0.132250 0.000000 
-1.239750 -0.182976 0.000000 
-1.083297 0.341052 0.000000 
-1.028190 0.372723 0.000000 
-1.181630 -0.225333 0.000000 
-1.112789 -0.256760 0.000000 
-1.040643 -0.268930 0.000000 
-0.978118 -0.272017 0.000000 
-0.927392 -0.285043 0.000000 
-0.889718 -0.324177 0.000000 
-0.873564 -0.380727 0.000000 
-0.920771 -0.412921 0.000000 
-0.935346 -0.345653 0.000000 
-0.991249 -0.422497 0.000000 
-1.088918 -0.419769 0.000000 
-1.067426 -0.340117 0.000000 
-1.189474 -0.412206 0.000000 
-1.147229 -0.327450 0.000000 
-1.266509 -0.388916 0.000000 
-1.219913 -0.301273 0.000000 
-1.335307 -0.353089 0.000000 
-1.284456 -0.263273 0.000000 
-1.402357 -0.309185 0.000000 
-1.341444 -0.215473 0.000000 
-1.466758 -0.256510 0.000000 
-1.539152 -0.195711 0.000000 
-1.393011 -0.157542 0.000000 
-1.612839 -0.125439 0.000000 
-1.665320 -0.067861 0.000000 
-1.691220 -0.003034 0.000000 
-1.704696 0.082459 0.000000 
-1.850073 0.249329 0.000000 
-1.911042 0.193504 0.000000 
-1.969645 0.136667 0.000000 
-1.726970 0.188870 0.000000 
-0.222881 0.396700 0.000000 
-0.195707 0.369117 0.000000 
-0.164205 0.332169 0.000000 
-0.127520 0.299472 0.000000 
-0.095686 0.269980 0.000000 
-0.059027 0.241502 0.000000 
-0.018954 0.211518 0.000000 
0.030296 0.180248 0.000000 
0.086536 0.159722 0.000000 
0.141893 0.140990 0.000000 
0.202102 0.111711 0.000000 
0.263408 0.071794 0.000000 
0.311661 0.021807 0.000000 
0.333954 -0.037816 0.000000 
0.338621 -0.098266 0.000000 
0.341530 -0.152204 0.000000 
0.353165 -0.202393 0.000000 
0.365710 -0.260816 0.000000 
0.363543 -0.330344 0.000000 
[...]
POINT_DATA 899 
VECTORS X_GC float 
-3.648847 2.336720 0.000000 
-3.619410 2.296168 0.000000 
-3.578536 2.260573 0.000000 
-3.540028 2.224922 0.000000 
-3.511690 2.192727 0.000000 
-3.481362 2.162869 0.000000 
-3.451569 2.122195 0.000000 
0.772356 2.239234 0.000000 
0.774615 2.213113 0.000000 
0.769962 2.184358 0.000000 
-3.399514 2.091919 0.000000 
0.413960 -0.552923 0.000000 
0.455573 -0.548620 0.000000 
-1.762619 -0.452819 0.000000 
-1.783389 -0.417422 0.000000 
-1.714437 -0.388633 0.000000 
0.732567 2.233558 0.000000 
0.698438 2.219722 0.000000 
0.491831 -0.534418 0.000000 
0.519501 -0.504012 0.000000 
0.530556 -0.463566 0.000000 
0.532354 -0.417762 0.000000 
0.531774 -0.367255 0.000000 
-3.460923 2.030186 0.000000 
0.663989 2.197776 0.000000 
0.631675 2.170381 0.000000 
0.601833 2.146325 0.000000 
0.569607 2.123068 0.000000 
0.534059 2.100990 0.000000 
0.492599 2.079851 0.000000 
0.444403 2.061186 0.000000 
0.762807 2.143384 0.000000 
-1.708694 -0.354251 0.000000 
-1.726386 -0.313987 0.000000 
-1.761257 -0.289966 0.000000 
-1.812853 -0.282118 0.000000 
-0.690422 -0.534453 0.000000 
-0.624256 -0.552381 0.000000 
-0.561079 -0.560563 0.000000 
-0.500739 -0.562018 0.000000 
-0.445387 -0.562080 0.000000 
0.532260 -0.308171 0.000000 
0.536647 -0.238838 0.000000 
-1.881389 -0.269617 0.000000 
-0.389303 -0.559806 0.000000 
-0.340338 -0.544521 0.000000 
-0.344339 -0.490386 0.000000 
-0.358558 -0.437846 0.000000 
-0.381750 -0.396935 0.000000 
-0.406193 -0.362760 0.000000 
-0.417316 -0.331262 0.000000 
-0.428320 -0.297005 0.000000 
-0.436973 -0.252741 0.000000 
-0.444212 -0.197198 0.000000 
-0.452662 -0.138340 0.000000 
-0.468602 -0.081440 0.000000 
0.553166 -0.174123 0.000000 
0.573193 -0.116452 0.000000 
0.574450 -0.064712 0.000000 
0.561087 -0.014392 0.000000 
0.550432 0.040931 0.000000 
0.748903 2.090066 0.000000 
0.730940 2.033574 0.000000 
0.715868 1.987415 0.000000 
0.699446 1.951287 0.000000 
0.684888 1.910297 0.000000 
0.675900 1.864093 0.000000 
0.669871 1.814533 0.000000 
0.664455 1.766676 0.000000 
0.668163 1.720256 0.000000 
0.672091 1.670423 0.000000 
0.674558 1.622399 0.000000 
0.673045 1.572320 0.000000 
0.386491 2.051505 0.000000 
0.664855 1.513581 0.000000 
0.652298 1.455504 0.000000 
0.638456 1.401854 0.000000 
0.623121 1.352344 0.000000 
0.616008 1.309316 0.000000 
0.600787 1.274374 0.000000 
0.571289 1.244925 0.000000 
0.539016 1.213764 0.000000 
0.513857 1.184865 0.000000 
0.493343 1.158630 0.000000 
0.469109 1.140817 0.000000 
0.444920 1.124373 0.000000 
0.415324 1.103407 0.000000 
0.383540 1.078655 0.000000 
0.356179 1.049322 0.000000 
0.343879 1.010423 0.000000 
0.337476 0.964902 0.000000 
0.332404 0.919616 0.000000 
0.328512 0.879926 0.000000 
0.319594 0.843847 0.000000 
0.304149 0.810436 0.000000 
0.290502 0.770045 0.000000 
0.275896 0.722182 0.000000 
0.261905 0.680213 0.000000 
0.250150 0.646618 0.000000 
0.250896 0.608813 0.000000 
0.259587 0.566210 0.000000 
0.284617 0.523437 0.000000 
0.315237 0.493775 0.000000 
0.340022 0.474339 0.000000 
0.354380 0.448490 0.000000 
0.368685 0.421347 0.000000 
0.385568 0.394951 0.000000 
0.415372 0.370154 0.000000 
0.447119 0.338441 0.000000 
0.477633 0.310525 0.000000 
0.503078 0.282588 0.000000 
0.518876 0.244534 0.000000 
0.527127 0.208566 0.000000 
0.534187 0.164020 0.000000 
0.543185 0.103240 0.000000 
0.322519 2.040450 0.000000 
0.263849 2.027333 0.000000 
0.208223 2.021913 0.000000 
0.150441 2.018084 0.000000 
-0.687392 -0.461386 0.000000 
-3.327058 2.065687 0.000000 
-3.276080 2.019266 0.000000 
-3.224941 1.985679 0.000000 
-3.181728 1.956521 0.000000 
-3.135074 1.919591 0.000000 
-3.078123 1.895298 0.000000 
-1.944260 -0.224739 0.000000 
0.083204 2.023241 0.000000 
0.005786 2.017888 0.000000 
-0.071812 2.027126 0.000000 
-0.135705 2.056668 0.000000 
-0.182391 2.098273 0.000000 
-1.999041 -0.153770 0.000000 
-1.843230 -0.428279 0.000000 
-0.491126 -0.017481 0.000000 
-0.512312 0.055762 0.000000 
-0.526535 0.118595 0.000000 
-0.527935 0.180717 0.000000 
-0.524207 0.247887 0.000000 
-0.505864 0.305018 0.000000 
-0.468875 0.354230 0.000000 
-0.410369 0.383475 0.000000 
-0.354013 0.404593 0.000000 
-0.301050 0.414538 0.000000 
-0.255730 0.415311 0.000000 
-0.695595 -0.383090 0.000000 
-0.726457 -0.306209 0.000000 
-0.747352 -0.236754 0.000000 
-3.396487 2.008552 0.000000 
-3.344056 1.929164 0.000000 
-3.294256 1.885763 0.000000 
-3.248246 1.847439 0.000000 
-3.196818 1.808085 0.000000 
-3.159669 1.756775 0.000000 
-3.113281 1.710070 0.000000 
-3.056061 1.690507 0.000000 
-2.996684 1.667882 0.000000 
-2.933161 1.638266 0.000000 
-2.879064 1.602123 0.000000 
-2.813006 1.577338 0.000000 
-2.751664 1.554288 0.000000 
-2.686782 1.524965 0.000000 
-1.922020 -0.425472 0.000000 
-1.999705 -0.426971 0.000000 
-2.060018 -0.405367 0.000000 
-2.032615 -0.070380 0.000000 
-2.048550 0.015342 0.000000 
-2.029059 0.081235 0.000000 
-2.105228 -0.348309 0.000000 
-2.154373 -0.280714 0.000000 
-2.203584 -0.226091 0.000000 
-2.237020 -0.164655 0.000000 
-2.250593 -0.099363 0.000000 
-2.270119 -0.027579 0.000000 
-2.297898 0.042732 0.000000 
-2.327118 0.104312 0.000000 
-2.346747 0.158282 0.000000 
-2.362840 0.211391 0.000000 
-2.374561 0.262436 0.000000 
-2.373128 0.314411 0.000000 
-2.334174 0.381001 0.000000 
-2.331842 0.421620 0.000000 
-2.284565 0.430378 0.000000 
-0.236368 2.147809 0.000000 
-0.299146 2.191635 0.000000 
-0.346614 2.211561 0.000000 
-0.382877 2.175057 0.000000 
-0.412447 2.146008 0.000000 
-0.433989 2.105720 0.000000 
-0.446472 2.062754 0.000000 
-0.451628 2.023436 0.000000 
-0.451047 1.984973 0.000000 
-0.449242 1.948970 0.000000 
-0.453345 1.917080 0.000000 
-0.460251 1.889387 0.000000 
-0.470304 1.860602 0.000000 
-0.475290 1.831112 0.000000 
-0.478341 1.801326 0.000000 
-0.479442 1.764590 0.000000 
-2.609147 1.511175 0.000000 
-2.517189 1.505677 0.000000 
-2.434013 1.506014 0.000000 
-2.352624 1.495982 0.000000 
-2.274410 1.476611 0.000000 
-2.204499 1.441963 0.000000 
-2.180326 1.373080 0.000000 
-2.178559 1.284544 0.000000 
-2.168273 1.194515 0.000000 
-2.159086 1.096451 0.000000 
-2.144575 1.007292 0.000000 
-2.163040 0.932075 0.000000 
-2.183612 0.857983 0.000000 
-2.172907 0.793426 0.000000 
-2.161614 0.730671 0.000000 
-2.169833 0.670559 0.000000 
-2.188987 0.608805 0.000000 
-2.218663 0.557560 0.000000 
-2.229021 0.501686 0.000000 
-2.997130 1.878501 0.000000 
-3.021908 1.780363 0.000000 
-2.902046 1.846993 0.000000 
-0.770600 -0.154160 0.000000 
-0.790096 -0.062501 0.000000 
-0.811857 0.018207 0.000000 
-0.835807 0.096771 0.000000 
-0.859157 0.166898 0.000000 
-0.881226 0.226950 0.000000 
-0.903169 0.286301 0.000000 
-0.928196 0.350345 0.000000 
-2.785442 1.814440 0.000000 
-2.944278 1.753698 0.000000 
-2.855014 1.716553 0.000000 
-2.796189 1.656472 0.000000 
-2.651235 1.799694 0.000000 
-2.517962 1.789347 0.000000 
-2.394240 1.780184 0.000000 
-2.275192 1.772188 0.000000 
-2.180847 1.747627 0.000000 
-2.099904 1.721147 0.000000 
-2.018420 1.689907 0.000000 
-1.945469 1.694205 0.000000 
-1.885190 1.727545 0.000000 
-1.829736 1.748113 0.000000 
-1.760875 1.773345 0.000000 
-1.680504 1.801769 0.000000 
-1.617798 1.820086 0.000000 
-1.570169 1.834610 0.000000 
-1.527149 1.848800 0.000000 
-1.482581 1.860929 0.000000 
-1.433927 1.867469 0.000000 
-1.386311 1.875384 0.000000 
-1.337319 1.884115 0.000000 
-1.286363 1.891194 0.000000 
-1.235962 1.891912 0.000000 
-1.188452 1.896725 0.000000 
-1.140860 1.906176 0.000000 
-1.091558 1.905485 0.000000 
-1.038962 1.894466 0.000000 
-0.982519 1.875469 0.000000 
-0.922315 1.858726 0.000000 
-0.869867 1.848402 0.000000 
-0.827747 1.841912 0.000000 
-0.785371 1.837000 0.000000 
-0.748025 1.827263 0.000000 
-0.712781 1.816996 0.000000 
-0.681690 1.803064 0.000000 
-0.657198 1.791930 0.000000 
-0.633895 1.785267 0.000000 
-0.612002 1.780811 0.000000 
-0.594184 1.773598 0.000000 
-0.577381 1.764148 0.000000 
-0.560109 1.748865 0.000000 
-0.540091 1.716411 0.000000 
-1.243914 0.077565 0.000000 
-1.232782 0.091282 0.000000 
-1.257376 0.063211 0.000000 
-1.224378 0.109981 0.000000 
-1.271472 0.043866 0.000000 
-1.215702 0.131978 0.000000 
-1.204660 0.158035 0.000000 
-1.290143 0.016124 0.000000 
-1.314447 -0.028916 0.000000 
-1.190204 0.188341 0.000000 
-1.318041 -0.082270 0.000000 
-1.171655 0.222497 0.000000 
-1.149359 0.258812 0.000000 
-1.123094 0.297060 0.000000 
-1.284246 -0.132250 0.000000 
-1.239750 -0.182976 0.000000 
-1.083297 0.341052 0.000000 
-1.028190 0.372723 0.000000 
-1.181630 -0.225333 0.000000 
-1.112789 -0.256760 0.000000 
-1.040643 -0.268930 0.000000 
-0.978118 -0.272017 0.000000 
-0.927392 -0.285043 0.000000 
-0.889718 -0.324177 0.000000 
-0.873564 -0.380727 0.000000 
-0.920771 -0.412921 0.000000 
-0.935346 -0.345653 0.000000 
-0.991249 -0.422497 0.000000 
-1.088918 -0.419769 0.000000 
-1.067426 -0.340117 0.000000 
-1.189474 -0.412206 0.000000 
-1.147229 -0.327450 0.000000 
-1.266509 -0.388916 0.000000 
-1.219913 -0.301273 0.000000 
-1.335307 -0.353089 0.000000 
-1.284456 -0.263273 0.000000 
-1.402357 -0.309185 0.000000 
-1.341444 -0.215473 0.000000 
-1.466758 -0.256510 0.000000 
-1.539152 -0.195711 0.000000 
-1.393011 -0.157542 0.000000 
-1.612839 -0.125439 0.000000 
-1.665320 -0.067861 0.000000 
-1.691220 -0.003034 0.000000 
-1.704696 0.082459 0.000000 
-1.850073 0.249329 0.000000 
-1.911042 0.193504 0.000000 
-1.969645 0.136667 0.000000 
-1.726970 0.188870 0.000000 
-0.222881 0.396700 0.000000 
-0.195707 0.369117 0.000000 
-0.164205 0.332169 0.000000 
-0.127520 0.299472 0.000000 
-0.095686 0.269980 0.000000 
-0.059027 0.241502 0.000000 
-0.018954 0.211518 0.000000 
0.030296 0.180248 0.000000 
0.086536 0.159722 0.000000 
0.141893 0.140990 0.000000 
0.202102 0.111711 0.000000 
0.263408 0.071794 0.000000 
0.311661 0.021807 0.000000 
0.333954 -0.037816 0.000000 
0.338621 -0.098266 0.000000 
0.341530 -0.152204 0.000000 
0.353165 -0.202393 0.000000 
0.365710 -0.260816 0.000000 
0.363543 -0.330344 0.000000 
0.357353 -0.392459 0.000000 
0.351188 -0.443201 0.000000 
0.363842 -0.490230 0.000000 
-1.737069 -0.356881 0.000000 
-0.199590 0.449317 0.000000 
-0.156305 0.419401 0.000000 
-0.462327 1.685357 0.000000 
0.741313 2.207931 0.000000 
0.482415 -0.501000 0.000000 
0.446104 -0.508896 0.000000 
0.403556 -0.514551 0.000000 
-0.104001 0.391336 0.000000 
-0.514998 1.617411 0.000000 
-0.059937 0.356931 0.000000 
0.738519 2.182666 0.000000 
0.714572 2.194967 0.000000 
-0.249752 0.476141 0.000000 
-0.036232 0.313133 0.000000 
0.000772 0.285301 0.000000 
0.035161 0.259656 0.000000 
-1.776537 -0.356322 0.000000 
-1.836238 -0.352138 0.000000 
-0.309416 0.490241 0.000000 
-0.378944 0.487977 0.000000 
-2.292732 0.367565 0.000000 
-2.315166 0.317574 0.000000 
-2.314418 0.270017 0.000000 
-2.293418 0.223631 0.000000 
-2.279687 0.173752 0.000000 
-2.253462 0.126486 0.000000 
0.075120 0.231913 0.000000 
0.131113 0.219306 0.000000 
-0.977004 0.421289 0.000000 
-0.860050 0.411124 0.000000 
-1.912142 -0.344081 0.000000 
-1.989966 -0.352861 0.000000 
-2.023752 -0.285319 0.000000 
-2.082175 -0.214059 0.000000 
0.723889 2.151153 0.000000 
0.691466 2.169996 0.000000 
0.665980 2.137350 0.000000 
0.704783 2.110081 0.000000 
0.637970 2.099292 0.000000 
0.681732 2.062873 0.000000 
0.670916 2.016698 0.000000 
0.602858 2.067623 0.000000 
0.659584 1.976274 0.000000 
0.560783 2.041253 0.000000 
0.636111 1.940199 0.000000 
0.607495 1.890408 0.000000 
0.595324 1.826928 0.000000 
0.604052 1.762255 0.000000 
0.514160 2.011849 0.000000 
0.453857 1.984404 0.000000 
0.392525 1.982426 0.000000 
0.334098 1.980897 0.000000 
0.278675 1.962144 0.000000 
0.217273 1.944068 0.000000 
0.149449 1.926713 0.000000 
0.614128 1.709979 0.000000 
0.621313 1.662400 0.000000 
0.624262 1.617520 0.000000 
-2.197766 0.073297 0.000000 
-2.158682 -0.001626 0.000000 
-2.124695 0.132628 0.000000 
-2.150589 -0.167753 0.000000 
-2.141926 -0.090207 0.000000 
-0.393439 -0.506767 0.000000 
-0.412631 -0.462724 0.000000 
-0.436983 -0.422120 0.000000 
-0.445953 -0.378701 0.000000 
-0.458251 -0.345875 0.000000 
-0.479726 -0.311108 0.000000 
-0.496934 -0.262378 0.000000 
-0.509002 -0.207294 0.000000 
-0.517157 -0.152963 0.000000 
-0.545309 -0.101688 0.000000 
-0.442273 -0.504161 0.000000 
-0.496002 -0.494644 0.000000 
-0.557668 -0.496751 0.000000 
-0.618975 -0.481271 0.000000 
-0.334659 2.149748 0.000000 
-0.367985 2.120030 0.000000 
-0.385153 2.083605 0.000000 
-0.396797 2.049738 0.000000 
-0.406285 2.014215 0.000000 
-0.402558 1.975082 0.000000 
-0.406645 1.936639 0.000000 
-0.418378 1.904224 0.000000 
-0.428059 1.875099 0.000000 
-0.435849 1.845552 0.000000 
-0.442335 1.815517 0.000000 
-0.445406 1.782452 0.000000 
-0.444483 1.736735 0.000000 
0.619822 1.571788 0.000000 
-1.077870 0.468353 0.000000 
-1.149036 0.426394 0.000000 
-1.174735 0.351552 0.000000 
-1.192231 0.299828 0.000000 
-1.210811 0.258052 0.000000 
-1.228352 0.218712 0.000000 
-1.238869 0.180732 0.000000 
-1.244643 0.149235 0.000000 
-1.248534 0.124334 0.000000 
-1.252336 0.105046 0.000000 
-1.262323 0.091794 0.000000 
-1.280319 0.080878 0.000000 
-0.451814 0.465316 0.000000 
-0.526928 0.421795 0.000000 
0.194935 0.202313 0.000000 
0.069048 1.912613 0.000000 
-0.574175 0.351110 0.000000 
-0.593607 0.270007 0.000000 
-1.764101 0.309692 0.000000 
-2.210991 0.428549 0.000000 
-0.825996 0.325847 0.000000 
-0.799223 0.254766 0.000000 
-0.760911 0.188333 0.000000 
0.605964 1.520836 0.000000 
0.587834 1.463476 0.000000 
0.576354 1.403628 0.000000 
0.574971 1.348619 0.000000 
0.580375 1.305595 0.000000 
0.545179 1.283211 0.000000 
0.509957 1.250948 0.000000 
0.484198 1.214546 0.000000 
0.468721 1.183391 0.000000 
0.449386 1.164860 0.000000 
0.422962 1.152195 0.000000 
0.391379 1.133044 0.000000 
0.357154 1.108980 0.000000 
0.323730 1.080608 0.000000 
-0.582151 -0.040820 0.000000 
0.265957 0.175884 0.000000 
0.333763 0.129754 0.000000 
0.378371 0.062739 0.000000 
0.400918 -0.011656 0.000000 
0.401084 -0.074645 0.000000 
0.404345 -0.128746 0.000000 
0.432648 -0.179828 0.000000 
0.450030 -0.244269 0.000000 
0.529803 -0.091116 0.000000 
0.491947 -0.139253 0.000000 
0.453243 -0.089370 0.000000 
0.449550 -0.318593 0.000000 
0.498420 -0.045242 0.000000 
0.474171 0.014699 0.000000 
0.457863 0.089272 0.000000 
0.462195 -0.377247 0.000000 
0.478704 -0.423583 0.000000 
0.483460 -0.464549 0.000000 
0.412910 -0.402889 0.000000 
0.398390 -0.441602 0.000000 
0.404290 -0.475890 0.000000 
0.442452 -0.471332 0.000000 
0.436659 -0.436167 0.000000 
-0.727378 0.114200 0.000000 
-0.616071 0.196218 0.000000 
-0.623548 0.121937 0.000000 
-0.605779 0.040930 0.000000 
-0.706340 0.028482 0.000000 
-0.681483 -0.057780 0.000000 
-0.032304 1.907052 0.000000 
-0.128010 1.943202 0.000000 
-0.195732 2.010326 0.000000 
-0.243911 2.064240 0.000000 
-0.287859 2.111643 0.000000 
-0.335518 2.083947 0.000000 
-0.667608 -0.143161 0.000000 
-0.584906 -0.149929 0.000000 
-0.658169 -0.223170 0.000000 
-0.578442 -0.215299 0.000000 
-0.639050 -0.294612 0.000000 
-0.607982 -0.370129 0.000000 
-0.562541 -0.277999 0.000000 
-0.536184 -0.339022 0.000000 
-0.495978 -0.376984 0.000000 
-0.500680 -0.429378 0.000000 
-0.573051 -0.433831 0.000000 
-2.690892 1.680346 0.000000 
-2.684799 1.594334 0.000000 
-2.602920 1.593072 0.000000 
-2.574381 1.678065 0.000000 
-2.518122 1.612939 0.000000 
-2.424460 1.636837 0.000000 
-2.320006 1.627906 0.000000 
-2.229986 1.604288 0.000000 
-2.146342 1.563048 0.000000 
-1.455055 -0.098561 0.000000 
-1.387692 -0.018237 0.000000 
-1.339496 0.035091 0.000000 
-1.304977 0.063651 0.000000 
-1.531301 -0.033068 0.000000 
-1.604385 0.011045 0.000000 
-1.592423 0.111725 0.000000 
-1.608296 0.235688 0.000000 
-1.827918 0.434134 0.000000 
0.477873 0.202937 0.000000 
0.477147 0.237836 0.000000 
0.465631 0.272076 0.000000 
-0.587742 1.716285 0.000000 
-0.593403 1.740389 0.000000 
-0.604579 1.753045 0.000000 
-0.619289 1.758731 0.000000 
-0.639577 1.756557 0.000000 
-0.665912 1.758174 0.000000 
-0.697937 1.765160 0.000000 
-0.595692 1.662797 0.000000 
-0.726123 1.779972 0.000000 
-0.757398 1.790542 0.000000 
-0.794522 1.787967 0.000000 
-0.841416 1.785389 0.000000 
-0.894922 1.786750 0.000000 
-0.956071 1.795166 0.000000 
-1.020951 1.814087 0.000000 
-1.077937 1.841722 0.000000 
-1.120258 1.870450 0.000000 
-1.171769 1.846190 0.000000 
0.332207 0.399581 0.000000 
0.333662 0.357845 0.000000 
0.321472 0.428197 0.000000 
0.302407 0.455010 0.000000 
0.214022 0.469672 0.000000 
0.194081 0.530697 0.000000 
0.186716 0.586210 0.000000 
0.189303 0.638982 0.000000 
0.360023 0.318164 0.000000 
0.405131 0.293031 0.000000 
0.201671 0.688227 0.000000 
0.218038 0.738488 0.000000 
0.236652 0.787422 0.000000 
0.256885 0.829356 0.000000 
0.278373 0.857850 0.000000 
0.284019 0.891248 0.000000 
0.276718 0.937995 0.000000 
0.278735 0.994808 0.000000 
0.296322 1.045076 0.000000 
-1.507867 1.797947 0.000000 
-1.548116 1.773305 0.000000 
-1.598023 1.745926 0.000000 
-1.467251 1.812721 0.000000 
-1.422160 1.820005 0.000000 
-1.373311 1.826721 0.000000 
-1.322903 1.834498 0.000000 
-1.275577 1.843743 0.000000 
-1.225048 1.842344 0.000000 
-1.662214 1.722256 0.000000 
-1.732600 1.702317 0.000000 
-1.794687 1.687941 0.000000 
-1.841773 1.658754 0.000000 
-2.078405 0.726027 0.000000 
-2.079214 0.804616 0.000000 
-2.097651 0.648427 0.000000 
-2.129318 0.576688 0.000000 
-2.096743 0.885178 0.000000 
-2.169699 0.521344 0.000000 
-1.991686 0.448344 0.000000 
-1.642187 0.373900 0.000000 
-1.989898 0.281119 0.000000 
-2.064526 0.209307 0.000000 
-1.914688 0.354654 0.000000 
-2.037969 1.137730 0.000000 
-2.021377 1.022046 0.000000 
-2.055796 1.266892 0.000000 
-2.102728 1.369545 0.000000 
-2.047875 1.511848 0.000000 
0.428030 0.258578 0.000000 
0.375625 0.237342 0.000000 
0.313454 0.250443 0.000000 
0.290352 0.396478 0.000000 
0.238487 1.107395 0.000000 
0.440631 0.220471 0.000000 
0.396678 0.180694 0.000000 
0.460488 0.154773 0.000000 
0.523747 1.330885 0.000000 
-2.262588 0.294140 0.000000 
-2.220468 0.350167 0.000000 
-2.218579 0.240629 0.000000 
-2.146376 0.292479 0.000000 
-2.206503 0.175559 0.000000 
0.473879 1.292273 0.000000 
0.446488 1.239942 0.000000 
0.440978 1.195923 0.000000 
0.409581 1.188068 0.000000 
0.629179 2.016963 0.000000 
0.593839 1.984490 0.000000 
0.550362 1.940286 0.000000 
0.483841 1.899863 0.000000 
0.202470 1.041031 0.000000 
0.241245 0.893256 0.000000 
0.205152 0.868455 0.000000 
0.175878 0.820314 0.000000 
0.153326 0.761808 0.000000 
0.132079 0.701358 0.000000 
0.113278 0.636902 0.000000 
0.106000 0.568579 0.000000 
0.109640 0.499383 0.000000 
0.121648 0.428705 0.000000 
0.032483 0.339090 0.000000 
0.246820 0.421769 0.000000 
0.099619 0.287456 0.000000 
0.373127 1.173186 0.000000 
-0.307911 2.036326 0.000000 
-0.360136 2.017856 0.000000 
-0.343252 1.963511 0.000000 
-0.270247 1.971655 0.000000 
0.168337 0.283974 0.000000 
0.242346 0.273637 0.000000 
0.270369 0.342673 0.000000 
0.505525 1.398647 0.000000 
-0.689828 0.225902 0.000000 
-0.729540 0.283306 0.000000 
-0.746154 0.357778 0.000000 
-0.657668 0.374342 0.000000 
-0.661195 0.290056 0.000000 
-0.924642 0.527018 0.000000 
-1.137284 1.790381 0.000000 
-1.072920 1.745787 0.000000 
-1.248127 1.802678 0.000000 
-1.304069 1.786356 0.000000 
-1.360197 1.778696 0.000000 
-1.411221 1.774556 0.000000 
-1.453165 1.771327 0.000000 
-1.486003 1.753865 0.000000 
-1.510814 1.710396 0.000000 
-1.558800 1.665727 0.000000 
-0.995058 1.719034 0.000000 
-0.919611 1.708558 0.000000 
-0.852227 1.715490 0.000000 
-0.796966 1.732009 0.000000 
-0.752732 1.751177 0.000000 
-1.635591 1.638394 0.000000 
-1.992480 0.913095 0.000000 
-1.965104 0.803316 0.000000 
-1.974377 0.699983 0.000000 
-2.014368 0.606361 0.000000 
-2.065453 0.523175 0.000000 
-2.071492 0.370108 0.000000 
-2.131272 0.453645 0.000000 
-1.712039 1.625071 0.000000 
-1.781280 1.625021 0.000000 
-1.884796 1.594964 0.000000 
0.516332 1.814627 0.000000 
0.538779 1.743499 0.000000 
0.517174 1.473032 0.000000 
0.552532 1.534968 0.000000 
0.576896 1.576895 0.000000 
0.583356 1.613921 0.000000 
0.576083 1.650926 0.000000 
0.562288 1.693286 0.000000 