# vtk DataFile Version 3.0 
vtk output 
ASCII 
DATASET UNSTRUCTURED_GRID 
POINTS 899 float 
-3.648847 2.331687 0.000000 
-3.619410 2.291135 0.000000 
-3.578536 2.255541 0.000000 
-3.540028 2.219890 0.000000 
-3.511690 2.187694 0.000000 
-3.481362 2.157836 0.000000 
-3.451569 2.117162 0.000000 
0.772356 2.234201 0.000000 
0.774615 2.208080 0.000000 
0.769962 2.179326 0.000000 
-3.399514 2.086887 0.000000 
0.413960 -0.557956 0.000000 
0.455573 -0.553653 0.000000 
-1.762619 -0.457851 0.000000 
-1.783389 -0.422455 0.000000 
-1.714437 -0.393665 0.000000 
0.732567 2.228526 0.000000 
0.698438 2.214690 0.000000 
0.491831 -0.539450 0.000000 
0.519501 -0.509045 0.000000 
0.530556 -0.468598 0.000000 
0.532354 -0.422794 0.000000 
0.531774 -0.372287 0.000000 
-3.460923 2.025154 0.000000 
0.663989 2.192743 0.000000 
0.631675 2.165349 0.000000 
0.601833 2.141293 0.000000 
0.569607 2.118035 0.000000 
0.534059 2.095958 0.000000 
0.492599 2.074818 0.000000 
0.444403 2.056153 0.000000 
0.762807 2.138352 0.000000 
-1.708694 -0.359283 0.000000 
-1.726386 -0.319019 0.000000 
-1.761257 -0.294999 0.000000 
-1.812853 -0.287150 0.000000 
-0.690422 -0.539486 0.000000 
-0.624256 -0.557413 0.000000 
-0.561079 -0.565595 0.000000 
-0.500739 -0.567051 0.000000 
-0.445387 -0.567113 0.000000 
0.532260 -0.313204 0.000000 
0.536647 -0.243870 0.000000 
-1.881389 -0.274650 0.000000 
-0.389303 -0.564838 0.000000 
-0.340338 -0.549553 0.000000 
-0.344339 -0.495418 0.000000 
-0.358558 -0.442878 0.000000 
-0.381750 -0.401967 0.000000 
-0.406193 -0.367792 0.000000 
-0.417316 -0.336294 0.000000 
-0.428320 -0.302038 0.000000 
-0.436973 -0.257773 0.000000 
-0.444212 -0.202230 0.000000 
-0.452662 -0.143372 0.000000 
-0.468602 -0.086473 0.000000 
0.553166 -0.179156 0.000000 
0.573193 -0.121485 0.000000 
0.574450 -0.069744 0.000000 
0.561087 -0.019424 0.000000 
0.550432 0.035899 0.000000 
0.748903 2.085034 0.000000 
0.730940 2.028541 0.000000 
0.715868 1.982382 0.000000 
0.699446 1.946254 0.000000 
0.684888 1.905265 0.000000 
0.675900 1.859060 0.000000 
0.669871 1.809500 0.000000 
0.664455 1.761643 0.000000 
0.668163 1.715224 0.000000 
0.672091 1.665390 0.000000 
0.674558 1.617367 0.000000 
0.673045 1.567288 0.000000 
0.386491 2.046473 0.000000 
0.664855 1.508549 0.000000 
0.652298 1.450471 0.000000 
0.638456 1.396821 0.000000 
0.623121 1.347311 0.000000 
0.616008 1.304284 0.000000 
0.600787 1.269342 0.000000 
0.571289 1.239893 0.000000 
0.539016 1.208731 0.000000 
0.513857 1.179832 0.000000 
0.493343 1.153597 0.000000 
0.469109 1.135785 0.000000 
0.444920 1.119340 0.000000 
0.415324 1.098374 0.000000 
0.383540 1.073622 0.000000 
0.356179 1.044290 0.000000 
0.343879 1.005390 0.000000 
0.337476 0.959870 0.000000 
0.332404 0.914583 0.000000 
0.328512 0.874894 0.000000 
0.319594 0.838814 0.000000 
0.304149 0.805403 0.000000 
0.290502 0.765012 0.000000 
0.275896 0.717150 0.000000 
0.261905 0.675181 0.000000 
0.250150 0.641586 0.000000 
0.250896 0.603781 0.000000 
0.259587 0.561177 0.000000 
0.284617 0.518404 0.000000 
0.315237 0.488743 0.000000 
0.340022 0.469306 0.000000 
0.354380 0.443457 0.000000 
0.368685 0.416315 0.000000 
0.385568 0.389918 0.000000 
0.415372 0.365121 0.000000 
0.447119 0.333409 0.000000 
0.477633 0.305492 0.000000 
0.503078 0.277556 0.000000 
0.518876 0.239502 0.000000 
0.527127 0.203533 0.000000 
0.534187 0.158988 0.000000 
0.543185 0.098208 0.000000 
0.322519 2.035417 0.000000 
0.263849 2.022300 0.000000 
0.208223 2.016881 0.000000 
0.150441 2.013052 0.000000 
-0.687392 -0.466418 0.000000 
-3.327058 2.060655 0.000000 
-3.276080 2.014233 0.000000 
-3.224941 1.980646 0.000000 
-3.181728 1.951488 0.000000 
-3.135074 1.914558 0.000000 
-3.078123 1.890265 0.000000 
-1.944260 -0.229771 0.000000 
0.083204 2.018208 0.000000 
0.005786 2.012855 0.000000 
-0.071812 2.022094 0.000000 
-0.135705 2.051635 0.000000 
-0.182391 2.093241 0.000000 
-1.999041 -0.158803 0.000000 
-1.843230 -0.433312 0.000000 
-0.491126 -0.022513 0.000000 
-0.512312 0.050730 0.000000 
-0.526535 0.113562 0.000000 
-0.527935 0.175684 0.000000 
-0.524207 0.242854 0.000000 
-0.505864 0.299986 0.000000 
-0.468875 0.349198 0.000000 
-0.410369 0.378443 0.000000 
-0.354013 0.399560 0.000000 
-0.301050 0.409505 0.000000 
-0.255730 0.410278 0.000000 
-0.695595 -0.388123 0.000000 
-0.726457 -0.311241 0.000000 
-0.747352 -0.241786 0.000000 
-3.396487 2.003519 0.000000 
-3.344056 1.924131 0.000000 
-3.294256 1.880731 0.000000 
-3.248246 1.842406 0.000000 
-3.196818 1.803053 0.000000 
-3.159669 1.751743 0.000000 
-3.113281 1.705038 0.000000 
-3.056061 1.685475 0.000000 
-2.996684 1.662850 0.000000 
-2.933161 1.633234 0.000000 
-2.879064 1.597091 0.000000 
-2.813006 1.572305 0.000000 
-2.751664 1.549255 0.000000 
-2.686782 1.519932 0.000000 
-1.922020 -0.430505 0.000000 
-1.999705 -0.432004 0.000000 
-2.060018 -0.410400 0.000000 
-2.032615 -0.075413 0.000000 
-2.048550 0.010310 0.000000 
-2.029059 0.076203 0.000000 
-2.105228 -0.353342 0.000000 
-2.154373 -0.285747 0.000000 
-2.203584 -0.231123 0.000000 
-2.237020 -0.169688 0.000000 
-2.250593 -0.104395 0.000000 
-2.270119 -0.032611 0.000000 
-2.297898 0.037699 0.000000 
-2.327118 0.099279 0.000000 
-2.346747 0.153249 0.000000 
-2.362840 0.206358 0.000000 
-2.374561 0.257403 0.000000 
-2.373128 0.309379 0.000000 
-2.334174 0.375969 0.000000 
-2.331842 0.416587 0.000000 
-2.284565 0.425346 0.000000 
-0.236368 2.142776 0.000000 
-0.299146 2.186603 0.000000 
-0.346614 2.206528 0.000000 
-0.382877 2.170025 0.000000 
-0.412447 2.140975 0.000000 
-0.433989 2.100688 0.000000 
-0.446472 2.057721 0.000000 
-0.451628 2.018403 0.000000 
-0.451047 1.979941 0.000000 
-0.449242 1.943937 0.000000 
-0.453345 1.912048 0.000000 
-0.460251 1.884354 0.000000 
-0.470304 1.855569 0.000000 
-0.475290 1.826079 0.000000 
-0.478341 1.796294 0.000000 
-0.479442 1.759558 0.000000 
-2.609147 1.506143 0.000000 
-2.517189 1.500645 0.000000 
-2.434013 1.500981 0.000000 
-2.352624 1.490950 0.000000 
-2.274410 1.471579 0.000000 
-2.204499 1.436930 0.000000 
-2.180326 1.368047 0.000000 
-2.178559 1.279511 0.000000 
-2.168273 1.189482 0.000000 
-2.159086 1.091418 0.000000 
-2.144575 1.002259 0.000000 
-2.163040 0.927042 0.000000 
-2.183612 0.852951 0.000000 
-2.172907 0.788393 0.000000 
-2.161614 0.725638 0.000000 
-2.169833 0.665526 0.000000 
-2.188987 0.603773 0.000000 
-2.218663 0.552527 0.000000 
-2.229021 0.496654 0.000000 
-2.997130 1.873468 0.000000 
-3.021908 1.775330 0.000000 
-2.902046 1.841961 0.000000 
-0.770600 -0.159193 0.000000 
-0.790096 -0.067534 0.000000 
-0.811857 0.013174 0.000000 
-0.835807 0.091738 0.000000 
-0.859157 0.161866 0.000000 
-0.881226 0.221917 0.000000 
-0.903169 0.281268 0.000000 
-0.928196 0.345312 0.000000 
-2.785442 1.809408 0.000000 
-2.944278 1.748666 0.000000 
-2.855014 1.711520 0.000000 
-2.796189 1.651440 0.000000 
-2.651235 1.794662 0.000000 
-2.517962 1.784314 0.000000 
-2.394240 1.775152 0.000000 
-2.275192 1.767155 0.000000 
-2.180847 1.742594 0.000000 
-2.099904 1.716115 0.000000 
-2.018420 1.684875 0.000000 
-1.945469 1.689172 0.000000 
-1.885190 1.722512 0.000000 
-1.829736 1.743081 0.000000 
-1.760875 1.768312 0.000000 
-1.680504 1.796737 0.000000 
-1.617798 1.815054 0.000000 
-1.570169 1.829577 0.000000 
-1.527149 1.843767 0.000000 
-1.482581 1.855896 0.000000 
-1.433927 1.862437 0.000000 
-1.386311 1.870352 0.000000 
-1.337319 1.879082 0.000000 
-1.286363 1.886162 0.000000 
-1.235962 1.886879 0.000000 
-1.188452 1.891692 0.000000 
-1.140860 1.901143 0.000000 
-1.091558 1.900453 0.000000 
-1.038962 1.889434 0.000000 
-0.982519 1.870436 0.000000 
-0.922315 1.853694 0.000000 
-0.869867 1.843369 0.000000 
-0.827747 1.836879 0.000000 
-0.785371 1.831968 0.000000 
-0.748025 1.822231 0.000000 
-0.712781 1.811963 0.000000 
-0.681690 1.798032 0.000000 
-0.657198 1.786897 0.000000 
-0.633895 1.780234 0.000000 
-0.612002 1.775779 0.000000 
-0.594184 1.768566 0.000000 
-0.577381 1.759116 0.000000 
-0.560109 1.743832 0.000000 
-0.540091 1.711378 0.000000 
-1.243914 0.072532 0.000000 
-1.232782 0.086249 0.000000 
-1.257376 0.058179 0.000000 
-1.224378 0.104949 0.000000 
-1.271472 0.038833 0.000000 
-1.215702 0.126946 0.000000 
-1.204660 0.153002 0.000000 
-1.290143 0.011091 0.000000 
-1.314447 -0.033949 0.000000 
-1.190204 0.183309 0.000000 
-1.318041 -0.087303 0.000000 
-1.171655 0.217465 0.000000 
-1.149359 0.253779 0.000000 
-1.123094 0.292028 0.000000 
-1.284246 -0.137282 0.000000 
-1.239750 -0.188009 0.000000 
-1.083297 0.336019 0.000000 
-1.028190 0.367690 0.000000 
-1.181630 -0.230365 0.000000 
-1.112789 -0.261793 0.000000 
-1.040643 -0.273963 0.000000 
-0.978118 -0.277050 0.000000 
-0.927392 -0.290075 0.000000 
-0.889718 -0.329210 0.000000 
-0.873564 -0.385760 0.000000 
-0.920771 -0.417954 0.000000 
-0.935346 -0.350685 0.000000 
-0.991249 -0.427530 0.000000 
-1.088918 -0.424802 0.000000 
-1.067426 -0.345150 0.000000 
-1.189474 -0.417238 0.000000 
-1.147229 -0.332483 0.000000 
-1.266509 -0.393948 0.000000 
-1.219913 -0.306305 0.000000 
-1.335307 -0.358121 0.000000 
-1.284456 -0.268306 0.000000 
-1.402357 -0.314218 0.000000 
-1.341444 -0.220505 0.000000 
-1.466758 -0.261542 0.000000 
-1.539152 -0.200743 0.000000 
-1.393011 -0.162574 0.000000 
-1.612839 -0.130472 0.000000 
-1.665320 -0.072893 0.000000 
-1.691220 -0.008067 0.000000 
-1.704696 0.077427 0.000000 
-1.850073 0.244296 0.000000 
-1.911042 0.188471 0.000000 
-1.969645 0.131634 0.000000 
-1.726970 0.183838 0.000000 
-0.222881 0.391667 0.000000 
-0.195707 0.364084 0.000000 
-0.164205 0.327137 0.000000 
-0.127520 0.294439 0.000000 
-0.095686 0.264948 0.000000 
-0.059027 0.236469 0.000000 
-0.018954 0.206486 0.000000 
0.030296 0.175215 0.000000 
0.086536 0.154689 0.000000 
0.141893 0.135958 0.000000 
0.202102 0.106678 0.000000 
0.263408 0.066761 0.000000 
0.311661 0.016774 0.000000 
0.333954 -0.042848 0.000000 
0.338621 -0.103298 0.000000 
0.341530 -0.157237 0.000000 
0.353165 -0.207426 0.000000 
0.365710 -0.265848 0.000000 
0.363543 -0.335377 0.000000 
[...]
POINT_DATA 899 
VECTORS X_GC float 
-3.648847 2.331687 0.000000 
-3.619410 2.291135 0.000000 
-3.578536 2.255541 0.000000 
-3.540028 2.219890 0.000000 
-3.511690 2.187694 0.000000 
-3.481362 2.157836 0.000000 
-3.451569 2.117162 0.000000 
0.772356 2.234201 0.000000 
0.774615 2.208080 0.000000 
0.769962 2.179326 0.000000 
-3.399514 2.086887 0.000000 
0.413960 -0.557956 0.000000 
0.455573 -0.553653 0.000000 
-1.762619 -0.457851 0.000000 
-1.783389 -0.422455 0.000000 
-1.714437 -0.393665 0.000000 
0.732567 2.228526 0.000000 
0.698438 2.214690 0.000000 
0.491831 -0.539450 0.000000 
0.519501 -0.509045 0.000000 
0.530556 -0.468598 0.000000 
0.532354 -0.422794 0.000000 
0.531774 -0.372287 0.000000 
-3.460923 2.025154 0.000000 
0.663989 2.192743 0.000000 
0.631675 2.165349 0.000000 
0.601833 2.141293 0.000000 
0.569607 2.118035 0.000000 
0.534059 2.095958 0.000000 
0.492599 2.074818 0.000000 
0.444403 2.056153 0.000000 
0.762807 2.138352 0.000000 
-1.708694 -0.359283 0.000000 
-1.726386 -0.319019 0.000000 
-1.761257 -0.294999 0.000000 
-1.812853 -0.287150 0.000000 
-0.690422 -0.539486 0.000000 
-0.624256 -0.557413 0.000000 
-0.561079 -0.565595 0.000000 
-0.500739 -0.567051 0.000000 
-0.445387 -0.567113 0.000000 
0.532260 -0.313204 0.000000 
0.536647 -0.243870 0.000000 
-1.881389 -0.274650 0.000000 
-0.389303 -0.564838 0.000000 
-0.340338 -0.549553 0.000000 
-0.344339 -0.495418 0.000000 
-0.358558 -0.442878 0.000000 
-0.381750 -0.401967 0.000000 
-0.406193 -0.367792 0.000000 
-0.417316 -0.336294 0.000000 
-0.428320 -0.302038 0.000000 
-0.436973 -0.257773 0.000000 
-0.444212 -0.202230 0.000000 
-0.452662 -0.143372 0.000000 
-0.468602 -0.086473 0.000000 
0.553166 -0.179156 0.000000 
0.573193 -0.121485 0.000000 
0.574450 -0.069744 0.000000 
0.561087 -0.019424 0.000000 
0.550432 0.035899 0.000000 
0.748903 2.085034 0.000000 
0.730940 2.028541 0.000000 
0.715868 1.982382 0.000000 
0.699446 1.946254 0.000000 
0.684888 1.905265 0.000000 
0.675900 1.859060 0.000000 
0.669871 1.809500 0.000000 
0.664455 1.761643 0.000000 
0.668163 1.715224 0.000000 
0.672091 1.665390 0.000000 
0.674558 1.617367 0.000000 
0.673045 1.567288 0.000000 
0.386491 2.046473 0.000000 
0.664855 1.508549 0.000000 
0.652298 1.450471 0.000000 
0.638456 1.396821 0.000000 
0.623121 1.347311 0.000000 
0.616008 1.304284 0.000000 
0.600787 1.269342 0.000000 
0.571289 1.239893 0.000000 
0.539016 1.208731 0.000000 
0.513857 1.179832 0.000000 
0.493343 1.153597 0.000000 
0.469109 1.135785 0.000000 
0.444920 1.119340 0.000000 
0.415324 1.098374 0.000000 
0.383540 1.073622 0.000000 
0.356179 1.044290 0.000000 
0.343879 1.005390 0.000000 
0.337476 0.959870 0.000000 
0.332404 0.914583 0.000000 
0.328512 0.874894 0.000000 
0.319594 0.838814 0.000000 
0.304149 0.805403 0.000000 
0.290502 0.765012 0.000000 
0.275896 0.717150 0.000000 
0.261905 0.675181 0.000000 
0.250150 0.641586 0.000000 
0.250896 0.603781 0.000000 
0.259587 0.561177 0.000000 
0.284617 0.518404 0.000000 
0.315237 0.488743 0.000000 
0.340022 0.469306 0.000000 
0.354380 0.443457 0.000000 
0.368685 0.416315 0.000000 
0.385568 0.389918 0.000000 
0.415372 0.365121 0.000000 
0.447119 0.333409 0.000000 
0.477633 0.305492 0.000000 
0.503078 0.277556 0.000000 
0.518876 0.239502 0.000000 
0.527127 0.203533 0.000000 
0.534187 0.158988 0.000000 
0.543185 0.098208 0.000000 
0.322519 2.035417 0.000000 
0.263849 2.022300 0.000000 
0.208223 2.016881 0.000000 
0.150441 2.013052 0.000000 
-0.687392 -0.466418 0.000000 
-3.327058 2.060655 0.000000 
-3.276080 2.014233 0.000000 
-3.224941 1.980646 0.000000 
-3.181728 1.951488 0.000000 
-3.135074 1.914558 0.000000 
-3.078123 1.890265 0.000000 
-1.944260 -0.229771 0.000000 
0.083204 2.018208 0.000000 
0.005786 2.012855 0.000000 
-0.071812 2.022094 0.000000 
-0.135705 2.051635 0.000000 
-0.182391 2.093241 0.000000 
-1.999041 -0.158803 0.000000 
-1.843230 -0.433312 0.000000 
-0.491126 -0.022513 0.000000 
-0.512312 0.050730 0.000000 
-0.526535 0.113562 0.000000 
-0.527935 0.175684 0.000000 
-0.524207 0.242854 0.000000 
-0.505864 0.299986 0.000000 
-0.468875 0.349198 0.000000 
-0.410369 0.378443 0.000000 
-0.354013 0.399560 0.000000 
-0.301050 0.409505 0.000000 
-0.255730 0.410278 0.000000 
-0.695595 -0.388123 0.000000 
-0.726457 -0.311241 0.000000 
-0.747352 -0.241786 0.000000 
-3.396487 2.003519 0.000000 
-3.344056 1.924131 0.000000 
-3.294256 1.880731 0.000000 
-3.248246 1.842406 0.000000 
-3.196818 1.803053 0.000000 
-3.159669 1.751743 0.000000 
-3.113281 1.705038 0.000000 
-3.056061 1.685475 0.000000 
-2.996684 1.662850 0.000000 
-2.933161 1.633234 0.000000 
-2.879064 1.597091 0.000000 
-2.813006 1.572305 0.000000 
-2.751664 1.549255 0.000000 
-2.686782 1.519932 0.000000 
-1.922020 -0.430505 0.000000 
-1.999705 -0.432004 0.000000 
-2.060018 -0.410400 0.000000 
-2.032615 -0.075413 0.000000 
-2.048550 0.010310 0.000000 
-2.029059 0.076203 0.000000 
-2.105228 -0.353342 0.000000 
-2.154373 -0.285747 0.000000 
-2.203584 -0.231123 0.000000 
-2.237020 -0.169688 0.000000 
-2.250593 -0.104395 0.000000 
-2.270119 -0.032611 0.000000 
-2.297898 0.037699 0.000000 
-2.327118 0.099279 0.000000 
-2.346747 0.153249 0.000000 
-2.362840 0.206358 0.000000 
-2.374561 0.257403 0.000000 
-2.373128 0.309379 0.000000 
-2.334174 0.375969 0.000000 
-2.331842 0.416587 0.000000 
-2.284565 0.425346 0.000000 
-0.236368 2.142776 0.000000 
-0.299146 2.186603 0.000000 
-0.346614 2.206528 0.000000 
-0.382877 2.170025 0.000000 
-0.412447 2.140975 0.000000 
-0.433989 2.100688 0.000000 
-0.446472 2.057721 0.000000 
-0.451628 2.018403 0.000000 
-0.451047 1.979941 0.000000 
-0.449242 1.943937 0.000000 
-0.453345 1.912048 0.000000 
-0.460251 1.884354 0.000000 
-0.470304 1.855569 0.000000 
-0.475290 1.826079 0.000000 
-0.478341 1.796294 0.000000 
-0.479442 1.759558 0.000000 
-2.609147 1.506143 0.000000 
-2.517189 1.500645 0.000000 
-2.434013 1.500981 0.000000 
-2.352624 1.490950 0.000000 
-2.274410 1.471579 0.000000 
-2.204499 1.436930 0.000000 
-2.180326 1.368047 0.000000 
-2.178559 1.279511 0.000000 
-2.168273 1.189482 0.000000 
-2.159086 1.091418 0.000000 
-2.144575 1.002259 0.000000 
-2.163040 0.927042 0.000000 
-2.183612 0.852951 0.000000 
-2.172907 0.788393 0.000000 
-2.161614 0.725638 0.000000 
-2.169833 0.665526 0.000000 
-2.188987 0.603773 0.000000 
-2.218663 0.552527 0.000000 
-2.229021 0.496654 0.000000 
-2.997130 1.873468 0.000000 
-3.021908 1.775330 0.000000 
-2.902046 1.841961 0.000000 
-0.770600 -0.159193 0.000000 
-0.790096 -0.067534 0.000000 
-0.811857 0.013174 0.000000 
-0.835807 0.091738 0.000000 
-0.859157 0.161866 0.000000 
-0.881226 0.221917 0.000000 
-0.903169 0.281268 0.000000 
-0.928196 0.345312 0.000000 
-2.785442 1.809408 0.000000 
-2.944278 1.748666 0.000000 
-2.855014 1.711520 0.000000 
-2.796189 1.651440 0.000000 
-2.651235 1.794662 0.000000 
-2.517962 1.784314 0.000000 
-2.394240 1.775152 0.000000 
-2.275192 1.767155 0.000000 
-2.180847 1.742594 0.000000 
-2.099904 1.716115 0.000000 
-2.018420 1.684875 0.000000 
-1.945469 1.689172 0.000000 
-1.885190 1.722512 0.000000 
-1.829736 1.743081 0.000000 
-1.760875 1.768312 0.000000 
-1.680504 1.796737 0.000000 
-1.617798 1.815054 0.000000 
-1.570169 1.829577 0.000000 
-1.527149 1.843767 0.000000 
-1.482581 1.855896 0.000000 
-1.433927 1.862437 0.000000 
-1.386311 1.870352 0.000000 
-1.337319 1.879082 0.000000 
-1.286363 1.886162 0.000000 
-1.235962 1.886879 0.000000 
-1.188452 1.891692 0.000000 
-1.140860 1.901143 0.000000 
-1.091558 1.900453 0.000000 
-1.038962 1.889434 0.000000 
-0.982519 1.870436 0.000000 
-0.922315 1.853694 0.000000 
-0.869867 1.843369 0.000000 
-0.827747 1.836879 0.000000 
-0.785371 1.831968 0.000000 
-0.748025 1.822231 0.000000 
-0.712781 1.811963 0.000000 
-0.681690 1.798032 0.000000 
-0.657198 1.786897 0.000000 
-0.633895 1.780234 0.000000 
-0.612002 1.775779 0.000000 
-0.594184 1.768566 0.000000 
-0.577381 1.759116 0.000000 
-0.560109 1.743832 0.000000 
-0.540091 1.711378 0.000000 
-1.243914 0.072532 0.000000 
-1.232782 0.086249 0.000000 
-1.257376 0.058179 0.000000 
-1.224378 0.104949 0.000000 
-1.271472 0.038833 0.000000 
-1.215702 0.126946 0.000000 
-1.204660 0.153002 0.000000 
-1.290143 0.011091 0.000000 
-1.314447 -0.033949 0.000000 
-1.190204 0.183309 0.000000 
-1.318041 -0.087303 0.000000 
-1.171655 0.217465 0.000000 
-1.149359 0.253779 0.000000 
-1.123094 0.292028 0.000000 
-1.284246 -0.137282 0.000000 
-1.239750 -0.188009 0.000000 
-1.083297 0.336019 0.000000 
-1.028190 0.367690 0.000000 
-1.181630 -0.230365 0.000000 
-1.112789 -0.261793 0.000000 
-1.040643 -0.273963 0.000000 
-0.978118 -0.277050 0.000000 
-0.927392 -0.290075 0.000000 
-0.889718 -0.329210 0.000000 
-0.873564 -0.385760 0.000000 
-0.920771 -0.417954 0.000000 
-0.935346 -0.350685 0.000000 
-0.991249 -0.427530 0.000000 
-1.088918 -0.424802 0.000000 
-1.067426 -0.345150 0.000000 
-1.189474 -0.417238 0.000000 
-1.147229 -0.332483 0.000000 
-1.266509 -0.393948 0.000000 
-1.219913 -0.306305 0.000000 
-1.335307 -0.358121 0.000000 
-1.284456 -0.268306 0.000000 
-1.402357 -0.314218 0.000000 
-1.341444 -0.220505 0.000000 
-1.466758 -0.261542 0.000000 
-1.539152 -0.200743 0.000000 
-1.393011 -0.162574 0.000000 
-1.612839 -0.130472 0.000000 
-1.665320 -0.072893 0.000000 
-1.691220 -0.008067 0.000000 
-1.704696 0.077427 0.000000 
-1.850073 0.244296 0.000000 
-1.911042 0.188471 0.000000 
-1.969645 0.131634 0.000000 
-1.726970 0.183838 0.000000 
-0.222881 0.391667 0.000000 
-0.195707 0.364084 0.000000 
-0.164205 0.327137 0.000000 
-0.127520 0.294439 0.000000 
-0.095686 0.264948 0.000000 
-0.059027 0.236469 0.000000 
-0.018954 0.206486 0.000000 
0.030296 0.175215 0.000000 
0.086536 0.154689 0.000000 
0.141893 0.135958 0.000000 
0.202102 0.106678 0.000000 
0.263408 0.066761 0.000000 
0.311661 0.016774 0.000000 
0.333954 -0.042848 0.000000 
0.338621 -0.103298 0.000000 
0.341530 -0.157237 0.000000 
0.353165 -0.207426 0.000000 
0.365710 -0.265848 0.000000 
0.363543 -0.335377 0.000000 
0.357353 -0.397492 0.000000 
0.351188 -0.448234 0.000000 
0.363842 -0.495262 0.000000 
-1.737069 -0.361913 0.000000 
-0.199590 0.444285 0.000000 
-0.156305 0.414369 0.000000 
-0.462327 1.680324 0.000000 
0.741313 2.202899 0.000000 
0.482415 -0.506033 0.000000 
0.446104 -0.513929 0.000000 
0.403556 -0.519583 0.000000 
-0.104001 0.386304 0.000000 
-0.514998 1.612379 0.000000 
-0.059937 0.351899 0.000000 
0.738519 2.177634 0.000000 
0.714572 2.189934 0.000000 
-0.249752 0.471108 0.000000 
-0.036232 0.308101 0.000000 
0.000772 0.280268 0.000000 
0.035161 0.254624 0.000000 
-1.776537 -0.361355 0.000000 
-1.836238 -0.357170 0.000000 
-0.309416 0.485208 0.000000 
-0.378944 0.482944 0.000000 
-2.292732 0.362532 0.000000 
-2.315166 0.312541 0.000000 
-2.314418 0.264984 0.000000 
-2.293418 0.218598 0.000000 
-2.279687 0.168719 0.000000 
-2.253462 0.121453 0.000000 
0.075120 0.226881 0.000000 
0.131113 0.214273 0.000000 
-0.977004 0.416256 0.000000 
-0.860050 0.406091 0.000000 
-1.912142 -0.349114 0.000000 
-1.989966 -0.357894 0.000000 
-2.023752 -0.290352 0.000000 
-2.082175 -0.219091 0.000000 
0.723889 2.146121 0.000000 
0.691466 2.164964 0.000000 
0.665980 2.132317 0.000000 
0.704783 2.105049 0.000000 
0.637970 2.094259 0.000000 
0.681732 2.057840 0.000000 
0.670916 2.011665 0.000000 
0.602858 2.062591 0.000000 
0.659584 1.971241 0.000000 
0.560783 2.036220 0.000000 
0.636111 1.935167 0.000000 
0.607495 1.885376 0.000000 
0.595324 1.821895 0.000000 
0.604052 1.757222 0.000000 
0.514160 2.006817 0.000000 
0.453857 1.979372 0.000000 
0.392525 1.977393 0.000000 
0.334098 1.975865 0.000000 
0.278675 1.957111 0.000000 
0.217273 1.939036 0.000000 
0.149449 1.921680 0.000000 
0.614128 1.704946 0.000000 
0.621313 1.657367 0.000000 
0.624262 1.612487 0.000000 
-2.197766 0.068265 0.000000 
-2.158682 -0.006659 0.000000 
-2.124695 0.127595 0.000000 
-2.150589 -0.172785 0.000000 
-2.141926 -0.095239 0.000000 
-0.393439 -0.511799 0.000000 
-0.412631 -0.467756 0.000000 
-0.436983 -0.427153 0.000000 
-0.445953 -0.383733 0.000000 
-0.458251 -0.350907 0.000000 
-0.479726 -0.316141 0.000000 
-0.496934 -0.267410 0.000000 
-0.509002 -0.212326 0.000000 
-0.517157 -0.157996 0.000000 
-0.545309 -0.106721 0.000000 
-0.442273 -0.509194 0.000000 
-0.496002 -0.499677 0.000000 
-0.557668 -0.501783 0.000000 
-0.618975 -0.486303 0.000000 
-0.334659 2.144715 0.000000 
-0.367985 2.114998 0.000000 
-0.385153 2.078572 0.000000 
-0.396797 2.044705 0.000000 
-0.406285 2.009183 0.000000 
-0.402558 1.970049 0.000000 
-0.406645 1.931606 0.000000 
-0.418378 1.899192 0.000000 
-0.428059 1.870066 0.000000 
-0.435849 1.840519 0.000000 
-0.442335 1.810484 0.000000 
-0.445406 1.777419 0.000000 
-0.444483 1.731703 0.000000 
0.619822 1.566755 0.000000 
-1.077870 0.463320 0.000000 
-1.149036 0.421362 0.000000 
-1.174735 0.346519 0.000000 
-1.192231 0.294796 0.000000 
-1.210811 0.253019 0.000000 
-1.228352 0.213680 0.000000 
-1.238869 0.175699 0.000000 
-1.244643 0.144202 0.000000 
-1.248534 0.119301 0.000000 
-1.252336 0.100013 0.000000 
-1.262323 0.086762 0.000000 
-1.280319 0.075846 0.000000 
-0.451814 0.460284 0.000000 
-0.526928 0.416762 0.000000 
0.194935 0.197281 0.000000 
0.069048 1.907580 0.000000 
-0.574175 0.346078 0.000000 
-0.593607 0.264975 0.000000 
-1.764101 0.304660 0.000000 
-2.210991 0.423516 0.000000 
-0.825996 0.320814 0.000000 
-0.799223 0.249734 0.000000 
-0.760911 0.183300 0.000000 
0.605964 1.515804 0.000000 
0.587834 1.458444 0.000000 
0.576354 1.398595 0.000000 
0.574971 1.343587 0.000000 
0.580375 1.300562 0.000000 
0.545179 1.278178 0.000000 
0.509957 1.245916 0.000000 
0.484198 1.209513 0.000000 
0.468721 1.178359 0.000000 
0.449386 1.159828 0.000000 
0.422962 1.147162 0.000000 
0.391379 1.128011 0.000000 
0.357154 1.103948 0.000000 
0.323730 1.075576 0.000000 
-0.582151 -0.045853 0.000000 
0.265957 0.170851 0.000000 
0.333763 0.124722 0.000000 
0.378371 0.057706 0.000000 
0.400918 -0.016689 0.000000 
0.401084 -0.079678 0.000000 
0.404345 -0.133779 0.000000 
0.432648 -0.184861 0.000000 
0.450030 -0.249302 0.000000 
0.529803 -0.096148 0.000000 
0.491947 -0.144286 0.000000 
0.453243 -0.094402 0.000000 
0.449550 -0.323626 0.000000 
0.498420 -0.050275 0.000000 
0.474171 0.009666 0.000000 
0.457863 0.084240 0.000000 
0.462195 -0.382280 0.000000 
0.478704 -0.428616 0.000000 
0.483460 -0.469582 0.000000 
0.412910 -0.407922 0.000000 
0.398390 -0.446635 0.000000 
0.404290 -0.480922 0.000000 
0.442452 -0.476364 0.000000 
0.436659 -0.441200 0.000000 
-0.727378 0.109167 0.000000 
-0.616071 0.191185 0.000000 
-0.623548 0.116905 0.000000 
-0.605779 0.035897 0.000000 
-0.706340 0.023449 0.000000 
-0.681483 -0.062813 0.000000 
-0.032304 1.902020 0.000000 
-0.128010 1.938169 0.000000 
-0.195732 2.005293 0.000000 
-0.243911 2.059207 0.000000 
-0.287859 2.106611 0.000000 
-0.335518 2.078915 0.000000 
-0.667608 -0.148194 0.000000 
-0.584906 -0.154962 0.000000 
-0.658169 -0.228202 0.000000 
-0.578442 -0.220332 0.000000 
-0.639050 -0.299645 0.000000 
-0.607982 -0.375162 0.000000 
-0.562541 -0.283031 0.000000 
-0.536184 -0.344055 0.000000 
-0.495978 -0.382016 0.000000 
-0.500680 -0.434411 0.000000 
-0.573051 -0.438864 0.000000 
-2.690892 1.675314 0.000000 
-2.684799 1.589301 0.000000 
-2.602920 1.588039 0.000000 
-2.574381 1.673032 0.000000 
-2.518122 1.607906 0.000000 
-2.424460 1.631804 0.000000 
-2.320006 1.622873 0.000000 
-2.229986 1.599255 0.000000 
-2.146342 1.558015 0.000000 
-1.455055 -0.103593 0.000000 
-1.387692 -0.023269 0.000000 
-1.339496 0.030059 0.000000 
-1.304977 0.058619 0.000000 
-1.531301 -0.038100 0.000000 
-1.604385 0.006012 0.000000 
-1.592423 0.106693 0.000000 
-1.608296 0.230656 0.000000 
-1.827918 0.429101 0.000000 
0.477873 0.197905 0.000000 
0.477147 0.232803 0.000000 
0.465631 0.267043 0.000000 
-0.587742 1.711253 0.000000 
-0.593403 1.735356 0.000000 
-0.604579 1.748012 0.000000 
-0.619289 1.753698 0.000000 
-0.639577 1.751525 0.000000 
-0.665912 1.753141 0.000000 
-0.697937 1.760128 0.000000 
-0.595692 1.657764 0.000000 
-0.726123 1.774939 0.000000 
-0.757398 1.785510 0.000000 
-0.794522 1.782934 0.000000 
-0.841416 1.780357 0.000000 
-0.894922 1.781717 0.000000 
-0.956071 1.790133 0.000000 
-1.020951 1.809054 0.000000 
-1.077937 1.836689 0.000000 
-1.120258 1.865417 0.000000 
-1.171769 1.841157 0.000000 
0.332207 0.394548 0.000000 
0.333662 0.352813 0.000000 
0.321472 0.423165 0.000000 
0.302407 0.449978 0.000000 
0.214022 0.464639 0.000000 
0.194081 0.525664 0.000000 
0.186716 0.581177 0.000000 
0.189303 0.633949 0.000000 
0.360023 0.313131 0.000000 
0.405131 0.287998 0.000000 
0.201671 0.683195 0.000000 
0.218038 0.733456 0.000000 
0.236652 0.782390 0.000000 
0.256885 0.824323 0.000000 
0.278373 0.852818 0.000000 
0.284019 0.886216 0.000000 
0.276718 0.932963 0.000000 
0.278735 0.989776 0.000000 
0.296322 1.040043 0.000000 
-1.507867 1.792915 0.000000 
-1.548116 1.768273 0.000000 
-1.598023 1.740893 0.000000 
-1.467251 1.807689 0.000000 
-1.422160 1.814972 0.000000 
-1.373311 1.821688 0.000000 
-1.322903 1.829465 0.000000 
-1.275577 1.838711 0.000000 
-1.225048 1.837311 0.000000 
-1.662214 1.717224 0.000000 
-1.732600 1.697284 0.000000 
-1.794687 1.682909 0.000000 
-1.841773 1.653721 0.000000 
-2.078405 0.720994 0.000000 
-2.079214 0.799583 0.000000 
-2.097651 0.643394 0.000000 
-2.129318 0.571655 0.000000 
-2.096743 0.880146 0.000000 
-2.169699 0.516312 0.000000 
-1.991686 0.443311 0.000000 
-1.642187 0.368867 0.000000 
-1.989898 0.276087 0.000000 
-2.064526 0.204274 0.000000 
-1.914688 0.349621 0.000000 
-2.037969 1.132698 0.000000 
-2.021377 1.017013 0.000000 
-2.055796 1.261859 0.000000 
-2.102728 1.364513 0.000000 
-2.047875 1.506815 0.000000 
0.428030 0.253546 0.000000 
0.375625 0.232310 0.000000 
0.313454 0.245411 0.000000 
0.290352 0.391445 0.000000 
0.238487 1.102363 0.000000 
0.440631 0.215438 0.000000 
0.396678 0.175661 0.000000 
0.460488 0.149741 0.000000 
0.523747 1.325853 0.000000 
-2.262588 0.289107 0.000000 
-2.220468 0.345135 0.000000 
-2.218579 0.235596 0.000000 
-2.146376 0.287446 0.000000 
-2.206503 0.170526 0.000000 
0.473879 1.287241 0.000000 
0.446488 1.234909 0.000000 
0.440978 1.190891 0.000000 
0.409581 1.183035 0.000000 
0.629179 2.011931 0.000000 
0.593839 1.979458 0.000000 
0.550362 1.935254 0.000000 
0.483841 1.894831 0.000000 
0.202470 1.035999 0.000000 
0.241245 0.888223 0.000000 
0.205152 0.863422 0.000000 
0.175878 0.815282 0.000000 
0.153326 0.756775 0.000000 
0.132079 0.696326 0.000000 
0.113278 0.631870 0.000000 
0.106000 0.563547 0.000000 
0.109640 0.494350 0.000000 
0.121648 0.423672 0.000000 
0.032483 0.334058 0.000000 
0.246820 0.416736 0.000000 
0.099619 0.282423 0.000000 
0.373127 1.168153 0.000000 
-0.307911 2.031293 0.000000 
-0.360136 2.012824 0.000000 
-0.343252 1.958478 0.000000 
-0.270247 1.966622 0.000000 
0.168337 0.278942 0.000000 
0.242346 0.268604 0.000000 
0.270369 0.337641 0.000000 
0.505525 1.393614 0.000000 
-0.689828 0.220869 0.000000 
-0.729540 0.278273 0.000000 
-0.746154 0.352746 0.000000 
-0.657668 0.369310 0.000000 
-0.661195 0.285023 0.000000 
-0.924642 0.521986 0.000000 
-1.137284 1.785349 0.000000 
-1.072920 1.740755 0.000000 
-1.248127 1.797646 0.000000 
-1.304069 1.781324 0.000000 
-1.360197 1.773663 0.000000 
-1.411221 1.769524 0.000000 
-1.453165 1.766294 0.000000 
-1.486003 1.748832 0.000000 
-1.510814 1.705363 0.000000 
-1.558800 1.660694 0.000000 
-0.995058 1.714002 0.000000 
-0.919611 1.703526 0.000000 
-0.852227 1.710458 0.000000 
-0.796966 1.726976 0.000000 
-0.752732 1.746145 0.000000 
-1.635591 1.633361 0.000000 
-1.992480 0.908063 0.000000 
-1.965104 0.798283 0.000000 
-1.974377 0.694950 0.000000 
-2.014368 0.601329 0.000000 
-2.065453 0.518143 0.000000 
-2.071492 0.365076 0.000000 
-2.131272 0.448612 0.000000 
-1.712039 1.620038 0.000000 
-1.781280 1.619989 0.000000 
-1.884796 1.589932 0.000000 
0.516332 1.809594 0.000000 
0.538779 1.738466 0.000000 
0.517174 1.468000 0.000000 
0.552532 1.529936 0.000000 
0.576896 1.571862 0.000000 
0.583356 1.608889 0.000000 
0.576083 1.645893 0.000000 
0.562288 1.688253 0.000000 