# vtk DataFile Version 3.0 
vtk output 
ASCII 
DATASET UNSTRUCTURED_GRID 
POINTS 899 float 
-3.648847 2.332599 0.000000 
-3.619410 2.292047 0.000000 
-3.578536 2.256453 0.000000 
-3.540028 2.220802 0.000000 
-3.511690 2.188606 0.000000 
-3.481362 2.158748 0.000000 
-3.451569 2.118075 0.000000 
0.772356 2.235113 0.000000 
0.774615 2.208992 0.000000 
0.769962 2.180238 0.000000 
-3.399514 2.087799 0.000000 
0.413960 -0.557043 0.000000 
0.455573 -0.552741 0.000000 
-1.762619 -0.456939 0.000000 
-1.783389 -0.421542 0.000000 
-1.714437 -0.392753 0.000000 
0.732567 2.229438 0.000000 
0.698438 2.215602 0.000000 
0.491831 -0.538538 0.000000 
0.519501 -0.508133 0.000000 
0.530556 -0.467686 0.000000 
0.532354 -0.421882 0.000000 
0.531774 -0.371375 0.000000 
-3.460923 2.026066 0.000000 
0.663989 2.193656 0.000000 
0.631675 2.166261 0.000000 
0.601833 2.142205 0.000000 
0.569607 2.118948 0.000000 
0.534059 2.096870 0.000000 
0.492599 2.075730 0.000000 
0.444403 2.057065 0.000000 
0.762807 2.139264 0.000000 
-1.708694 -0.358371 0.000000 
-1.726386 -0.318107 0.000000 
-1.761257 -0.294086 0.000000 
-1.812853 -0.286238 0.000000 
-0.690422 -0.538573 0.000000 
-0.624256 -0.556501 0.000000 
-0.561079 -0.564683 0.000000 
-0.500739 -0.566138 0.000000 
-0.445387 -0.566201 0.000000 
0.532260 -0.312291 0.000000 
0.536647 -0.242958 0.000000 
-1.881389 -0.273737 0.000000 
-0.389303 -0.563926 0.000000 
-0.340338 -0.548641 0.000000 
-0.344339 -0.494506 0.000000 
-0.358558 -0.441966 0.000000 
-0.381750 -0.401055 0.000000 
-0.406193 -0.366880 0.000000 
-0.417316 -0.335382 0.000000 
-0.428320 -0.301125 0.000000 
-0.436973 -0.256861 0.000000 
-0.444212 -0.201318 0.000000 
-0.452662 -0.142460 0.000000 
-0.468602 -0.085561 0.000000 
0.553166 -0.178243 0.000000 
0.573193 -0.120572 0.000000 
0.574450 -0.068832 0.000000 
0.561087 -0.018512 0.000000 
0.550432 0.036811 0.000000 
0.748903 2.085946 0.000000 
0.730940 2.029454 0.000000 
0.715868 1.983294 0.000000 
0.699446 1.947166 0.000000 
0.684888 1.906177 0.000000 
0.675900 1.859972 0.000000 
0.669871 1.810413 0.000000 
0.664455 1.762556 0.000000 
0.668163 1.716136 0.000000 
0.672091 1.666303 0.000000 
0.674558 1.618279 0.000000 
0.673045 1.568200 0.000000 
0.386491 2.047385 0.000000 
0.664855 1.509461 0.000000 
0.652298 1.451383 0.000000 
0.638456 1.397733 0.000000 
0.623121 1.348223 0.000000 
0.616008 1.305196 0.000000 
0.600787 1.270254 0.000000 
0.571289 1.240805 0.000000 
0.539016 1.209644 0.000000 
0.513857 1.180745 0.000000 
0.493343 1.154510 0.000000 
0.469109 1.136697 0.000000 
0.444920 1.120253 0.000000 
0.415324 1.099287 0.000000 
0.383540 1.074535 0.000000 
0.356179 1.045202 0.000000 
0.343879 1.006303 0.000000 
0.337476 0.960782 0.000000 
0.332404 0.915496 0.000000 
0.328512 0.875806 0.000000 
0.319594 0.839726 0.000000 
0.304149 0.806315 0.000000 
0.290502 0.765925 0.000000 
0.275896 0.718062 0.000000 
0.261905 0.676093 0.000000 
0.250150 0.642498 0.000000 
0.250896 0.604693 0.000000 
0.259587 0.562090 0.000000 
0.284617 0.519317 0.000000 
0.315237 0.489655 0.000000 
0.340022 0.470219 0.000000 
0.354380 0.444370 0.000000 
0.368685 0.417227 0.000000 
0.385568 0.390831 0.000000 
0.415372 0.366034 0.000000 
0.447119 0.334321 0.000000 
0.477633 0.306405 0.000000 
0.503078 0.278468 0.000000 
0.518876 0.240414 0.000000 
0.527127 0.204446 0.000000 
0.534187 0.159900 0.000000 
0.543185 0.099120 0.000000 
0.322519 2.036329 0.000000 
0.263849 2.023213 0.000000 
0.208223 2.017793 0.000000 
0.150441 2.013964 0.000000 
-0.687392 -0.465506 0.000000 
-3.327058 2.061567 0.000000 
-3.276080 2.015146 0.000000 
-3.224941 1.981559 0.000000 
-3.181728 1.952400 0.000000 
-3.135074 1.915470 0.000000 
-3.078123 1.891177 0.000000 
-1.944260 -0.228859 0.000000 
0.083204 2.019120 0.000000 
0.005786 2.013768 0.000000 
-0.071812 2.023006 0.000000 
-0.135705 2.052547 0.000000 
-0.182391 2.094153 0.000000 
-1.999041 -0.157891 0.000000 
-1.843230 -0.432399 0.000000 
-0.491126 -0.021601 0.000000 
-0.512312 0.051642 0.000000 
-0.526535 0.114475 0.000000 
-0.527935 0.176596 0.000000 
-0.524207 0.243766 0.000000 
-0.505864 0.300898 0.000000 
-0.468875 0.350110 0.000000 
-0.410369 0.379355 0.000000 
-0.354013 0.400472 0.000000 
-0.301050 0.410418 0.000000 
-0.255730 0.411190 0.000000 
-0.695595 -0.387211 0.000000 
-0.726457 -0.310329 0.000000 
-0.747352 -0.240874 0.000000 
-3.396487 2.004432 0.000000 
-3.344056 1.925044 0.000000 
-3.294256 1.881643 0.000000 
-3.248246 1.843319 0.000000 
-3.196818 1.803965 0.000000 
-3.159669 1.752655 0.000000 
-3.113281 1.705950 0.000000 
-3.056061 1.686387 0.000000 
-2.996684 1.663762 0.000000 
-2.933161 1.634146 0.000000 
-2.879064 1.598003 0.000000 
-2.813006 1.573218 0.000000 
-2.751664 1.550167 0.000000 
-2.686782 1.520845 0.000000 
-1.922020 -0.429593 0.000000 
-1.999705 -0.431091 0.000000 
-2.060018 -0.409488 0.000000 
-2.032615 -0.074500 0.000000 
-2.048550 0.011222 0.000000 
-2.029059 0.077115 0.000000 
-2.105228 -0.352429 0.000000 
-2.154373 -0.284835 0.000000 
-2.203584 -0.230211 0.000000 
-2.237020 -0.168775 0.000000 
-2.250593 -0.103483 0.000000 
-2.270119 -0.031699 0.000000 
-2.297898 0.038612 0.000000 
-2.327118 0.100191 0.000000 
-2.346747 0.154161 0.000000 
-2.362840 0.207271 0.000000 
-2.374561 0.258315 0.000000 
-2.373128 0.310291 0.000000 
-2.334174 0.376881 0.000000 
-2.331842 0.417499 0.000000 
-2.284565 0.426258 0.000000 
-0.236368 2.143688 0.000000 
-0.299146 2.187515 0.000000 
-0.346614 2.207440 0.000000 
-0.382877 2.170937 0.000000 
-0.412447 2.141888 0.000000 
-0.433989 2.101600 0.000000 
-0.446472 2.058634 0.000000 
-0.451628 2.019315 0.000000 
-0.451047 1.980853 0.000000 
-0.449242 1.944850 0.000000 
-0.453345 1.912960 0.000000 
-0.460251 1.885267 0.000000 
-0.470304 1.856481 0.000000 
-0.475290 1.826991 0.000000 
-0.478341 1.797206 0.000000 
-0.479442 1.760470 0.000000 
-2.609147 1.507055 0.000000 
-2.517189 1.501557 0.000000 
-2.434013 1.501894 0.000000 
-2.352624 1.491862 0.000000 
-2.274410 1.472491 0.000000 
-2.204499 1.437843 0.000000 
-2.180326 1.368960 0.000000 
-2.178559 1.280424 0.000000 
-2.168273 1.190395 0.000000 
-2.159086 1.092331 0.000000 
-2.144575 1.003172 0.000000 
-2.163040 0.927955 0.000000 
-2.183612 0.853863 0.000000 
-2.172907 0.789305 0.000000 
-2.161614 0.726550 0.000000 
-2.169833 0.666438 0.000000 
-2.188987 0.604685 0.000000 
-2.218663 0.553439 0.000000 
-2.229021 0.497566 0.000000 
-2.997130 1.874380 0.000000 
-3.021908 1.776243 0.000000 
-2.902046 1.842873 0.000000 
-0.770600 -0.158280 0.000000 
-0.790096 -0.066621 0.000000 
-0.811857 0.014086 0.000000 
-0.835807 0.092650 0.000000 
-0.859157 0.162778 0.000000 
-0.881226 0.222830 0.000000 
-0.903169 0.282180 0.000000 
-0.928196 0.346224 0.000000 
-2.785442 1.810320 0.000000 
-2.944278 1.749578 0.000000 
-2.855014 1.712432 0.000000 
-2.796189 1.652352 0.000000 
-2.651235 1.795574 0.000000 
-2.517962 1.785227 0.000000 
-2.394240 1.776064 0.000000 
-2.275192 1.768068 0.000000 
-2.180847 1.743506 0.000000 
-2.099904 1.717027 0.000000 
-2.018420 1.685787 0.000000 
-1.945469 1.690085 0.000000 
-1.885190 1.723425 0.000000 
-1.829736 1.743993 0.000000 
-1.760875 1.769225 0.000000 
-1.680504 1.797649 0.000000 
-1.617798 1.815966 0.000000 
-1.570169 1.830490 0.000000 
-1.527149 1.844680 0.000000 
-1.482581 1.856809 0.000000 
-1.433927 1.863349 0.000000 
-1.386311 1.871264 0.000000 
-1.337319 1.879994 0.000000 
-1.286363 1.887074 0.000000 
-1.235962 1.887792 0.000000 
-1.188452 1.892605 0.000000 
-1.140860 1.902056 0.000000 
-1.091558 1.901365 0.000000 
-1.038962 1.890346 0.000000 
-0.982519 1.871348 0.000000 
-0.922315 1.854606 0.000000 
-0.869867 1.844281 0.000000 
-0.827747 1.837792 0.000000 
-0.785371 1.832880 0.000000 
-0.748025 1.823143 0.000000 
-0.712781 1.812876 0.000000 
-0.681690 1.798944 0.000000 
-0.657198 1.787810 0.000000 
-0.633895 1.781146 0.000000 
-0.612002 1.776691 0.000000 
-0.594184 1.769478 0.000000 
-0.577381 1.760028 0.000000 
-0.560109 1.744745 0.000000 
-0.540091 1.712290 0.000000 
-1.243914 0.073445 0.000000 
-1.232782 0.087162 0.000000 
-1.257376 0.059091 0.000000 
-1.224378 0.105861 0.000000 
-1.271472 0.039745 0.000000 
-1.215702 0.127858 0.000000 
-1.204660 0.153915 0.000000 
-1.290143 0.012004 0.000000 
-1.314447 -0.033036 0.000000 
-1.190204 0.184221 0.000000 
-1.318041 -0.086390 0.000000 
-1.171655 0.218377 0.000000 
-1.149359 0.254692 0.000000 
-1.123094 0.292940 0.000000 
-1.284246 -0.136370 0.000000 
-1.239750 -0.187096 0.000000 
-1.083297 0.336931 0.000000 
-1.028190 0.368603 0.000000 
-1.181630 -0.229453 0.000000 
-1.112789 -0.260880 0.000000 
-1.040643 -0.273050 0.000000 
-0.978118 -0.276137 0.000000 
-0.927392 -0.289163 0.000000 
-0.889718 -0.328297 0.000000 
-0.873564 -0.384848 0.000000 
-0.920771 -0.417042 0.000000 
-0.935346 -0.349773 0.000000 
-0.991249 -0.426617 0.000000 
-1.088918 -0.423889 0.000000 
-1.067426 -0.344237 0.000000 
-1.189474 -0.416326 0.000000 
-1.147229 -0.331570 0.000000 
-1.266509 -0.393036 0.000000 
-1.219913 -0.305393 0.000000 
-1.335307 -0.357209 0.000000 
-1.284456 -0.267394 0.000000 
-1.402357 -0.313305 0.000000 
-1.341444 -0.219593 0.000000 
-1.466758 -0.260630 0.000000 
-1.539152 -0.199831 0.000000 
-1.393011 -0.161662 0.000000 
-1.612839 -0.129559 0.000000 
-1.665320 -0.071981 0.000000 
-1.691220 -0.007155 0.000000 
-1.704696 0.078339 0.000000 
-1.850073 0.245208 0.000000 
-1.911042 0.189384 0.000000 
-1.969645 0.132547 0.000000 
-1.726970 0.184750 0.000000 
-0.222881 0.392580 0.000000 
-0.195707 0.364997 0.000000 
-0.164205 0.328049 0.000000 
-0.127520 0.295351 0.000000 
-0.095686 0.265860 0.000000 
-0.059027 0.237382 0.000000 
-0.018954 0.207398 0.000000 
0.030296 0.176128 0.000000 
0.086536 0.155602 0.000000 
0.141893 0.136870 0.000000 
0.202102 0.107590 0.000000 
0.263408 0.067674 0.000000 
0.311661 0.017687 0.000000 
0.333954 -0.041936 0.000000 
0.338621 -0.102386 0.000000 
0.341530 -0.156325 0.000000 
0.353165 -0.206513 0.000000 
0.365710 -0.264936 0.000000 
0.363543 -0.334465 0.000000 
[...]
POINT_DATA 899 
VECTORS X_GC float 
-3.648847 2.332599 0.000000 
-3.619410 2.292047 0.000000 
-3.578536 2.256453 0.000000 
-3.540028 2.220802 0.000000 
-3.511690 2.188606 0.000000 
-3.481362 2.158748 0.000000 
-3.451569 2.118075 0.000000 
0.772356 2.235113 0.000000 
0.774615 2.208992 0.000000 
0.769962 2.180238 0.000000 
-3.399514 2.087799 0.000000 
0.413960 -0.557043 0.000000 
0.455573 -0.552741 0.000000 
-1.762619 -0.456939 0.000000 
-1.783389 -0.421542 0.000000 
-1.714437 -0.392753 0.000000 
0.732567 2.229438 0.000000 
0.698438 2.215602 0.000000 
0.491831 -0.538538 0.000000 
0.519501 -0.508133 0.000000 
0.530556 -0.467686 0.000000 
0.532354 -0.421882 0.000000 
0.531774 -0.371375 0.000000 
-3.460923 2.026066 0.000000 
0.663989 2.193656 0.000000 
0.631675 2.166261 0.000000 
0.601833 2.142205 0.000000 
0.569607 2.118948 0.000000 
0.534059 2.096870 0.000000 
0.492599 2.075730 0.000000 
0.444403 2.057065 0.000000 
0.762807 2.139264 0.000000 
-1.708694 -0.358371 0.000000 
-1.726386 -0.318107 0.000000 
-1.761257 -0.294086 0.000000 
-1.812853 -0.286238 0.000000 
-0.690422 -0.538573 0.000000 
-0.624256 -0.556501 0.000000 
-0.561079 -0.564683 0.000000 
-0.500739 -0.566138 0.000000 
-0.445387 -0.566201 0.000000 
0.532260 -0.312291 0.000000 
0.536647 -0.242958 0.000000 
-1.881389 -0.273737 0.000000 
-0.389303 -0.563926 0.000000 
-0.340338 -0.548641 0.000000 
-0.344339 -0.494506 0.000000 
-0.358558 -0.441966 0.000000 
-0.381750 -0.401055 0.000000 
-0.406193 -0.366880 0.000000 
-0.417316 -0.335382 0.000000 
-0.428320 -0.301125 0.000000 
-0.436973 -0.256861 0.000000 
-0.444212 -0.201318 0.000000 
-0.452662 -0.142460 0.000000 
-0.468602 -0.085561 0.000000 
0.553166 -0.178243 0.000000 
0.573193 -0.120572 0.000000 
0.574450 -0.068832 0.000000 
0.561087 -0.018512 0.000000 
0.550432 0.036811 0.000000 
0.748903 2.085946 0.000000 
0.730940 2.029454 0.000000 
0.715868 1.983294 0.000000 
0.699446 1.947166 0.000000 
0.684888 1.906177 0.000000 
0.675900 1.859972 0.000000 
0.669871 1.810413 0.000000 
0.664455 1.762556 0.000000 
0.668163 1.716136 0.000000 
0.672091 1.666303 0.000000 
0.674558 1.618279 0.000000 
0.673045 1.568200 0.000000 
0.386491 2.047385 0.000000 
0.664855 1.509461 0.000000 
0.652298 1.451383 0.000000 
0.638456 1.397733 0.000000 
0.623121 1.348223 0.000000 
0.616008 1.305196 0.000000 
0.600787 1.270254 0.000000 
0.571289 1.240805 0.000000 
0.539016 1.209644 0.000000 
0.513857 1.180745 0.000000 
0.493343 1.154510 0.000000 
0.469109 1.136697 0.000000 
0.444920 1.120253 0.000000 
0.415324 1.099287 0.000000 
0.383540 1.074535 0.000000 
0.356179 1.045202 0.000000 
0.343879 1.006303 0.000000 
0.337476 0.960782 0.000000 
0.332404 0.915496 0.000000 
0.328512 0.875806 0.000000 
0.319594 0.839726 0.000000 
0.304149 0.806315 0.000000 
0.290502 0.765925 0.000000 
0.275896 0.718062 0.000000 
0.261905 0.676093 0.000000 
0.250150 0.642498 0.000000 
0.250896 0.604693 0.000000 
0.259587 0.562090 0.000000 
0.284617 0.519317 0.000000 
0.315237 0.489655 0.000000 
0.340022 0.470219 0.000000 
0.354380 0.444370 0.000000 
0.368685 0.417227 0.000000 
0.385568 0.390831 0.000000 
0.415372 0.366034 0.000000 
0.447119 0.334321 0.000000 
0.477633 0.306405 0.000000 
0.503078 0.278468 0.000000 
0.518876 0.240414 0.000000 
0.527127 0.204446 0.000000 
0.534187 0.159900 0.000000 
0.543185 0.099120 0.000000 
0.322519 2.036329 0.000000 
0.263849 2.023213 0.000000 
0.208223 2.017793 0.000000 
0.150441 2.013964 0.000000 
-0.687392 -0.465506 0.000000 
-3.327058 2.061567 0.000000 
-3.276080 2.015146 0.000000 
-3.224941 1.981559 0.000000 
-3.181728 1.952400 0.000000 
-3.135074 1.915470 0.000000 
-3.078123 1.891177 0.000000 
-1.944260 -0.228859 0.000000 
0.083204 2.019120 0.000000 
0.005786 2.013768 0.000000 
-0.071812 2.023006 0.000000 
-0.135705 2.052547 0.000000 
-0.182391 2.094153 0.000000 
-1.999041 -0.157891 0.000000 
-1.843230 -0.432399 0.000000 
-0.491126 -0.021601 0.000000 
-0.512312 0.051642 0.000000 
-0.526535 0.114475 0.000000 
-0.527935 0.176596 0.000000 
-0.524207 0.243766 0.000000 
-0.505864 0.300898 0.000000 
-0.468875 0.350110 0.000000 
-0.410369 0.379355 0.000000 
-0.354013 0.400472 0.000000 
-0.301050 0.410418 0.000000 
-0.255730 0.411190 0.000000 
-0.695595 -0.387211 0.000000 
-0.726457 -0.310329 0.000000 
-0.747352 -0.240874 0.000000 
-3.396487 2.004432 0.000000 
-3.344056 1.925044 0.000000 
-3.294256 1.881643 0.000000 
-3.248246 1.843319 0.000000 
-3.196818 1.803965 0.000000 
-3.159669 1.752655 0.000000 
-3.113281 1.705950 0.000000 
-3.056061 1.686387 0.000000 
-2.996684 1.663762 0.000000 
-2.933161 1.634146 0.000000 
-2.879064 1.598003 0.000000 
-2.813006 1.573218 0.000000 
-2.751664 1.550167 0.000000 
-2.686782 1.520845 0.000000 
-1.922020 -0.429593 0.000000 
-1.999705 -0.431091 0.000000 
-2.060018 -0.409488 0.000000 
-2.032615 -0.074500 0.000000 
-2.048550 0.011222 0.000000 
-2.029059 0.077115 0.000000 
-2.105228 -0.352429 0.000000 
-2.154373 -0.284835 0.000000 
-2.203584 -0.230211 0.000000 
-2.237020 -0.168775 0.000000 
-2.250593 -0.103483 0.000000 
-2.270119 -0.031699 0.000000 
-2.297898 0.038612 0.000000 
-2.327118 0.100191 0.000000 
-2.346747 0.154161 0.000000 
-2.362840 0.207271 0.000000 
-2.374561 0.258315 0.000000 
-2.373128 0.310291 0.000000 
-2.334174 0.376881 0.000000 
-2.331842 0.417499 0.000000 
-2.284565 0.426258 0.000000 
-0.236368 2.143688 0.000000 
-0.299146 2.187515 0.000000 
-0.346614 2.207440 0.000000 
-0.382877 2.170937 0.000000 
-0.412447 2.141888 0.000000 
-0.433989 2.101600 0.000000 
-0.446472 2.058634 0.000000 
-0.451628 2.019315 0.000000 
-0.451047 1.980853 0.000000 
-0.449242 1.944850 0.000000 
-0.453345 1.912960 0.000000 
-0.460251 1.885267 0.000000 
-0.470304 1.856481 0.000000 
-0.475290 1.826991 0.000000 
-0.478341 1.797206 0.000000 
-0.479442 1.760470 0.000000 
-2.609147 1.507055 0.000000 
-2.517189 1.501557 0.000000 
-2.434013 1.501894 0.000000 
-2.352624 1.491862 0.000000 
-2.274410 1.472491 0.000000 
-2.204499 1.437843 0.000000 
-2.180326 1.368960 0.000000 
-2.178559 1.280424 0.000000 
-2.168273 1.190395 0.000000 
-2.159086 1.092331 0.000000 
-2.144575 1.003172 0.000000 
-2.163040 0.927955 0.000000 
-2.183612 0.853863 0.000000 
-2.172907 0.789305 0.000000 
-2.161614 0.726550 0.000000 
-2.169833 0.666438 0.000000 
-2.188987 0.604685 0.000000 
-2.218663 0.553439 0.000000 
-2.229021 0.497566 0.000000 
-2.997130 1.874380 0.000000 
-3.021908 1.776243 0.000000 
-2.902046 1.842873 0.000000 
-0.770600 -0.158280 0.000000 
-0.790096 -0.066621 0.000000 
-0.811857 0.014086 0.000000 
-0.835807 0.092650 0.000000 
-0.859157 0.162778 0.000000 
-0.881226 0.222830 0.000000 
-0.903169 0.282180 0.000000 
-0.928196 0.346224 0.000000 
-2.785442 1.810320 0.000000 
-2.944278 1.749578 0.000000 
-2.855014 1.712432 0.000000 
-2.796189 1.652352 0.000000 
-2.651235 1.795574 0.000000 
-2.517962 1.785227 0.000000 
-2.394240 1.776064 0.000000 
-2.275192 1.768068 0.000000 
-2.180847 1.743506 0.000000 
-2.099904 1.717027 0.000000 
-2.018420 1.685787 0.000000 
-1.945469 1.690085 0.000000 
-1.885190 1.723425 0.000000 
-1.829736 1.743993 0.000000 
-1.760875 1.769225 0.000000 
-1.680504 1.797649 0.000000 
-1.617798 1.815966 0.000000 
-1.570169 1.830490 0.000000 
-1.527149 1.844680 0.000000 
-1.482581 1.856809 0.000000 
-1.433927 1.863349 0.000000 
-1.386311 1.871264 0.000000 
-1.337319 1.879994 0.000000 
-1.286363 1.887074 0.000000 
-1.235962 1.887792 0.000000 
-1.188452 1.892605 0.000000 
-1.140860 1.902056 0.000000 
-1.091558 1.901365 0.000000 
-1.038962 1.890346 0.000000 
-0.982519 1.871348 0.000000 
-0.922315 1.854606 0.000000 
-0.869867 1.844281 0.000000 
-0.827747 1.837792 0.000000 
-0.785371 1.832880 0.000000 
-0.748025 1.823143 0.000000 
-0.712781 1.812876 0.000000 
-0.681690 1.798944 0.000000 
-0.657198 1.787810 0.000000 
-0.633895 1.781146 0.000000 
-0.612002 1.776691 0.000000 
-0.594184 1.769478 0.000000 
-0.577381 1.760028 0.000000 
-0.560109 1.744745 0.000000 
-0.540091 1.712290 0.000000 
-1.243914 0.073445 0.000000 
-1.232782 0.087162 0.000000 
-1.257376 0.059091 0.000000 
-1.224378 0.105861 0.000000 
-1.271472 0.039745 0.000000 
-1.215702 0.127858 0.000000 
-1.204660 0.153915 0.000000 
-1.290143 0.012004 0.000000 
-1.314447 -0.033036 0.000000 
-1.190204 0.184221 0.000000 
-1.318041 -0.086390 0.000000 
-1.171655 0.218377 0.000000 
-1.149359 0.254692 0.000000 
-1.123094 0.292940 0.000000 
-1.284246 -0.136370 0.000000 
-1.239750 -0.187096 0.000000 
-1.083297 0.336931 0.000000 
-1.028190 0.368603 0.000000 
-1.181630 -0.229453 0.000000 
-1.112789 -0.260880 0.000000 
-1.040643 -0.273050 0.000000 
-0.978118 -0.276137 0.000000 
-0.927392 -0.289163 0.000000 
-0.889718 -0.328297 0.000000 
-0.873564 -0.384848 0.000000 
-0.920771 -0.417042 0.000000 
-0.935346 -0.349773 0.000000 
-0.991249 -0.426617 0.000000 
-1.088918 -0.423889 0.000000 
-1.067426 -0.344237 0.000000 
-1.189474 -0.416326 0.000000 
-1.147229 -0.331570 0.000000 
-1.266509 -0.393036 0.000000 
-1.219913 -0.305393 0.000000 
-1.335307 -0.357209 0.000000 
-1.284456 -0.267394 0.000000 
-1.402357 -0.313305 0.000000 
-1.341444 -0.219593 0.000000 
-1.466758 -0.260630 0.000000 
-1.539152 -0.199831 0.000000 
-1.393011 -0.161662 0.000000 
-1.612839 -0.129559 0.000000 
-1.665320 -0.071981 0.000000 
-1.691220 -0.007155 0.000000 
-1.704696 0.078339 0.000000 
-1.850073 0.245208 0.000000 
-1.911042 0.189384 0.000000 
-1.969645 0.132547 0.000000 
-1.726970 0.184750 0.000000 
-0.222881 0.392580 0.000000 
-0.195707 0.364997 0.000000 
-0.164205 0.328049 0.000000 
-0.127520 0.295351 0.000000 
-0.095686 0.265860 0.000000 
-0.059027 0.237382 0.000000 
-0.018954 0.207398 0.000000 
0.030296 0.176128 0.000000 
0.086536 0.155602 0.000000 
0.141893 0.136870 0.000000 
0.202102 0.107590 0.000000 
0.263408 0.067674 0.000000 
0.311661 0.017687 0.000000 
0.333954 -0.041936 0.000000 
0.338621 -0.102386 0.000000 
0.341530 -0.156325 0.000000 
0.353165 -0.206513 0.000000 
0.365710 -0.264936 0.000000 
0.363543 -0.334465 0.000000 
0.357353 -0.396579 0.000000 
0.351188 -0.447322 0.000000 
0.363842 -0.494350 0.000000 
-1.737069 -0.361001 0.000000 
-0.199590 0.445197 0.000000 
-0.156305 0.415281 0.000000 
-0.462327 1.681237 0.000000 
0.741313 2.203811 0.000000 
0.482415 -0.505121 0.000000 
0.446104 -0.513017 0.000000 
0.403556 -0.518671 0.000000 
-0.104001 0.387216 0.000000 
-0.514998 1.613291 0.000000 
-0.059937 0.352811 0.000000 
0.738519 2.178546 0.000000 
0.714572 2.190846 0.000000 
-0.249752 0.472020 0.000000 
-0.036232 0.309013 0.000000 
0.000772 0.281181 0.000000 
0.035161 0.255536 0.000000 
-1.776537 -0.360442 0.000000 
-1.836238 -0.356258 0.000000 
-0.309416 0.486121 0.000000 
-0.378944 0.483856 0.000000 
-2.292732 0.363445 0.000000 
-2.315166 0.313454 0.000000 
-2.314418 0.265897 0.000000 
-2.293418 0.219510 0.000000 
-2.279687 0.169631 0.000000 
-2.253462 0.122366 0.000000 
0.075120 0.227793 0.000000 
0.131113 0.215185 0.000000 
-0.977004 0.417169 0.000000 
-0.860050 0.407003 0.000000 
-1.912142 -0.348201 0.000000 
-1.989966 -0.356982 0.000000 
-2.023752 -0.289440 0.000000 
-2.082175 -0.218179 0.000000 
0.723889 2.147033 0.000000 
0.691466 2.165876 0.000000 
0.665980 2.133229 0.000000 
0.704783 2.105961 0.000000 
0.637970 2.095171 0.000000 
0.681732 2.058753 0.000000 
0.670916 2.012577 0.000000 
0.602858 2.063503 0.000000 
0.659584 1.972154 0.000000 
0.560783 2.037132 0.000000 
0.636111 1.936079 0.000000 
0.607495 1.886288 0.000000 
0.595324 1.822808 0.000000 
0.604052 1.758134 0.000000 
0.514160 2.007729 0.000000 
0.453857 1.980284 0.000000 
0.392525 1.978305 0.000000 
0.334098 1.976777 0.000000 
0.278675 1.958023 0.000000 
0.217273 1.939948 0.000000 
0.149449 1.922592 0.000000 
0.614128 1.705859 0.000000 
0.621313 1.658279 0.000000 
0.624262 1.613400 0.000000 
-2.197766 0.069177 0.000000 
-2.158682 -0.005746 0.000000 
-2.124695 0.128507 0.000000 
-2.150589 -0.171873 0.000000 
-2.141926 -0.094327 0.000000 
-0.393439 -0.510887 0.000000 
-0.412631 -0.466844 0.000000 
-0.436983 -0.426240 0.000000 
-0.445953 -0.382821 0.000000 
-0.458251 -0.349995 0.000000 
-0.479726 -0.315228 0.000000 
-0.496934 -0.266498 0.000000 
-0.509002 -0.211414 0.000000 
-0.517157 -0.157083 0.000000 
-0.545309 -0.105808 0.000000 
-0.442273 -0.508282 0.000000 
-0.496002 -0.498764 0.000000 
-0.557668 -0.500871 0.000000 
-0.618975 -0.485391 0.000000 
-0.334659 2.145628 0.000000 
-0.367985 2.115910 0.000000 
-0.385153 2.079484 0.000000 
-0.396797 2.045617 0.000000 
-0.406285 2.010095 0.000000 
-0.402558 1.970962 0.000000 
-0.406645 1.932519 0.000000 
-0.418378 1.900104 0.000000 
-0.428059 1.870979 0.000000 
-0.435849 1.841431 0.000000 
-0.442335 1.811396 0.000000 
-0.445406 1.778331 0.000000 
-0.444483 1.732615 0.000000 
0.619822 1.567668 0.000000 
-1.077870 0.464233 0.000000 
-1.149036 0.422274 0.000000 
-1.174735 0.347431 0.000000 
-1.192231 0.295708 0.000000 
-1.210811 0.253931 0.000000 
-1.228352 0.214592 0.000000 
-1.238869 0.176612 0.000000 
-1.244643 0.145115 0.000000 
-1.248534 0.120214 0.000000 
-1.252336 0.100926 0.000000 
-1.262323 0.087674 0.000000 
-1.280319 0.076758 0.000000 
-0.451814 0.461196 0.000000 
-0.526928 0.417674 0.000000 
0.194935 0.198193 0.000000 
0.069048 1.908493 0.000000 
-0.574175 0.346990 0.000000 
-0.593607 0.265887 0.000000 
-1.764101 0.305572 0.000000 
-2.210991 0.424428 0.000000 
-0.825996 0.321726 0.000000 
-0.799223 0.250646 0.000000 
-0.760911 0.184213 0.000000 
0.605964 1.516716 0.000000 
0.587834 1.459356 0.000000 
0.576354 1.399508 0.000000 
0.574971 1.344499 0.000000 
0.580375 1.301474 0.000000 
0.545179 1.279090 0.000000 
0.509957 1.246828 0.000000 
0.484198 1.210425 0.000000 
0.468721 1.179271 0.000000 
0.449386 1.160740 0.000000 
0.422962 1.148075 0.000000 
0.391379 1.128924 0.000000 
0.357154 1.104860 0.000000 
0.323730 1.076488 0.000000 
-0.582151 -0.044940 0.000000 
0.265957 0.171763 0.000000 
0.333763 0.125634 0.000000 
0.378371 0.058618 0.000000 
0.400918 -0.015777 0.000000 
0.401084 -0.078765 0.000000 
0.404345 -0.132866 0.000000 
0.432648 -0.183948 0.000000 
0.450030 -0.248389 0.000000 
0.529803 -0.095236 0.000000 
0.491947 -0.143374 0.000000 
0.453243 -0.093490 0.000000 
0.449550 -0.322714 0.000000 
0.498420 -0.049363 0.000000 
0.474171 0.010579 0.000000 
0.457863 0.085152 0.000000 
0.462195 -0.381368 0.000000 
0.478704 -0.427704 0.000000 
0.483460 -0.468670 0.000000 
0.412910 -0.407009 0.000000 
0.398390 -0.445723 0.000000 
0.404290 -0.480010 0.000000 
0.442452 -0.475452 0.000000 
0.436659 -0.440287 0.000000 
-0.727378 0.110080 0.000000 
-0.616071 0.192098 0.000000 
-0.623548 0.117817 0.000000 
-0.605779 0.036809 0.000000 
-0.706340 0.024361 0.000000 
-0.681483 -0.061900 0.000000 
-0.032304 1.902932 0.000000 
-0.128010 1.939082 0.000000 
-0.195732 2.006205 0.000000 
-0.243911 2.060119 0.000000 
-0.287859 2.107523 0.000000 
-0.335518 2.079827 0.000000 
-0.667608 -0.147281 0.000000 
-0.584906 -0.154049 0.000000 
-0.658169 -0.227290 0.000000 
-0.578442 -0.219420 0.000000 
-0.639050 -0.298732 0.000000 
-0.607982 -0.374249 0.000000 
-0.562541 -0.282119 0.000000 
-0.536184 -0.343142 0.000000 
-0.495978 -0.381104 0.000000 
-0.500680 -0.433498 0.000000 
-0.573051 -0.437951 0.000000 
-2.690892 1.676226 0.000000 
-2.684799 1.590214 0.000000 
-2.602920 1.588952 0.000000 
-2.574381 1.673945 0.000000 
-2.518122 1.608819 0.000000 
-2.424460 1.632717 0.000000 
-2.320006 1.623786 0.000000 
-2.229986 1.600168 0.000000 
-2.146342 1.558928 0.000000 
-1.455055 -0.102681 0.000000 
-1.387692 -0.022357 0.000000 
-1.339496 0.030971 0.000000 
-1.304977 0.059531 0.000000 
-1.531301 -0.037188 0.000000 
-1.604385 0.006925 0.000000 
-1.592423 0.107605 0.000000 
-1.608296 0.231568 0.000000 
-1.827918 0.430014 0.000000 
0.477873 0.198817 0.000000 
0.477147 0.233716 0.000000 
0.465631 0.267956 0.000000 
-0.587742 1.712165 0.000000 
-0.593403 1.736269 0.000000 
-0.604579 1.748924 0.000000 
-0.619289 1.754611 0.000000 
-0.639577 1.752437 0.000000 
-0.665912 1.754053 0.000000 
-0.697937 1.761040 0.000000 
-0.595692 1.658677 0.000000 
-0.726123 1.775852 0.000000 
-0.757398 1.786422 0.000000 
-0.794522 1.783847 0.000000 
-0.841416 1.781269 0.000000 
-0.894922 1.782630 0.000000 
-0.956071 1.791045 0.000000 
-1.020951 1.809967 0.000000 
-1.077937 1.837602 0.000000 
-1.120258 1.866330 0.000000 
-1.171769 1.842069 0.000000 
0.332207 0.395461 0.000000 
0.333662 0.353725 0.000000 
0.321472 0.424077 0.000000 
0.302407 0.450890 0.000000 
0.214022 0.465552 0.000000 
0.194081 0.526576 0.000000 
0.186716 0.582089 0.000000 
0.189303 0.634861 0.000000 
0.360023 0.314044 0.000000 
0.405131 0.288910 0.000000 
0.201671 0.684107 0.000000 
0.218038 0.734368 0.000000 
0.236652 0.783302 0.000000 
0.256885 0.825236 0.000000 
0.278373 0.853730 0.000000 
0.284019 0.887128 0.000000 
0.276718 0.933875 0.000000 
0.278735 0.990688 0.000000 
0.296322 1.040956 0.000000 
-1.507867 1.793827 0.000000 
-1.548116 1.769185 0.000000 
-1.598023 1.741805 0.000000 
-1.467251 1.808601 0.000000 
-1.422160 1.815884 0.000000 
-1.373311 1.822601 0.000000 
-1.322903 1.830377 0.000000 
-1.275577 1.839623 0.000000 
-1.225048 1.838224 0.000000 
-1.662214 1.718136 0.000000 
-1.732600 1.698196 0.000000 
-1.794687 1.683821 0.000000 
-1.841773 1.654634 0.000000 
-2.078405 0.721906 0.000000 
-2.079214 0.800496 0.000000 
-2.097651 0.644306 0.000000 
-2.129318 0.572567 0.000000 
-2.096743 0.881058 0.000000 
-2.169699 0.517224 0.000000 
-1.991686 0.444224 0.000000 
-1.642187 0.369780 0.000000 
-1.989898 0.276999 0.000000 
-2.064526 0.205186 0.000000 
-1.914688 0.350534 0.000000 
-2.037969 1.133610 0.000000 
-2.021377 1.017925 0.000000 
-2.055796 1.262772 0.000000 
-2.102728 1.365425 0.000000 
-2.047875 1.507727 0.000000 
0.428030 0.254458 0.000000 
0.375625 0.233222 0.000000 
0.313454 0.246323 0.000000 
0.290352 0.392358 0.000000 
0.238487 1.103275 0.000000 
0.440631 0.216351 0.000000 
0.396678 0.176574 0.000000 
0.460488 0.150653 0.000000 
0.523747 1.326765 0.000000 
-2.262588 0.290020 0.000000 
-2.220468 0.346047 0.000000 
-2.218579 0.236509 0.000000 
-2.146376 0.288359 0.000000 
-2.206503 0.171438 0.000000 
0.473879 1.288153 0.000000 
0.446488 1.235822 0.000000 
0.440978 1.191803 0.000000 
0.409581 1.183948 0.000000 
0.629179 2.012843 0.000000 
0.593839 1.980370 0.000000 
0.550362 1.936166 0.000000 
0.483841 1.895743 0.000000 
0.202470 1.036911 0.000000 
0.241245 0.889135 0.000000 
0.205152 0.864335 0.000000 
0.175878 0.816194 0.000000 
0.153326 0.757688 0.000000 
0.132079 0.697238 0.000000 
0.113278 0.632782 0.000000 
0.106000 0.564459 0.000000 
0.109640 0.495262 0.000000 
0.121648 0.424584 0.000000 
0.032483 0.334970 0.000000 
0.246820 0.417649 0.000000 
0.099619 0.283336 0.000000 
0.373127 1.169066 0.000000 
-0.307911 2.032205 0.000000 
-0.360136 2.013736 0.000000 
-0.343252 1.959391 0.000000 
-0.270247 1.967535 0.000000 
0.168337 0.279854 0.000000 
0.242346 0.269517 0.000000 
0.270369 0.338553 0.000000 
0.505525 1.394527 0.000000 
-0.689828 0.221782 0.000000 
-0.729540 0.279186 0.000000 
-0.746154 0.353658 0.000000 
-0.657668 0.370222 0.000000 
-0.661195 0.285936 0.000000 
-0.924642 0.522898 0.000000 
-1.137284 1.786261 0.000000 
-1.072920 1.741667 0.000000 
-1.248127 1.798558 0.000000 
-1.304069 1.782236 0.000000 
-1.360197 1.774576 0.000000 
-1.411221 1.770436 0.000000 
-1.453165 1.767206 0.000000 
-1.486003 1.749744 0.000000 
-1.510814 1.706275 0.000000 
-1.558800 1.661606 0.000000 
-0.995058 1.714914 0.000000 
-0.919611 1.704438 0.000000 
-0.852227 1.711370 0.000000 
-0.796966 1.727889 0.000000 
-0.752732 1.747057 0.000000 
-1.635591 1.634273 0.000000 
-1.992480 0.908975 0.000000 
-1.965104 0.799196 0.000000 
-1.974377 0.695863 0.000000 
-2.014368 0.602241 0.000000 
-2.065453 0.519055 0.000000 
-2.071492 0.365988 0.000000 
-2.131272 0.449525 0.000000 
-1.712039 1.620950 0.000000 
-1.781280 1.620901 0.000000 
-1.884796 1.590844 0.000000 
0.516332 1.810507 0.000000 
0.538779 1.739378 0.000000 
0.517174 1.468912 0.000000 
0.552532 1.530848 0.000000 
0.576896 1.572775 0.000000 
0.583356 1.609801 0.000000 
0.576083 1.646805 0.000000 
0.562288 1.689166 0.000000 