# vtk DataFile Version 3.0 
vtk output 
ASCII 
DATASET UNSTRUCTURED_GRID 
POINTS 899 float 
-3.648847 2.334601 0.000000 
-3.619410 2.294049 0.000000 
-3.578536 2.258454 0.000000 
-3.540028 2.222803 0.000000 
-3.511690 2.190608 0.000000 
-3.481362 2.160750 0.000000 
-3.451569 2.120076 0.000000 
0.772356 2.237115 0.000000 
0.774615 2.210994 0.000000 
0.769962 2.182239 0.000000 
-3.399514 2.089800 0.000000 
0.413960 -0.555042 0.000000 
0.455573 -0.550739 0.000000 
-1.762619 -0.454938 0.000000 
-1.783389 -0.419541 0.000000 
-1.714437 -0.390752 0.000000 
0.732567 2.231439 0.000000 
0.698438 2.217603 0.000000 
0.491831 -0.536537 0.000000 
0.519501 -0.506131 0.000000 
0.530556 -0.465685 0.000000 
0.532354 -0.419881 0.000000 
0.531774 -0.369374 0.000000 
-3.460923 2.028067 0.000000 
0.663989 2.195657 0.000000 
0.631675 2.168262 0.000000 
0.601833 2.144207 0.000000 
0.569607 2.120949 0.000000 
0.534059 2.098872 0.000000 
0.492599 2.077732 0.000000 
0.444403 2.059067 0.000000 
0.762807 2.141265 0.000000 
-1.708694 -0.356370 0.000000 
-1.726386 -0.316106 0.000000 
-1.761257 -0.292085 0.000000 
-1.812853 -0.284237 0.000000 
-0.690422 -0.536572 0.000000 
-0.624256 -0.554500 0.000000 
-0.561079 -0.562682 0.000000 
-0.500739 -0.564137 0.000000 
-0.445387 -0.564199 0.000000 
0.532260 -0.310290 0.000000 
0.536647 -0.240957 0.000000 
-1.881389 -0.271736 0.000000 
-0.389303 -0.561925 0.000000 
-0.340338 -0.546640 0.000000 
-0.344339 -0.492505 0.000000 
-0.358558 -0.439965 0.000000 
-0.381750 -0.399053 0.000000 
-0.406193 -0.364879 0.000000 
-0.417316 -0.333381 0.000000 
-0.428320 -0.299124 0.000000 
-0.436973 -0.254859 0.000000 
-0.444212 -0.199317 0.000000 
-0.452662 -0.140458 0.000000 
-0.468602 -0.083559 0.000000 
0.553166 -0.176242 0.000000 
0.573193 -0.118571 0.000000 
0.574450 -0.066831 0.000000 
0.561087 -0.016511 0.000000 
0.550432 0.038812 0.000000 
0.748903 2.087947 0.000000 
0.730940 2.031455 0.000000 
0.715868 1.985296 0.000000 
0.699446 1.949168 0.000000 
0.684888 1.908178 0.000000 
0.675900 1.861974 0.000000 
0.669871 1.812414 0.000000 
0.664455 1.764557 0.000000 
0.668163 1.718137 0.000000 
0.672091 1.668304 0.000000 
0.674558 1.620280 0.000000 
0.673045 1.570201 0.000000 
0.386491 2.049386 0.000000 
0.664855 1.511462 0.000000 
0.652298 1.453385 0.000000 
0.638456 1.399735 0.000000 
0.623121 1.350225 0.000000 
0.616008 1.307197 0.000000 
0.600787 1.272255 0.000000 
0.571289 1.242806 0.000000 
0.539016 1.211645 0.000000 
0.513857 1.182746 0.000000 
0.493343 1.156511 0.000000 
0.469109 1.138698 0.000000 
0.444920 1.122254 0.000000 
0.415324 1.101288 0.000000 
0.383540 1.076536 0.000000 
0.356179 1.047204 0.000000 
0.343879 1.008304 0.000000 
0.337476 0.962783 0.000000 
0.332404 0.917497 0.000000 
0.328512 0.877807 0.000000 
0.319594 0.841728 0.000000 
0.304149 0.808317 0.000000 
0.290502 0.767926 0.000000 
0.275896 0.720063 0.000000 
0.261905 0.678094 0.000000 
0.250150 0.644499 0.000000 
0.250896 0.606694 0.000000 
0.259587 0.564091 0.000000 
0.284617 0.521318 0.000000 
0.315237 0.491656 0.000000 
0.340022 0.472220 0.000000 
0.354380 0.446371 0.000000 
0.368685 0.419228 0.000000 
0.385568 0.392832 0.000000 
0.415372 0.368035 0.000000 
0.447119 0.336322 0.000000 
0.477633 0.308406 0.000000 
0.503078 0.280469 0.000000 
0.518876 0.242415 0.000000 
0.527127 0.206447 0.000000 
0.534187 0.161901 0.000000 
0.543185 0.101121 0.000000 
0.322519 2.038331 0.000000 
0.263849 2.025214 0.000000 
0.208223 2.019794 0.000000 
0.150441 2.015965 0.000000 
-0.687392 -0.463505 0.000000 
-3.327058 2.063568 0.000000 
-3.276080 2.017147 0.000000 
-3.224941 1.983560 0.000000 
-3.181728 1.954402 0.000000 
-3.135074 1.917472 0.000000 
-3.078123 1.893179 0.000000 
-1.944260 -0.226858 0.000000 
0.083204 2.021122 0.000000 
0.005786 2.015769 0.000000 
-0.071812 2.025007 0.000000 
-0.135705 2.054549 0.000000 
-0.182391 2.096154 0.000000 
-1.999041 -0.155889 0.000000 
-1.843230 -0.430398 0.000000 
-0.491126 -0.019599 0.000000 
-0.512312 0.053643 0.000000 
-0.526535 0.116476 0.000000 
-0.527935 0.178598 0.000000 
-0.524207 0.245768 0.000000 
-0.505864 0.302899 0.000000 
-0.468875 0.352111 0.000000 
-0.410369 0.381356 0.000000 
-0.354013 0.402474 0.000000 
-0.301050 0.412419 0.000000 
-0.255730 0.413192 0.000000 
-0.695595 -0.385209 0.000000 
-0.726457 -0.308328 0.000000 
-0.747352 -0.238873 0.000000 
-3.396487 2.006433 0.000000 
-3.344056 1.927045 0.000000 
-3.294256 1.883644 0.000000 
-3.248246 1.845320 0.000000 
-3.196818 1.805966 0.000000 
-3.159669 1.754656 0.000000 
-3.113281 1.707952 0.000000 
-3.056061 1.688388 0.000000 
-2.996684 1.665763 0.000000 
-2.933161 1.636147 0.000000 
-2.879064 1.600004 0.000000 
-2.813006 1.575219 0.000000 
-2.751664 1.552169 0.000000 
-2.686782 1.522846 0.000000 
-1.922020 -0.427591 0.000000 
-1.999705 -0.429090 0.000000 
-2.060018 -0.407486 0.000000 
-2.032615 -0.072499 0.000000 
-2.048550 0.013223 0.000000 
-2.029059 0.079116 0.000000 
-2.105228 -0.350428 0.000000 
-2.154373 -0.282833 0.000000 
-2.203584 -0.228210 0.000000 
-2.237020 -0.166774 0.000000 
-2.250593 -0.101482 0.000000 
-2.270119 -0.029698 0.000000 
-2.297898 0.040613 0.000000 
-2.327118 0.102193 0.000000 
-2.346747 0.156163 0.000000 
-2.362840 0.209272 0.000000 
-2.374561 0.260317 0.000000 
-2.373128 0.312292 0.000000 
-2.334174 0.378882 0.000000 
-2.331842 0.419501 0.000000 
-2.284565 0.428259 0.000000 
-0.236368 2.145690 0.000000 
-0.299146 2.189516 0.000000 
-0.346614 2.209442 0.000000 
-0.382877 2.172938 0.000000 
-0.412447 2.143889 0.000000 
-0.433989 2.103601 0.000000 
-0.446472 2.060635 0.000000 
-0.451628 2.021317 0.000000 
-0.451047 1.982854 0.000000 
-0.449242 1.946851 0.000000 
-0.453345 1.914961 0.000000 
-0.460251 1.887268 0.000000 
-0.470304 1.858483 0.000000 
-0.475290 1.828993 0.000000 
-0.478341 1.799207 0.000000 
-0.479442 1.762471 0.000000 
-2.609147 1.509057 0.000000 
-2.517189 1.503558 0.000000 
-2.434013 1.503895 0.000000 
-2.352624 1.493863 0.000000 
-2.274410 1.474492 0.000000 
-2.204499 1.439844 0.000000 
-2.180326 1.370961 0.000000 
-2.178559 1.282425 0.000000 
-2.168273 1.192396 0.000000 
-2.159086 1.094332 0.000000 
-2.144575 1.005173 0.000000 
-2.163040 0.929956 0.000000 
-2.183612 0.855864 0.000000 
-2.172907 0.791307 0.000000 
-2.161614 0.728552 0.000000 
-2.169833 0.668440 0.000000 
-2.188987 0.606686 0.000000 
-2.218663 0.555441 0.000000 
-2.229021 0.499568 0.000000 
-2.997130 1.876382 0.000000 
-3.021908 1.778244 0.000000 
-2.902046 1.844874 0.000000 
-0.770600 -0.156279 0.000000 
-0.790096 -0.064620 0.000000 
-0.811857 0.016088 0.000000 
-0.835807 0.094652 0.000000 
-0.859157 0.164779 0.000000 
-0.881226 0.224831 0.000000 
-0.903169 0.284182 0.000000 
-0.928196 0.348226 0.000000 
-2.785442 1.812321 0.000000 
-2.944278 1.751579 0.000000 
-2.855014 1.714434 0.000000 
-2.796189 1.654353 0.000000 
-2.651235 1.797575 0.000000 
-2.517962 1.787228 0.000000 
-2.394240 1.778065 0.000000 
-2.275192 1.770069 0.000000 
-2.180847 1.745508 0.000000 
-2.099904 1.719028 0.000000 
-2.018420 1.687788 0.000000 
-1.945469 1.692086 0.000000 
-1.885190 1.725426 0.000000 
-1.829736 1.745995 0.000000 
-1.760875 1.771226 0.000000 
-1.680504 1.799650 0.000000 
-1.617798 1.817967 0.000000 
-1.570169 1.832491 0.000000 
-1.527149 1.846681 0.000000 
-1.482581 1.858810 0.000000 
-1.433927 1.865350 0.000000 
-1.386311 1.873265 0.000000 
-1.337319 1.881996 0.000000 
-1.286363 1.889075 0.000000 
-1.235962 1.889793 0.000000 
-1.188452 1.894606 0.000000 
-1.140860 1.904057 0.000000 
-1.091558 1.903366 0.000000 
-1.038962 1.892348 0.000000 
-0.982519 1.873350 0.000000 
-0.922315 1.856607 0.000000 
-0.869867 1.846283 0.000000 
-0.827747 1.839793 0.000000 
-0.785371 1.834881 0.000000 
-0.748025 1.825144 0.000000 
-0.712781 1.814877 0.000000 
-0.681690 1.800945 0.000000 
-0.657198 1.789811 0.000000 
-0.633895 1.783148 0.000000 
-0.612002 1.778692 0.000000 
-0.594184 1.771479 0.000000 
-0.577381 1.762029 0.000000 
-0.560109 1.746746 0.000000 
-0.540091 1.714292 0.000000 
-1.243914 0.075446 0.000000 
-1.232782 0.089163 0.000000 
-1.257376 0.061092 0.000000 
-1.224378 0.107862 0.000000 
-1.271472 0.041747 0.000000 
-1.215702 0.129859 0.000000 
-1.204660 0.155916 0.000000 
-1.290143 0.014005 0.000000 
-1.314447 -0.031035 0.000000 
-1.190204 0.186222 0.000000 
-1.318041 -0.084389 0.000000 
-1.171655 0.220378 0.000000 
-1.149359 0.256693 0.000000 
-1.123094 0.294941 0.000000 
-1.284246 -0.134369 0.000000 
-1.239750 -0.185095 0.000000 
-1.083297 0.338933 0.000000 
-1.028190 0.370604 0.000000 
-1.181630 -0.227452 0.000000 
-1.112789 -0.258879 0.000000 
-1.040643 -0.271049 0.000000 
-0.978118 -0.274136 0.000000 
-0.927392 -0.287162 0.000000 
-0.889718 -0.326296 0.000000 
-0.873564 -0.382846 0.000000 
-0.920771 -0.415040 0.000000 
-0.935346 -0.347772 0.000000 
-0.991249 -0.424616 0.000000 
-1.088918 -0.421888 0.000000 
-1.067426 -0.342236 0.000000 
-1.189474 -0.414325 0.000000 
-1.147229 -0.329569 0.000000 
-1.266509 -0.391035 0.000000 
-1.219913 -0.303392 0.000000 
-1.335307 -0.355208 0.000000 
-1.284456 -0.265392 0.000000 
-1.402357 -0.311304 0.000000 
-1.341444 -0.217592 0.000000 
-1.466758 -0.258629 0.000000 
-1.539152 -0.197830 0.000000 
-1.393011 -0.159661 0.000000 
-1.612839 -0.127558 0.000000 
-1.665320 -0.069980 0.000000 
-1.691220 -0.005153 0.000000 
-1.704696 0.080340 0.000000 
-1.850073 0.247210 0.000000 
-1.911042 0.191385 0.000000 
-1.969645 0.134548 0.000000 
-1.726970 0.186751 0.000000 
-0.222881 0.394581 0.000000 
-0.195707 0.366998 0.000000 
-0.164205 0.330051 0.000000 
-0.127520 0.297353 0.000000 
-0.095686 0.267861 0.000000 
-0.059027 0.239383 0.000000 
-0.018954 0.209399 0.000000 
0.030296 0.178129 0.000000 
0.086536 0.157603 0.000000 
0.141893 0.138871 0.000000 
0.202102 0.109592 0.000000 
0.263408 0.069675 0.000000 
0.311661 0.019688 0.000000 
0.333954 -0.039935 0.000000 
0.338621 -0.100385 0.000000 
0.341530 -0.154323 0.000000 
0.353165 -0.204512 0.000000 
0.365710 -0.262935 0.000000 
0.363543 -0.332463 0.000000 
[...]
POINT_DATA 899 
VECTORS X_GC float 
-3.648847 2.334601 0.000000 
-3.619410 2.294049 0.000000 
-3.578536 2.258454 0.000000 
-3.540028 2.222803 0.000000 
-3.511690 2.190608 0.000000 
-3.481362 2.160750 0.000000 
-3.451569 2.120076 0.000000 
0.772356 2.237115 0.000000 
0.774615 2.210994 0.000000 
0.769962 2.182239 0.000000 
-3.399514 2.089800 0.000000 
0.413960 -0.555042 0.000000 
0.455573 -0.550739 0.000000 
-1.762619 -0.454938 0.000000 
-1.783389 -0.419541 0.000000 
-1.714437 -0.390752 0.000000 
0.732567 2.231439 0.000000 
0.698438 2.217603 0.000000 
0.491831 -0.536537 0.000000 
0.519501 -0.506131 0.000000 
0.530556 -0.465685 0.000000 
0.532354 -0.419881 0.000000 
0.531774 -0.369374 0.000000 
-3.460923 2.028067 0.000000 
0.663989 2.195657 0.000000 
0.631675 2.168262 0.000000 
0.601833 2.144207 0.000000 
0.569607 2.120949 0.000000 
0.534059 2.098872 0.000000 
0.492599 2.077732 0.000000 
0.444403 2.059067 0.000000 
0.762807 2.141265 0.000000 
-1.708694 -0.356370 0.000000 
-1.726386 -0.316106 0.000000 
-1.761257 -0.292085 0.000000 
-1.812853 -0.284237 0.000000 
-0.690422 -0.536572 0.000000 
-0.624256 -0.554500 0.000000 
-0.561079 -0.562682 0.000000 
-0.500739 -0.564137 0.000000 
-0.445387 -0.564199 0.000000 
0.532260 -0.310290 0.000000 
0.536647 -0.240957 0.000000 
-1.881389 -0.271736 0.000000 
-0.389303 -0.561925 0.000000 
-0.340338 -0.546640 0.000000 
-0.344339 -0.492505 0.000000 
-0.358558 -0.439965 0.000000 
-0.381750 -0.399053 0.000000 
-0.406193 -0.364879 0.000000 
-0.417316 -0.333381 0.000000 
-0.428320 -0.299124 0.000000 
-0.436973 -0.254859 0.000000 
-0.444212 -0.199317 0.000000 
-0.452662 -0.140458 0.000000 
-0.468602 -0.083559 0.000000 
0.553166 -0.176242 0.000000 
0.573193 -0.118571 0.000000 
0.574450 -0.066831 0.000000 
0.561087 -0.016511 0.000000 
0.550432 0.038812 0.000000 
0.748903 2.087947 0.000000 
0.730940 2.031455 0.000000 
0.715868 1.985296 0.000000 
0.699446 1.949168 0.000000 
0.684888 1.908178 0.000000 
0.675900 1.861974 0.000000 
0.669871 1.812414 0.000000 
0.664455 1.764557 0.000000 
0.668163 1.718137 0.000000 
0.672091 1.668304 0.000000 
0.674558 1.620280 0.000000 
0.673045 1.570201 0.000000 
0.386491 2.049386 0.000000 
0.664855 1.511462 0.000000 
0.652298 1.453385 0.000000 
0.638456 1.399735 0.000000 
0.623121 1.350225 0.000000 
0.616008 1.307197 0.000000 
0.600787 1.272255 0.000000 
0.571289 1.242806 0.000000 
0.539016 1.211645 0.000000 
0.513857 1.182746 0.000000 
0.493343 1.156511 0.000000 
0.469109 1.138698 0.000000 
0.444920 1.122254 0.000000 
0.415324 1.101288 0.000000 
0.383540 1.076536 0.000000 
0.356179 1.047204 0.000000 
0.343879 1.008304 0.000000 
0.337476 0.962783 0.000000 
0.332404 0.917497 0.000000 
0.328512 0.877807 0.000000 
0.319594 0.841728 0.000000 
0.304149 0.808317 0.000000 
0.290502 0.767926 0.000000 
0.275896 0.720063 0.000000 
0.261905 0.678094 0.000000 
0.250150 0.644499 0.000000 
0.250896 0.606694 0.000000 
0.259587 0.564091 0.000000 
0.284617 0.521318 0.000000 
0.315237 0.491656 0.000000 
0.340022 0.472220 0.000000 
0.354380 0.446371 0.000000 
0.368685 0.419228 0.000000 
0.385568 0.392832 0.000000 
0.415372 0.368035 0.000000 
0.447119 0.336322 0.000000 
0.477633 0.308406 0.000000 
0.503078 0.280469 0.000000 
0.518876 0.242415 0.000000 
0.527127 0.206447 0.000000 
0.534187 0.161901 0.000000 
0.543185 0.101121 0.000000 
0.322519 2.038331 0.000000 
0.263849 2.025214 0.000000 
0.208223 2.019794 0.000000 
0.150441 2.015965 0.000000 
-0.687392 -0.463505 0.000000 
-3.327058 2.063568 0.000000 
-3.276080 2.017147 0.000000 
-3.224941 1.983560 0.000000 
-3.181728 1.954402 0.000000 
-3.135074 1.917472 0.000000 
-3.078123 1.893179 0.000000 
-1.944260 -0.226858 0.000000 
0.083204 2.021122 0.000000 
0.005786 2.015769 0.000000 
-0.071812 2.025007 0.000000 
-0.135705 2.054549 0.000000 
-0.182391 2.096154 0.000000 
-1.999041 -0.155889 0.000000 
-1.843230 -0.430398 0.000000 
-0.491126 -0.019599 0.000000 
-0.512312 0.053643 0.000000 
-0.526535 0.116476 0.000000 
-0.527935 0.178598 0.000000 
-0.524207 0.245768 0.000000 
-0.505864 0.302899 0.000000 
-0.468875 0.352111 0.000000 
-0.410369 0.381356 0.000000 
-0.354013 0.402474 0.000000 
-0.301050 0.412419 0.000000 
-0.255730 0.413192 0.000000 
-0.695595 -0.385209 0.000000 
-0.726457 -0.308328 0.000000 
-0.747352 -0.238873 0.000000 
-3.396487 2.006433 0.000000 
-3.344056 1.927045 0.000000 
-3.294256 1.883644 0.000000 
-3.248246 1.845320 0.000000 
-3.196818 1.805966 0.000000 
-3.159669 1.754656 0.000000 
-3.113281 1.707952 0.000000 
-3.056061 1.688388 0.000000 
-2.996684 1.665763 0.000000 
-2.933161 1.636147 0.000000 
-2.879064 1.600004 0.000000 
-2.813006 1.575219 0.000000 
-2.751664 1.552169 0.000000 
-2.686782 1.522846 0.000000 
-1.922020 -0.427591 0.000000 
-1.999705 -0.429090 0.000000 
-2.060018 -0.407486 0.000000 
-2.032615 -0.072499 0.000000 
-2.048550 0.013223 0.000000 
-2.029059 0.079116 0.000000 
-2.105228 -0.350428 0.000000 
-2.154373 -0.282833 0.000000 
-2.203584 -0.228210 0.000000 
-2.237020 -0.166774 0.000000 
-2.250593 -0.101482 0.000000 
-2.270119 -0.029698 0.000000 
-2.297898 0.040613 0.000000 
-2.327118 0.102193 0.000000 
-2.346747 0.156163 0.000000 
-2.362840 0.209272 0.000000 
-2.374561 0.260317 0.000000 
-2.373128 0.312292 0.000000 
-2.334174 0.378882 0.000000 
-2.331842 0.419501 0.000000 
-2.284565 0.428259 0.000000 
-0.236368 2.145690 0.000000 
-0.299146 2.189516 0.000000 
-0.346614 2.209442 0.000000 
-0.382877 2.172938 0.000000 
-0.412447 2.143889 0.000000 
-0.433989 2.103601 0.000000 
-0.446472 2.060635 0.000000 
-0.451628 2.021317 0.000000 
-0.451047 1.982854 0.000000 
-0.449242 1.946851 0.000000 
-0.453345 1.914961 0.000000 
-0.460251 1.887268 0.000000 
-0.470304 1.858483 0.000000 
-0.475290 1.828993 0.000000 
-0.478341 1.799207 0.000000 
-0.479442 1.762471 0.000000 
-2.609147 1.509057 0.000000 
-2.517189 1.503558 0.000000 
-2.434013 1.503895 0.000000 
-2.352624 1.493863 0.000000 
-2.274410 1.474492 0.000000 
-2.204499 1.439844 0.000000 
-2.180326 1.370961 0.000000 
-2.178559 1.282425 0.000000 
-2.168273 1.192396 0.000000 
-2.159086 1.094332 0.000000 
-2.144575 1.005173 0.000000 
-2.163040 0.929956 0.000000 
-2.183612 0.855864 0.000000 
-2.172907 0.791307 0.000000 
-2.161614 0.728552 0.000000 
-2.169833 0.668440 0.000000 
-2.188987 0.606686 0.000000 
-2.218663 0.555441 0.000000 
-2.229021 0.499568 0.000000 
-2.997130 1.876382 0.000000 
-3.021908 1.778244 0.000000 
-2.902046 1.844874 0.000000 
-0.770600 -0.156279 0.000000 
-0.790096 -0.064620 0.000000 
-0.811857 0.016088 0.000000 
-0.835807 0.094652 0.000000 
-0.859157 0.164779 0.000000 
-0.881226 0.224831 0.000000 
-0.903169 0.284182 0.000000 
-0.928196 0.348226 0.000000 
-2.785442 1.812321 0.000000 
-2.944278 1.751579 0.000000 
-2.855014 1.714434 0.000000 
-2.796189 1.654353 0.000000 
-2.651235 1.797575 0.000000 
-2.517962 1.787228 0.000000 
-2.394240 1.778065 0.000000 
-2.275192 1.770069 0.000000 
-2.180847 1.745508 0.000000 
-2.099904 1.719028 0.000000 
-2.018420 1.687788 0.000000 
-1.945469 1.692086 0.000000 
-1.885190 1.725426 0.000000 
-1.829736 1.745995 0.000000 
-1.760875 1.771226 0.000000 
-1.680504 1.799650 0.000000 
-1.617798 1.817967 0.000000 
-1.570169 1.832491 0.000000 
-1.527149 1.846681 0.000000 
-1.482581 1.858810 0.000000 
-1.433927 1.865350 0.000000 
-1.386311 1.873265 0.000000 
-1.337319 1.881996 0.000000 
-1.286363 1.889075 0.000000 
-1.235962 1.889793 0.000000 
-1.188452 1.894606 0.000000 
-1.140860 1.904057 0.000000 
-1.091558 1.903366 0.000000 
-1.038962 1.892348 0.000000 
-0.982519 1.873350 0.000000 
-0.922315 1.856607 0.000000 
-0.869867 1.846283 0.000000 
-0.827747 1.839793 0.000000 
-0.785371 1.834881 0.000000 
-0.748025 1.825144 0.000000 
-0.712781 1.814877 0.000000 
-0.681690 1.800945 0.000000 
-0.657198 1.789811 0.000000 
-0.633895 1.783148 0.000000 
-0.612002 1.778692 0.000000 
-0.594184 1.771479 0.000000 
-0.577381 1.762029 0.000000 
-0.560109 1.746746 0.000000 
-0.540091 1.714292 0.000000 
-1.243914 0.075446 0.000000 
-1.232782 0.089163 0.000000 
-1.257376 0.061092 0.000000 
-1.224378 0.107862 0.000000 
-1.271472 0.041747 0.000000 
-1.215702 0.129859 0.000000 
-1.204660 0.155916 0.000000 
-1.290143 0.014005 0.000000 
-1.314447 -0.031035 0.000000 
-1.190204 0.186222 0.000000 
-1.318041 -0.084389 0.000000 
-1.171655 0.220378 0.000000 
-1.149359 0.256693 0.000000 
-1.123094 0.294941 0.000000 
-1.284246 -0.134369 0.000000 
-1.239750 -0.185095 0.000000 
-1.083297 0.338933 0.000000 
-1.028190 0.370604 0.000000 
-1.181630 -0.227452 0.000000 
-1.112789 -0.258879 0.000000 
-1.040643 -0.271049 0.000000 
-0.978118 -0.274136 0.000000 
-0.927392 -0.287162 0.000000 
-0.889718 -0.326296 0.000000 
-0.873564 -0.382846 0.000000 
-0.920771 -0.415040 0.000000 
-0.935346 -0.347772 0.000000 
-0.991249 -0.424616 0.000000 
-1.088918 -0.421888 0.000000 
-1.067426 -0.342236 0.000000 
-1.189474 -0.414325 0.000000 
-1.147229 -0.329569 0.000000 
-1.266509 -0.391035 0.000000 
-1.219913 -0.303392 0.000000 
-1.335307 -0.355208 0.000000 
-1.284456 -0.265392 0.000000 
-1.402357 -0.311304 0.000000 
-1.341444 -0.217592 0.000000 
-1.466758 -0.258629 0.000000 
-1.539152 -0.197830 0.000000 
-1.393011 -0.159661 0.000000 
-1.612839 -0.127558 0.000000 
-1.665320 -0.069980 0.000000 
-1.691220 -0.005153 0.000000 
-1.704696 0.080340 0.000000 
-1.850073 0.247210 0.000000 
-1.911042 0.191385 0.000000 
-1.969645 0.134548 0.000000 
-1.726970 0.186751 0.000000 
-0.222881 0.394581 0.000000 
-0.195707 0.366998 0.000000 
-0.164205 0.330051 0.000000 
-0.127520 0.297353 0.000000 
-0.095686 0.267861 0.000000 
-0.059027 0.239383 0.000000 
-0.018954 0.209399 0.000000 
0.030296 0.178129 0.000000 
0.086536 0.157603 0.000000 
0.141893 0.138871 0.000000 
0.202102 0.109592 0.000000 
0.263408 0.069675 0.000000 
0.311661 0.019688 0.000000 
0.333954 -0.039935 0.000000 
0.338621 -0.100385 0.000000 
0.341530 -0.154323 0.000000 
0.353165 -0.204512 0.000000 
0.365710 -0.262935 0.000000 
0.363543 -0.332463 0.000000 
0.357353 -0.394578 0.000000 
0.351188 -0.445320 0.000000 
0.363842 -0.492349 0.000000 
-1.737069 -0.359000 0.000000 
-0.199590 0.447198 0.000000 
-0.156305 0.417282 0.000000 
-0.462327 1.683238 0.000000 
0.741313 2.205813 0.000000 
0.482415 -0.503119 0.000000 
0.446104 -0.511015 0.000000 
0.403556 -0.516670 0.000000 
-0.104001 0.389217 0.000000 
-0.514998 1.615293 0.000000 
-0.059937 0.354812 0.000000 
0.738519 2.180547 0.000000 
0.714572 2.192848 0.000000 
-0.249752 0.474022 0.000000 
-0.036232 0.311014 0.000000 
0.000772 0.283182 0.000000 
0.035161 0.257537 0.000000 
-1.776537 -0.358441 0.000000 
-1.836238 -0.354256 0.000000 
-0.309416 0.488122 0.000000 
-0.378944 0.485858 0.000000 
-2.292732 0.365446 0.000000 
-2.315166 0.315455 0.000000 
-2.314418 0.267898 0.000000 
-2.293418 0.221512 0.000000 
-2.279687 0.171633 0.000000 
-2.253462 0.124367 0.000000 
0.075120 0.229795 0.000000 
0.131113 0.217187 0.000000 
-0.977004 0.419170 0.000000 
-0.860050 0.409005 0.000000 
-1.912142 -0.346200 0.000000 
-1.989966 -0.354980 0.000000 
-2.023752 -0.287438 0.000000 
-2.082175 -0.216177 0.000000 
0.723889 2.149034 0.000000 
0.691466 2.167877 0.000000 
0.665980 2.135231 0.000000 
0.704783 2.107962 0.000000 
0.637970 2.097173 0.000000 
0.681732 2.060754 0.000000 
0.670916 2.014579 0.000000 
0.602858 2.065504 0.000000 
0.659584 1.974155 0.000000 
0.560783 2.039134 0.000000 
0.636111 1.938080 0.000000 
0.607495 1.888289 0.000000 
0.595324 1.824809 0.000000 
0.604052 1.760136 0.000000 
0.514160 2.009730 0.000000 
0.453857 1.982285 0.000000 
0.392525 1.980307 0.000000 
0.334098 1.978778 0.000000 
0.278675 1.960025 0.000000 
0.217273 1.941949 0.000000 
0.149449 1.924594 0.000000 
0.614128 1.707860 0.000000 
0.621313 1.660281 0.000000 
0.624262 1.615401 0.000000 
-2.197766 0.071178 0.000000 
-2.158682 -0.003745 0.000000 
-2.124695 0.130509 0.000000 
-2.150589 -0.169872 0.000000 
-2.141926 -0.092326 0.000000 
-0.393439 -0.508886 0.000000 
-0.412631 -0.464843 0.000000 
-0.436983 -0.424239 0.000000 
-0.445953 -0.380820 0.000000 
-0.458251 -0.347994 0.000000 
-0.479726 -0.313227 0.000000 
-0.496934 -0.264497 0.000000 
-0.509002 -0.209413 0.000000 
-0.517157 -0.155082 0.000000 
-0.545309 -0.103807 0.000000 
-0.442273 -0.506280 0.000000 
-0.496002 -0.496763 0.000000 
-0.557668 -0.498870 0.000000 
-0.618975 -0.483390 0.000000 
-0.334659 2.147629 0.000000 
-0.367985 2.117911 0.000000 
-0.385153 2.081486 0.000000 
-0.396797 2.047619 0.000000 
-0.406285 2.012096 0.000000 
-0.402558 1.972963 0.000000 
-0.406645 1.934520 0.000000 
-0.418378 1.902105 0.000000 
-0.428059 1.872980 0.000000 
-0.435849 1.843433 0.000000 
-0.442335 1.813398 0.000000 
-0.445406 1.780333 0.000000 
-0.444483 1.734616 0.000000 
0.619822 1.569669 0.000000 
-1.077870 0.466234 0.000000 
-1.149036 0.424275 0.000000 
-1.174735 0.349433 0.000000 
-1.192231 0.297709 0.000000 
-1.210811 0.255933 0.000000 
-1.228352 0.216593 0.000000 
-1.238869 0.178613 0.000000 
-1.244643 0.147116 0.000000 
-1.248534 0.122215 0.000000 
-1.252336 0.102927 0.000000 
-1.262323 0.089676 0.000000 
-1.280319 0.078759 0.000000 
-0.451814 0.463197 0.000000 
-0.526928 0.419676 0.000000 
0.194935 0.200194 0.000000 
0.069048 1.910494 0.000000 
-0.574175 0.348991 0.000000 
-0.593607 0.267888 0.000000 
-1.764101 0.307573 0.000000 
-2.210991 0.426430 0.000000 
-0.825996 0.323728 0.000000 
-0.799223 0.252647 0.000000 
-0.760911 0.186214 0.000000 
0.605964 1.518717 0.000000 
0.587834 1.461357 0.000000 
0.576354 1.401509 0.000000 
0.574971 1.346500 0.000000 
0.580375 1.303476 0.000000 
0.545179 1.281092 0.000000 
0.509957 1.248829 0.000000 
0.484198 1.212427 0.000000 
0.468721 1.181273 0.000000 
0.449386 1.162741 0.000000 
0.422962 1.150076 0.000000 
0.391379 1.130925 0.000000 
0.357154 1.106862 0.000000 
0.323730 1.078489 0.000000 
-0.582151 -0.042939 0.000000 
0.265957 0.173765 0.000000 
0.333763 0.127635 0.000000 
0.378371 0.060620 0.000000 
0.400918 -0.013775 0.000000 
0.401084 -0.076764 0.000000 
0.404345 -0.130865 0.000000 
0.432648 -0.181947 0.000000 
0.450030 -0.246388 0.000000 
0.529803 -0.093235 0.000000 
0.491947 -0.141372 0.000000 
0.453243 -0.091489 0.000000 
0.449550 -0.320712 0.000000 
0.498420 -0.047361 0.000000 
0.474171 0.012580 0.000000 
0.457863 0.087153 0.000000 
0.462195 -0.379366 0.000000 
0.478704 -0.425702 0.000000 
0.483460 -0.466668 0.000000 
0.412910 -0.405008 0.000000 
0.398390 -0.443721 0.000000 
0.404290 -0.478009 0.000000 
0.442452 -0.473451 0.000000 
0.436659 -0.438286 0.000000 
-0.727378 0.112081 0.000000 
-0.616071 0.194099 0.000000 
-0.623548 0.119818 0.000000 
-0.605779 0.038811 0.000000 
-0.706340 0.026363 0.000000 
-0.681483 -0.059899 0.000000 
-0.032304 1.904933 0.000000 
-0.128010 1.941083 0.000000 
-0.195732 2.008207 0.000000 
-0.243911 2.062121 0.000000 
-0.287859 2.109524 0.000000 
-0.335518 2.081829 0.000000 
-0.667608 -0.145280 0.000000 
-0.584906 -0.152048 0.000000 
-0.658169 -0.225289 0.000000 
-0.578442 -0.217418 0.000000 
-0.639050 -0.296731 0.000000 
-0.607982 -0.372248 0.000000 
-0.562541 -0.280118 0.000000 
-0.536184 -0.341141 0.000000 
-0.495978 -0.379103 0.000000 
-0.500680 -0.431497 0.000000 
-0.573051 -0.435950 0.000000 
-2.690892 1.678227 0.000000 
-2.684799 1.592215 0.000000 
-2.602920 1.590953 0.000000 
-2.574381 1.675946 0.000000 
-2.518122 1.610820 0.000000 
-2.424460 1.634718 0.000000 
-2.320006 1.625787 0.000000 
-2.229986 1.602169 0.000000 
-2.146342 1.560929 0.000000 
-1.455055 -0.100680 0.000000 
-1.387692 -0.020356 0.000000 
-1.339496 0.032972 0.000000 
-1.304977 0.061532 0.000000 
-1.531301 -0.035187 0.000000 
-1.604385 0.008926 0.000000 
-1.592423 0.109607 0.000000 
-1.608296 0.233569 0.000000 
-1.827918 0.432015 0.000000 
0.477873 0.200818 0.000000 
0.477147 0.235717 0.000000 
0.465631 0.269957 0.000000 
-0.587742 1.714166 0.000000 
-0.593403 1.738270 0.000000 
-0.604579 1.750926 0.000000 
-0.619289 1.756612 0.000000 
-0.639577 1.754438 0.000000 
-0.665912 1.756055 0.000000 
-0.697937 1.763041 0.000000 
-0.595692 1.660678 0.000000 
-0.726123 1.777853 0.000000 
-0.757398 1.788423 0.000000 
-0.794522 1.785848 0.000000 
-0.841416 1.783270 0.000000 
-0.894922 1.784631 0.000000 
-0.956071 1.793047 0.000000 
-1.020951 1.811968 0.000000 
-1.077937 1.839603 0.000000 
-1.120258 1.868331 0.000000 
-1.171769 1.844071 0.000000 
0.332207 0.397462 0.000000 
0.333662 0.355726 0.000000 
0.321472 0.426078 0.000000 
0.302407 0.452891 0.000000 
0.214022 0.467553 0.000000 
0.194081 0.528578 0.000000 
0.186716 0.584091 0.000000 
0.189303 0.636863 0.000000 
0.360023 0.316045 0.000000 
0.405131 0.290912 0.000000 
0.201671 0.686108 0.000000 
0.218038 0.736369 0.000000 
0.236652 0.785303 0.000000 
0.256885 0.827237 0.000000 
0.278373 0.855731 0.000000 
0.284019 0.889129 0.000000 
0.276718 0.935876 0.000000 
0.278735 0.992689 0.000000 
0.296322 1.042957 0.000000 
-1.507867 1.795828 0.000000 
-1.548116 1.771186 0.000000 
-1.598023 1.743807 0.000000 
-1.467251 1.810602 0.000000 
-1.422160 1.817886 0.000000 
-1.373311 1.824602 0.000000 
-1.322903 1.832379 0.000000 
-1.275577 1.841624 0.000000 
-1.225048 1.840225 0.000000 
-1.662214 1.720137 0.000000 
-1.732600 1.700198 0.000000 
-1.794687 1.685822 0.000000 
-1.841773 1.656635 0.000000 
-2.078405 0.723908 0.000000 
-2.079214 0.802497 0.000000 
-2.097651 0.646308 0.000000 
-2.129318 0.574569 0.000000 
-2.096743 0.883059 0.000000 
-2.169699 0.519225 0.000000 
-1.991686 0.446225 0.000000 
-1.642187 0.371781 0.000000 
-1.989898 0.279000 0.000000 
-2.064526 0.207188 0.000000 
-1.914688 0.352535 0.000000 
-2.037969 1.135611 0.000000 
-2.021377 1.019927 0.000000 
-2.055796 1.264773 0.000000 
-2.102728 1.367426 0.000000 
-2.047875 1.509729 0.000000 
0.428030 0.256459 0.000000 
0.375625 0.235223 0.000000 
0.313454 0.248324 0.000000 
0.290352 0.394359 0.000000 
0.238487 1.105276 0.000000 
0.440631 0.218352 0.000000 
0.396678 0.178575 0.000000 
0.460488 0.152654 0.000000 
0.523747 1.328767 0.000000 
-2.262588 0.292021 0.000000 
-2.220468 0.348048 0.000000 
-2.218579 0.238510 0.000000 
-2.146376 0.290360 0.000000 
-2.206503 0.173440 0.000000 
0.473879 1.290154 0.000000 
0.446488 1.237823 0.000000 
0.440978 1.193804 0.000000 
0.409581 1.185949 0.000000 
0.629179 2.014844 0.000000 
0.593839 1.982371 0.000000 
0.550362 1.938167 0.000000 
0.483841 1.897744 0.000000 
0.202470 1.038912 0.000000 
0.241245 0.891137 0.000000 
0.205152 0.866336 0.000000 
0.175878 0.818195 0.000000 
0.153326 0.759689 0.000000 
0.132079 0.699239 0.000000 
0.113278 0.634783 0.000000 
0.106000 0.566460 0.000000 
0.109640 0.497264 0.000000 
0.121648 0.426586 0.000000 
0.032483 0.336971 0.000000 
0.246820 0.419650 0.000000 
0.099619 0.285337 0.000000 
0.373127 1.171067 0.000000 
-0.307911 2.034207 0.000000 
-0.360136 2.015737 0.000000 
-0.343252 1.961392 0.000000 
-0.270247 1.969536 0.000000 
0.168337 0.281855 0.000000 
0.242346 0.271518 0.000000 
0.270369 0.340554 0.000000 
0.505525 1.396528 0.000000 
-0.689828 0.223783 0.000000 
-0.729540 0.281187 0.000000 
-0.746154 0.355659 0.000000 
-0.657668 0.372224 0.000000 
-0.661195 0.287937 0.000000 
-0.924642 0.524899 0.000000 
-1.137284 1.788262 0.000000 
-1.072920 1.743668 0.000000 
-1.248127 1.800559 0.000000 
-1.304069 1.784237 0.000000 
-1.360197 1.776577 0.000000 
-1.411221 1.772437 0.000000 
-1.453165 1.769208 0.000000 
-1.486003 1.751746 0.000000 
-1.510814 1.708277 0.000000 
-1.558800 1.663608 0.000000 
-0.995058 1.716915 0.000000 
-0.919611 1.706439 0.000000 
-0.852227 1.713371 0.000000 
-0.796966 1.729890 0.000000 
-0.752732 1.749058 0.000000 
-1.635591 1.636275 0.000000 
-1.992480 0.910976 0.000000 
-1.965104 0.801197 0.000000 
-1.974377 0.697864 0.000000 
-2.014368 0.604242 0.000000 
-2.065453 0.521056 0.000000 
-2.071492 0.367989 0.000000 
-2.131272 0.451526 0.000000 
-1.712039 1.622952 0.000000 
-1.781280 1.622902 0.000000 
-1.884796 1.592845 0.000000 
0.516332 1.812508 0.000000 
0.538779 1.741380 0.000000 
0.517174 1.470913 0.000000 
0.552532 1.532849 0.000000 
0.576896 1.574776 0.000000 
0.583356 1.611802 0.000000 
0.576083 1.648807 0.000000 
0.562288 1.691167 0.000000 