# vtk DataFile Version 3.0 
vtk output 
ASCII 
DATASET UNSTRUCTURED_GRID 
POINTS 899 float 
-3.648847 2.321210 0.000000 
-3.619410 2.280658 0.000000 
-3.578536 2.245063 0.000000 
-3.540028 2.209413 0.000000 
-3.511690 2.177217 0.000000 
-3.481362 2.147359 0.000000 
-3.451569 2.106685 0.000000 
0.772356 2.223724 0.000000 
0.774615 2.197603 0.000000 
0.769962 2.168849 0.000000 
-3.399514 2.076409 0.000000 
0.413960 -0.568433 0.000000 
0.455573 -0.564130 0.000000 
-1.762619 -0.468328 0.000000 
-1.783389 -0.432932 0.000000 
-1.714437 -0.404143 0.000000 
0.732567 2.218049 0.000000 
0.698438 2.204212 0.000000 
0.491831 -0.549927 0.000000 
0.519501 -0.519522 0.000000 
0.530556 -0.479075 0.000000 
0.532354 -0.433271 0.000000 
0.531774 -0.382765 0.000000 
-3.460923 2.014677 0.000000 
0.663989 2.182266 0.000000 
0.631675 2.154872 0.000000 
0.601833 2.130816 0.000000 
0.569607 2.107558 0.000000 
0.534059 2.085481 0.000000 
0.492599 2.064341 0.000000 
0.444403 2.045676 0.000000 
0.762807 2.127874 0.000000 
-1.708694 -0.369760 0.000000 
-1.726386 -0.329497 0.000000 
-1.761257 -0.305476 0.000000 
-1.812853 -0.297627 0.000000 
-0.690422 -0.549963 0.000000 
-0.624256 -0.567891 0.000000 
-0.561079 -0.576072 0.000000 
-0.500739 -0.577528 0.000000 
-0.445387 -0.577590 0.000000 
0.532260 -0.323681 0.000000 
0.536647 -0.254348 0.000000 
-1.881389 -0.285127 0.000000 
-0.389303 -0.575316 0.000000 
-0.340338 -0.560030 0.000000 
-0.344339 -0.505895 0.000000 
-0.358558 -0.453356 0.000000 
-0.381750 -0.412444 0.000000 
-0.406193 -0.378269 0.000000 
-0.417316 -0.346772 0.000000 
-0.428320 -0.312515 0.000000 
-0.436973 -0.268250 0.000000 
-0.444212 -0.212707 0.000000 
-0.452662 -0.153849 0.000000 
-0.468602 -0.096950 0.000000 
0.553166 -0.189633 0.000000 
0.573193 -0.131962 0.000000 
0.574450 -0.080221 0.000000 
0.561087 -0.029901 0.000000 
0.550432 0.025422 0.000000 
0.748903 2.074557 0.000000 
0.730940 2.018064 0.000000 
0.715868 1.971905 0.000000 
0.699446 1.935777 0.000000 
0.684888 1.894787 0.000000 
0.675900 1.848583 0.000000 
0.669871 1.799023 0.000000 
0.664455 1.751166 0.000000 
0.668163 1.704747 0.000000 
0.672091 1.654913 0.000000 
0.674558 1.606890 0.000000 
0.673045 1.556810 0.000000 
0.386491 2.035996 0.000000 
0.664855 1.498072 0.000000 
0.652298 1.439994 0.000000 
0.638456 1.386344 0.000000 
0.623121 1.336834 0.000000 
0.616008 1.293807 0.000000 
0.600787 1.258864 0.000000 
0.571289 1.229416 0.000000 
0.539016 1.198254 0.000000 
0.513857 1.169355 0.000000 
0.493343 1.143120 0.000000 
0.469109 1.125308 0.000000 
0.444920 1.108863 0.000000 
0.415324 1.087897 0.000000 
0.383540 1.063145 0.000000 
0.356179 1.033813 0.000000 
0.343879 0.994913 0.000000 
0.337476 0.949393 0.000000 
0.332404 0.904106 0.000000 
0.328512 0.864417 0.000000 
0.319594 0.828337 0.000000 
0.304149 0.794926 0.000000 
0.290502 0.754535 0.000000 
0.275896 0.706673 0.000000 
0.261905 0.664704 0.000000 
0.250150 0.631108 0.000000 
0.250896 0.593304 0.000000 
0.259587 0.550700 0.000000 
0.284617 0.507927 0.000000 
0.315237 0.478266 0.000000 
0.340022 0.458829 0.000000 
0.354380 0.432980 0.000000 
0.368685 0.405837 0.000000 
0.385568 0.379441 0.000000 
0.415372 0.354644 0.000000 
0.447119 0.322932 0.000000 
0.477633 0.295015 0.000000 
0.503078 0.267079 0.000000 
0.518876 0.229025 0.000000 
0.527127 0.193056 0.000000 
0.534187 0.148511 0.000000 
0.543185 0.087731 0.000000 
0.322519 2.024940 0.000000 
0.263849 2.011823 0.000000 
0.208223 2.006404 0.000000 
0.150441 2.002575 0.000000 
-0.687392 -0.476895 0.000000 
-3.327058 2.050178 0.000000 
-3.276080 2.003756 0.000000 
-3.224941 1.970169 0.000000 
-3.181728 1.941011 0.000000 
-3.135074 1.904081 0.000000 
-3.078123 1.879788 0.000000 
-1.944260 -0.240249 0.000000 
0.083204 2.007731 0.000000 
0.005786 2.002378 0.000000 
-0.071812 2.011616 0.000000 
-0.135705 2.041158 0.000000 
-0.182391 2.082764 0.000000 
-1.999041 -0.169280 0.000000 
-1.843230 -0.443789 0.000000 
-0.491126 -0.032990 0.000000 
-0.512312 0.040253 0.000000 
-0.526535 0.103085 0.000000 
-0.527935 0.165207 0.000000 
-0.524207 0.232377 0.000000 
-0.505864 0.289509 0.000000 
-0.468875 0.338721 0.000000 
-0.410369 0.367966 0.000000 
-0.354013 0.389083 0.000000 
-0.301050 0.399028 0.000000 
-0.255730 0.399801 0.000000 
-0.695595 -0.398600 0.000000 
-0.726457 -0.321718 0.000000 
-0.747352 -0.252263 0.000000 
-3.396487 1.993042 0.000000 
-3.344056 1.913654 0.000000 
-3.294256 1.870254 0.000000 
-3.248246 1.831929 0.000000 
-3.196818 1.792576 0.000000 
-3.159669 1.741265 0.000000 
-3.113281 1.694561 0.000000 
-3.056061 1.674998 0.000000 
-2.996684 1.652373 0.000000 
-2.933161 1.622756 0.000000 
-2.879064 1.586614 0.000000 
-2.813006 1.561828 0.000000 
-2.751664 1.538778 0.000000 
-2.686782 1.509455 0.000000 
-1.922020 -0.440982 0.000000 
-1.999705 -0.442481 0.000000 
-2.060018 -0.420877 0.000000 
-2.032615 -0.085890 0.000000 
-2.048550 -0.000168 0.000000 
-2.029059 0.065726 0.000000 
-2.105228 -0.363819 0.000000 
-2.154373 -0.296224 0.000000 
-2.203584 -0.241600 0.000000 
-2.237020 -0.180165 0.000000 
-2.250593 -0.114872 0.000000 
-2.270119 -0.043088 0.000000 
-2.297898 0.027222 0.000000 
-2.327118 0.088802 0.000000 
-2.346747 0.142772 0.000000 
-2.362840 0.195881 0.000000 
-2.374561 0.246926 0.000000 
-2.373128 0.298901 0.000000 
-2.334174 0.365492 0.000000 
-2.331842 0.406110 0.000000 
-2.284565 0.414869 0.000000 
-0.236368 2.132299 0.000000 
-0.299146 2.176126 0.000000 
-0.346614 2.196051 0.000000 
-0.382877 2.159548 0.000000 
-0.412447 2.130498 0.000000 
-0.433989 2.090210 0.000000 
-0.446472 2.047244 0.000000 
-0.451628 2.007926 0.000000 
-0.451047 1.969464 0.000000 
-0.449242 1.933460 0.000000 
-0.453345 1.901571 0.000000 
-0.460251 1.873877 0.000000 
-0.470304 1.845092 0.000000 
-0.475290 1.815602 0.000000 
-0.478341 1.785817 0.000000 
-0.479442 1.749080 0.000000 
-2.609147 1.495666 0.000000 
-2.517189 1.490167 0.000000 
-2.434013 1.490504 0.000000 
-2.352624 1.480473 0.000000 
-2.274410 1.461101 0.000000 
-2.204499 1.426453 0.000000 
-2.180326 1.357570 0.000000 
-2.178559 1.269034 0.000000 
-2.168273 1.179005 0.000000 
-2.159086 1.080941 0.000000 
-2.144575 0.991782 0.000000 
-2.163040 0.916565 0.000000 
-2.183612 0.842474 0.000000 
-2.172907 0.777916 0.000000 
-2.161614 0.715161 0.000000 
-2.169833 0.655049 0.000000 
-2.188987 0.593296 0.000000 
-2.218663 0.542050 0.000000 
-2.229021 0.486177 0.000000 
-2.997130 1.862991 0.000000 
-3.021908 1.764853 0.000000 
-2.902046 1.831484 0.000000 
-0.770600 -0.169670 0.000000 
-0.790096 -0.078011 0.000000 
-0.811857 0.002697 0.000000 
-0.835807 0.081261 0.000000 
-0.859157 0.151389 0.000000 
-0.881226 0.211440 0.000000 
-0.903169 0.270791 0.000000 
-0.928196 0.334835 0.000000 
-2.785442 1.798931 0.000000 
-2.944278 1.738189 0.000000 
-2.855014 1.701043 0.000000 
-2.796189 1.640963 0.000000 
-2.651235 1.784185 0.000000 
-2.517962 1.773837 0.000000 
-2.394240 1.764675 0.000000 
-2.275192 1.756678 0.000000 
-2.180847 1.732117 0.000000 
-2.099904 1.705638 0.000000 
-2.018420 1.674398 0.000000 
-1.945469 1.678695 0.000000 
-1.885190 1.712035 0.000000 
-1.829736 1.732604 0.000000 
-1.760875 1.757835 0.000000 
-1.680504 1.786260 0.000000 
-1.617798 1.804577 0.000000 
-1.570169 1.819100 0.000000 
-1.527149 1.833290 0.000000 
-1.482581 1.845419 0.000000 
-1.433927 1.851960 0.000000 
-1.386311 1.859875 0.000000 
-1.337319 1.868605 0.000000 
-1.286363 1.875685 0.000000 
-1.235962 1.876402 0.000000 
-1.188452 1.881215 0.000000 
-1.140860 1.890666 0.000000 
-1.091558 1.889976 0.000000 
-1.038962 1.878957 0.000000 
-0.982519 1.859959 0.000000 
-0.922315 1.843217 0.000000 
-0.869867 1.832892 0.000000 
-0.827747 1.826402 0.000000 
-0.785371 1.821491 0.000000 
-0.748025 1.811753 0.000000 
-0.712781 1.801486 0.000000 
-0.681690 1.787555 0.000000 
-0.657198 1.776420 0.000000 
-0.633895 1.769757 0.000000 
-0.612002 1.765302 0.000000 
-0.594184 1.758089 0.000000 
-0.577381 1.748639 0.000000 
-0.560109 1.733355 0.000000 
-0.540091 1.700901 0.000000 
-1.243914 0.062055 0.000000 
-1.232782 0.075772 0.000000 
-1.257376 0.047701 0.000000 
-1.224378 0.094472 0.000000 
-1.271472 0.028356 0.000000 
-1.215702 0.116469 0.000000 
-1.204660 0.142525 0.000000 
-1.290143 0.000614 0.000000 
-1.314447 -0.044426 0.000000 
-1.190204 0.172832 0.000000 
-1.318041 -0.097780 0.000000 
-1.171655 0.206988 0.000000 
-1.149359 0.243302 0.000000 
-1.123094 0.281551 0.000000 
-1.284246 -0.147760 0.000000 
-1.239750 -0.198486 0.000000 
-1.083297 0.325542 0.000000 
-1.028190 0.357213 0.000000 
-1.181630 -0.240842 0.000000 
-1.112789 -0.272270 0.000000 
-1.040643 -0.284440 0.000000 
-0.978118 -0.287527 0.000000 
-0.927392 -0.300552 0.000000 
-0.889718 -0.339687 0.000000 
-0.873564 -0.396237 0.000000 
-0.920771 -0.428431 0.000000 
-0.935346 -0.361162 0.000000 
-0.991249 -0.438007 0.000000 
-1.088918 -0.435279 0.000000 
-1.067426 -0.355627 0.000000 
-1.189474 -0.427715 0.000000 
-1.147229 -0.342960 0.000000 
-1.266509 -0.404425 0.000000 
-1.219913 -0.316782 0.000000 
-1.335307 -0.368599 0.000000 
-1.284456 -0.278783 0.000000 
-1.402357 -0.324695 0.000000 
-1.341444 -0.230983 0.000000 
-1.466758 -0.272019 0.000000 
-1.539152 -0.211220 0.000000 
-1.393011 -0.173052 0.000000 
-1.612839 -0.140949 0.000000 
-1.665320 -0.083371 0.000000 
-1.691220 -0.018544 0.000000 
-1.704696 0.066950 0.000000 
-1.850073 0.233819 0.000000 
-1.911042 0.177994 0.000000 
-1.969645 0.121157 0.000000 
-1.726970 0.173361 0.000000 
-0.222881 0.381190 0.000000 
-0.195707 0.353607 0.000000 
-0.164205 0.316660 0.000000 
-0.127520 0.283962 0.000000 
-0.095686 0.254470 0.000000 
-0.059027 0.225992 0.000000 
-0.018954 0.196009 0.000000 
0.030296 0.164738 0.000000 
0.086536 0.144212 0.000000 
0.141893 0.125481 0.000000 
0.202102 0.096201 0.000000 
0.263408 0.056284 0.000000 
0.311661 0.006297 0.000000 
0.333954 -0.053325 0.000000 
0.338621 -0.113775 0.000000 
0.341530 -0.167714 0.000000 
0.353165 -0.217903 0.000000 
0.365710 -0.276325 0.000000 
0.363543 -0.345854 0.000000 
[...]
POINT_DATA 899 
VECTORS X_GC float 
-3.648847 2.321210 0.000000 
-3.619410 2.280658 0.000000 
-3.578536 2.245063 0.000000 
-3.540028 2.209413 0.000000 
-3.511690 2.177217 0.000000 
-3.481362 2.147359 0.000000 
-3.451569 2.106685 0.000000 
0.772356 2.223724 0.000000 
0.774615 2.197603 0.000000 
0.769962 2.168849 0.000000 
-3.399514 2.076409 0.000000 
0.413960 -0.568433 0.000000 
0.455573 -0.564130 0.000000 
-1.762619 -0.468328 0.000000 
-1.783389 -0.432932 0.000000 
-1.714437 -0.404143 0.000000 
0.732567 2.218049 0.000000 
0.698438 2.204212 0.000000 
0.491831 -0.549927 0.000000 
0.519501 -0.519522 0.000000 
0.530556 -0.479075 0.000000 
0.532354 -0.433271 0.000000 
0.531774 -0.382765 0.000000 
-3.460923 2.014677 0.000000 
0.663989 2.182266 0.000000 
0.631675 2.154872 0.000000 
0.601833 2.130816 0.000000 
0.569607 2.107558 0.000000 
0.534059 2.085481 0.000000 
0.492599 2.064341 0.000000 
0.444403 2.045676 0.000000 
0.762807 2.127874 0.000000 
-1.708694 -0.369760 0.000000 
-1.726386 -0.329497 0.000000 
-1.761257 -0.305476 0.000000 
-1.812853 -0.297627 0.000000 
-0.690422 -0.549963 0.000000 
-0.624256 -0.567891 0.000000 
-0.561079 -0.576072 0.000000 
-0.500739 -0.577528 0.000000 
-0.445387 -0.577590 0.000000 
0.532260 -0.323681 0.000000 
0.536647 -0.254348 0.000000 
-1.881389 -0.285127 0.000000 
-0.389303 -0.575316 0.000000 
-0.340338 -0.560030 0.000000 
-0.344339 -0.505895 0.000000 
-0.358558 -0.453356 0.000000 
-0.381750 -0.412444 0.000000 
-0.406193 -0.378269 0.000000 
-0.417316 -0.346772 0.000000 
-0.428320 -0.312515 0.000000 
-0.436973 -0.268250 0.000000 
-0.444212 -0.212707 0.000000 
-0.452662 -0.153849 0.000000 
-0.468602 -0.096950 0.000000 
0.553166 -0.189633 0.000000 
0.573193 -0.131962 0.000000 
0.574450 -0.080221 0.000000 
0.561087 -0.029901 0.000000 
0.550432 0.025422 0.000000 
0.748903 2.074557 0.000000 
0.730940 2.018064 0.000000 
0.715868 1.971905 0.000000 
0.699446 1.935777 0.000000 
0.684888 1.894787 0.000000 
0.675900 1.848583 0.000000 
0.669871 1.799023 0.000000 
0.664455 1.751166 0.000000 
0.668163 1.704747 0.000000 
0.672091 1.654913 0.000000 
0.674558 1.606890 0.000000 
0.673045 1.556810 0.000000 
0.386491 2.035996 0.000000 
0.664855 1.498072 0.000000 
0.652298 1.439994 0.000000 
0.638456 1.386344 0.000000 
0.623121 1.336834 0.000000 
0.616008 1.293807 0.000000 
0.600787 1.258864 0.000000 
0.571289 1.229416 0.000000 
0.539016 1.198254 0.000000 
0.513857 1.169355 0.000000 
0.493343 1.143120 0.000000 
0.469109 1.125308 0.000000 
0.444920 1.108863 0.000000 
0.415324 1.087897 0.000000 
0.383540 1.063145 0.000000 
0.356179 1.033813 0.000000 
0.343879 0.994913 0.000000 
0.337476 0.949393 0.000000 
0.332404 0.904106 0.000000 
0.328512 0.864417 0.000000 
0.319594 0.828337 0.000000 
0.304149 0.794926 0.000000 
0.290502 0.754535 0.000000 
0.275896 0.706673 0.000000 
0.261905 0.664704 0.000000 
0.250150 0.631108 0.000000 
0.250896 0.593304 0.000000 
0.259587 0.550700 0.000000 
0.284617 0.507927 0.000000 
0.315237 0.478266 0.000000 
0.340022 0.458829 0.000000 
0.354380 0.432980 0.000000 
0.368685 0.405837 0.000000 
0.385568 0.379441 0.000000 
0.415372 0.354644 0.000000 
0.447119 0.322932 0.000000 
0.477633 0.295015 0.000000 
0.503078 0.267079 0.000000 
0.518876 0.229025 0.000000 
0.527127 0.193056 0.000000 
0.534187 0.148511 0.000000 
0.543185 0.087731 0.000000 
0.322519 2.024940 0.000000 
0.263849 2.011823 0.000000 
0.208223 2.006404 0.000000 
0.150441 2.002575 0.000000 
-0.687392 -0.476895 0.000000 
-3.327058 2.050178 0.000000 
-3.276080 2.003756 0.000000 
-3.224941 1.970169 0.000000 
-3.181728 1.941011 0.000000 
-3.135074 1.904081 0.000000 
-3.078123 1.879788 0.000000 
-1.944260 -0.240249 0.000000 
0.083204 2.007731 0.000000 
0.005786 2.002378 0.000000 
-0.071812 2.011616 0.000000 
-0.135705 2.041158 0.000000 
-0.182391 2.082764 0.000000 
-1.999041 -0.169280 0.000000 
-1.843230 -0.443789 0.000000 
-0.491126 -0.032990 0.000000 
-0.512312 0.040253 0.000000 
-0.526535 0.103085 0.000000 
-0.527935 0.165207 0.000000 
-0.524207 0.232377 0.000000 
-0.505864 0.289509 0.000000 
-0.468875 0.338721 0.000000 
-0.410369 0.367966 0.000000 
-0.354013 0.389083 0.000000 
-0.301050 0.399028 0.000000 
-0.255730 0.399801 0.000000 
-0.695595 -0.398600 0.000000 
-0.726457 -0.321718 0.000000 
-0.747352 -0.252263 0.000000 
-3.396487 1.993042 0.000000 
-3.344056 1.913654 0.000000 
-3.294256 1.870254 0.000000 
-3.248246 1.831929 0.000000 
-3.196818 1.792576 0.000000 
-3.159669 1.741265 0.000000 
-3.113281 1.694561 0.000000 
-3.056061 1.674998 0.000000 
-2.996684 1.652373 0.000000 
-2.933161 1.622756 0.000000 
-2.879064 1.586614 0.000000 
-2.813006 1.561828 0.000000 
-2.751664 1.538778 0.000000 
-2.686782 1.509455 0.000000 
-1.922020 -0.440982 0.000000 
-1.999705 -0.442481 0.000000 
-2.060018 -0.420877 0.000000 
-2.032615 -0.085890 0.000000 
-2.048550 -0.000168 0.000000 
-2.029059 0.065726 0.000000 
-2.105228 -0.363819 0.000000 
-2.154373 -0.296224 0.000000 
-2.203584 -0.241600 0.000000 
-2.237020 -0.180165 0.000000 
-2.250593 -0.114872 0.000000 
-2.270119 -0.043088 0.000000 
-2.297898 0.027222 0.000000 
-2.327118 0.088802 0.000000 
-2.346747 0.142772 0.000000 
-2.362840 0.195881 0.000000 
-2.374561 0.246926 0.000000 
-2.373128 0.298901 0.000000 
-2.334174 0.365492 0.000000 
-2.331842 0.406110 0.000000 
-2.284565 0.414869 0.000000 
-0.236368 2.132299 0.000000 
-0.299146 2.176126 0.000000 
-0.346614 2.196051 0.000000 
-0.382877 2.159548 0.000000 
-0.412447 2.130498 0.000000 
-0.433989 2.090210 0.000000 
-0.446472 2.047244 0.000000 
-0.451628 2.007926 0.000000 
-0.451047 1.969464 0.000000 
-0.449242 1.933460 0.000000 
-0.453345 1.901571 0.000000 
-0.460251 1.873877 0.000000 
-0.470304 1.845092 0.000000 
-0.475290 1.815602 0.000000 
-0.478341 1.785817 0.000000 
-0.479442 1.749080 0.000000 
-2.609147 1.495666 0.000000 
-2.517189 1.490167 0.000000 
-2.434013 1.490504 0.000000 
-2.352624 1.480473 0.000000 
-2.274410 1.461101 0.000000 
-2.204499 1.426453 0.000000 
-2.180326 1.357570 0.000000 
-2.178559 1.269034 0.000000 
-2.168273 1.179005 0.000000 
-2.159086 1.080941 0.000000 
-2.144575 0.991782 0.000000 
-2.163040 0.916565 0.000000 
-2.183612 0.842474 0.000000 
-2.172907 0.777916 0.000000 
-2.161614 0.715161 0.000000 
-2.169833 0.655049 0.000000 
-2.188987 0.593296 0.000000 
-2.218663 0.542050 0.000000 
-2.229021 0.486177 0.000000 
-2.997130 1.862991 0.000000 
-3.021908 1.764853 0.000000 
-2.902046 1.831484 0.000000 
-0.770600 -0.169670 0.000000 
-0.790096 -0.078011 0.000000 
-0.811857 0.002697 0.000000 
-0.835807 0.081261 0.000000 
-0.859157 0.151389 0.000000 
-0.881226 0.211440 0.000000 
-0.903169 0.270791 0.000000 
-0.928196 0.334835 0.000000 
-2.785442 1.798931 0.000000 
-2.944278 1.738189 0.000000 
-2.855014 1.701043 0.000000 
-2.796189 1.640963 0.000000 
-2.651235 1.784185 0.000000 
-2.517962 1.773837 0.000000 
-2.394240 1.764675 0.000000 
-2.275192 1.756678 0.000000 
-2.180847 1.732117 0.000000 
-2.099904 1.705638 0.000000 
-2.018420 1.674398 0.000000 
-1.945469 1.678695 0.000000 
-1.885190 1.712035 0.000000 
-1.829736 1.732604 0.000000 
-1.760875 1.757835 0.000000 
-1.680504 1.786260 0.000000 
-1.617798 1.804577 0.000000 
-1.570169 1.819100 0.000000 
-1.527149 1.833290 0.000000 
-1.482581 1.845419 0.000000 
-1.433927 1.851960 0.000000 
-1.386311 1.859875 0.000000 
-1.337319 1.868605 0.000000 
-1.286363 1.875685 0.000000 
-1.235962 1.876402 0.000000 
-1.188452 1.881215 0.000000 
-1.140860 1.890666 0.000000 
-1.091558 1.889976 0.000000 
-1.038962 1.878957 0.000000 
-0.982519 1.859959 0.000000 
-0.922315 1.843217 0.000000 
-0.869867 1.832892 0.000000 
-0.827747 1.826402 0.000000 
-0.785371 1.821491 0.000000 
-0.748025 1.811753 0.000000 
-0.712781 1.801486 0.000000 
-0.681690 1.787555 0.000000 
-0.657198 1.776420 0.000000 
-0.633895 1.769757 0.000000 
-0.612002 1.765302 0.000000 
-0.594184 1.758089 0.000000 
-0.577381 1.748639 0.000000 
-0.560109 1.733355 0.000000 
-0.540091 1.700901 0.000000 
-1.243914 0.062055 0.000000 
-1.232782 0.075772 0.000000 
-1.257376 0.047701 0.000000 
-1.224378 0.094472 0.000000 
-1.271472 0.028356 0.000000 
-1.215702 0.116469 0.000000 
-1.204660 0.142525 0.000000 
-1.290143 0.000614 0.000000 
-1.314447 -0.044426 0.000000 
-1.190204 0.172832 0.000000 
-1.318041 -0.097780 0.000000 
-1.171655 0.206988 0.000000 
-1.149359 0.243302 0.000000 
-1.123094 0.281551 0.000000 
-1.284246 -0.147760 0.000000 
-1.239750 -0.198486 0.000000 
-1.083297 0.325542 0.000000 
-1.028190 0.357213 0.000000 
-1.181630 -0.240842 0.000000 
-1.112789 -0.272270 0.000000 
-1.040643 -0.284440 0.000000 
-0.978118 -0.287527 0.000000 
-0.927392 -0.300552 0.000000 
-0.889718 -0.339687 0.000000 
-0.873564 -0.396237 0.000000 
-0.920771 -0.428431 0.000000 
-0.935346 -0.361162 0.000000 
-0.991249 -0.438007 0.000000 
-1.088918 -0.435279 0.000000 
-1.067426 -0.355627 0.000000 
-1.189474 -0.427715 0.000000 
-1.147229 -0.342960 0.000000 
-1.266509 -0.404425 0.000000 
-1.219913 -0.316782 0.000000 
-1.335307 -0.368599 0.000000 
-1.284456 -0.278783 0.000000 
-1.402357 -0.324695 0.000000 
-1.341444 -0.230983 0.000000 
-1.466758 -0.272019 0.000000 
-1.539152 -0.211220 0.000000 
-1.393011 -0.173052 0.000000 
-1.612839 -0.140949 0.000000 
-1.665320 -0.083371 0.000000 
-1.691220 -0.018544 0.000000 
-1.704696 0.066950 0.000000 
-1.850073 0.233819 0.000000 
-1.911042 0.177994 0.000000 
-1.969645 0.121157 0.000000 
-1.726970 0.173361 0.000000 
-0.222881 0.381190 0.000000 
-0.195707 0.353607 0.000000 
-0.164205 0.316660 0.000000 
-0.127520 0.283962 0.000000 
-0.095686 0.254470 0.000000 
-0.059027 0.225992 0.000000 
-0.018954 0.196009 0.000000 
0.030296 0.164738 0.000000 
0.086536 0.144212 0.000000 
0.141893 0.125481 0.000000 
0.202102 0.096201 0.000000 
0.263408 0.056284 0.000000 
0.311661 0.006297 0.000000 
0.333954 -0.053325 0.000000 
0.338621 -0.113775 0.000000 
0.341530 -0.167714 0.000000 
0.353165 -0.217903 0.000000 
0.365710 -0.276325 0.000000 
0.363543 -0.345854 0.000000 
0.357353 -0.407969 0.000000 
0.351188 -0.458711 0.000000 
0.363842 -0.505739 0.000000 
-1.737069 -0.372390 0.000000 
-0.199590 0.433808 0.000000 
-0.156305 0.403892 0.000000 
-0.462327 1.669847 0.000000 
0.741313 2.192422 0.000000 
0.482415 -0.516510 0.000000 
0.446104 -0.524406 0.000000 
0.403556 -0.530060 0.000000 
-0.104001 0.375827 0.000000 
-0.514998 1.601902 0.000000 
-0.059937 0.341422 0.000000 
0.738519 2.167157 0.000000 
0.714572 2.179457 0.000000 
-0.249752 0.460631 0.000000 
-0.036232 0.297623 0.000000 
0.000772 0.269791 0.000000 
0.035161 0.244147 0.000000 
-1.776537 -0.371832 0.000000 
-1.836238 -0.367647 0.000000 
-0.309416 0.474731 0.000000 
-0.378944 0.472467 0.000000 
-2.292732 0.352055 0.000000 
-2.315166 0.302064 0.000000 
-2.314418 0.254507 0.000000 
-2.293418 0.208121 0.000000 
-2.279687 0.158242 0.000000 
-2.253462 0.110976 0.000000 
0.075120 0.216404 0.000000 
0.131113 0.203796 0.000000 
-0.977004 0.405779 0.000000 
-0.860050 0.395614 0.000000 
-1.912142 -0.359591 0.000000 
-1.989966 -0.368371 0.000000 
-2.023752 -0.300829 0.000000 
-2.082175 -0.229568 0.000000 
0.723889 2.135644 0.000000 
0.691466 2.154487 0.000000 
0.665980 2.121840 0.000000 
0.704783 2.094572 0.000000 
0.637970 2.083782 0.000000 
0.681732 2.047363 0.000000 
0.670916 2.001188 0.000000 
0.602858 2.052114 0.000000 
0.659584 1.960764 0.000000 
0.560783 2.025743 0.000000 
0.636111 1.924690 0.000000 
0.607495 1.874899 0.000000 
0.595324 1.811418 0.000000 
0.604052 1.746745 0.000000 
0.514160 1.996340 0.000000 
0.453857 1.968894 0.000000 
0.392525 1.966916 0.000000 
0.334098 1.965388 0.000000 
0.278675 1.946634 0.000000 
0.217273 1.928559 0.000000 
0.149449 1.911203 0.000000 
0.614128 1.694469 0.000000 
0.621313 1.646890 0.000000 
0.624262 1.602010 0.000000 
-2.197766 0.057788 0.000000 
-2.158682 -0.017136 0.000000 
-2.124695 0.117118 0.000000 
-2.150589 -0.183262 0.000000 
-2.141926 -0.105717 0.000000 
-0.393439 -0.522277 0.000000 
-0.412631 -0.478233 0.000000 
-0.436983 -0.437630 0.000000 
-0.445953 -0.394210 0.000000 
-0.458251 -0.361384 0.000000 
-0.479726 -0.326618 0.000000 
-0.496934 -0.277887 0.000000 
-0.509002 -0.222803 0.000000 
-0.517157 -0.168473 0.000000 
-0.545309 -0.117198 0.000000 
-0.442273 -0.519671 0.000000 
-0.496002 -0.510154 0.000000 
-0.557668 -0.512260 0.000000 
-0.618975 -0.496780 0.000000 
-0.334659 2.134238 0.000000 
-0.367985 2.104521 0.000000 
-0.385153 2.068095 0.000000 
-0.396797 2.034228 0.000000 
-0.406285 1.998706 0.000000 
-0.402558 1.959572 0.000000 
-0.406645 1.921129 0.000000 
-0.418378 1.888715 0.000000 
-0.428059 1.859589 0.000000 
-0.435849 1.830042 0.000000 
-0.442335 1.800007 0.000000 
-0.445406 1.766942 0.000000 
-0.444483 1.721226 0.000000 
0.619822 1.556278 0.000000 
-1.077870 0.452843 0.000000 
-1.149036 0.410885 0.000000 
-1.174735 0.336042 0.000000 
-1.192231 0.284319 0.000000 
-1.210811 0.242542 0.000000 
-1.228352 0.203202 0.000000 
-1.238869 0.165222 0.000000 
-1.244643 0.133725 0.000000 
-1.248534 0.108824 0.000000 
-1.252336 0.089536 0.000000 
-1.262323 0.076285 0.000000 
-1.280319 0.065369 0.000000 
-0.451814 0.449807 0.000000 
-0.526928 0.406285 0.000000 
0.194935 0.186804 0.000000 
0.069048 1.897103 0.000000 
-0.574175 0.335601 0.000000 
-0.593607 0.254498 0.000000 
-1.764101 0.294183 0.000000 
-2.210991 0.413039 0.000000 
-0.825996 0.310337 0.000000 
-0.799223 0.239256 0.000000 
-0.760911 0.172823 0.000000 
0.605964 1.505327 0.000000 
0.587834 1.447966 0.000000 
0.576354 1.388118 0.000000 
0.574971 1.333110 0.000000 
0.580375 1.290085 0.000000 
0.545179 1.267701 0.000000 
0.509957 1.235439 0.000000 
0.484198 1.199036 0.000000 
0.468721 1.167882 0.000000 
0.449386 1.149351 0.000000 
0.422962 1.136685 0.000000 
0.391379 1.117534 0.000000 
0.357154 1.093471 0.000000 
0.323730 1.065098 0.000000 
-0.582151 -0.056330 0.000000 
0.265957 0.160374 0.000000 
0.333763 0.114245 0.000000 
0.378371 0.047229 0.000000 
0.400918 -0.027166 0.000000 
0.401084 -0.090155 0.000000 
0.404345 -0.144256 0.000000 
0.432648 -0.195338 0.000000 
0.450030 -0.259779 0.000000 
0.529803 -0.106626 0.000000 
0.491947 -0.154763 0.000000 
0.453243 -0.104879 0.000000 
0.449550 -0.334103 0.000000 
0.498420 -0.060752 0.000000 
0.474171 -0.000811 0.000000 
0.457863 0.073762 0.000000 
0.462195 -0.392757 0.000000 
0.478704 -0.439093 0.000000 
0.483460 -0.480059 0.000000 
0.412910 -0.418399 0.000000 
0.398390 -0.457112 0.000000 
0.404290 -0.491399 0.000000 
0.442452 -0.486841 0.000000 
0.436659 -0.451677 0.000000 
-0.727378 0.098690 0.000000 
-0.616071 0.180708 0.000000 
-0.623548 0.106428 0.000000 
-0.605779 0.025420 0.000000 
-0.706340 0.012972 0.000000 
-0.681483 -0.073290 0.000000 
-0.032304 1.891543 0.000000 
-0.128010 1.927692 0.000000 
-0.195732 1.994816 0.000000 
-0.243911 2.048730 0.000000 
-0.287859 2.096133 0.000000 
-0.335518 2.068438 0.000000 
-0.667608 -0.158671 0.000000 
-0.584906 -0.165439 0.000000 
-0.658169 -0.238679 0.000000 
-0.578442 -0.230809 0.000000 
-0.639050 -0.310122 0.000000 
-0.607982 -0.385639 0.000000 
-0.562541 -0.293508 0.000000 
-0.536184 -0.354532 0.000000 
-0.495978 -0.392493 0.000000 
-0.500680 -0.444888 0.000000 
-0.573051 -0.449341 0.000000 
-2.690892 1.664837 0.000000 
-2.684799 1.578824 0.000000 
-2.602920 1.577562 0.000000 
-2.574381 1.662555 0.000000 
-2.518122 1.597429 0.000000 
-2.424460 1.621327 0.000000 
-2.320006 1.612396 0.000000 
-2.229986 1.588778 0.000000 
-2.146342 1.547538 0.000000 
-1.455055 -0.114070 0.000000 
-1.387692 -0.033747 0.000000 
-1.339496 0.019582 0.000000 
-1.304977 0.048142 0.000000 
-1.531301 -0.048577 0.000000 
-1.604385 -0.004465 0.000000 
-1.592423 0.096216 0.000000 
-1.608296 0.220179 0.000000 
-1.827918 0.418624 0.000000 
0.477873 0.187428 0.000000 
0.477147 0.222326 0.000000 
0.465631 0.256566 0.000000 
-0.587742 1.700775 0.000000 
-0.593403 1.724879 0.000000 
-0.604579 1.737535 0.000000 
-0.619289 1.743221 0.000000 
-0.639577 1.741048 0.000000 
-0.665912 1.742664 0.000000 
-0.697937 1.749651 0.000000 
-0.595692 1.647287 0.000000 
-0.726123 1.764462 0.000000 
-0.757398 1.775033 0.000000 
-0.794522 1.772457 0.000000 
-0.841416 1.769880 0.000000 
-0.894922 1.771240 0.000000 
-0.956071 1.779656 0.000000 
-1.020951 1.798577 0.000000 
-1.077937 1.826212 0.000000 
-1.120258 1.854940 0.000000 
-1.171769 1.830680 0.000000 
0.332207 0.384071 0.000000 
0.333662 0.342336 0.000000 
0.321472 0.412688 0.000000 
0.302407 0.439500 0.000000 
0.214022 0.454162 0.000000 
0.194081 0.515187 0.000000 
0.186716 0.570700 0.000000 
0.189303 0.623472 0.000000 
0.360023 0.302654 0.000000 
0.405131 0.277521 0.000000 
0.201671 0.672718 0.000000 
0.218038 0.722979 0.000000 
0.236652 0.771913 0.000000 
0.256885 0.813846 0.000000 
0.278373 0.842340 0.000000 
0.284019 0.875738 0.000000 
0.276718 0.922486 0.000000 
0.278735 0.979299 0.000000 
0.296322 1.029566 0.000000 
-1.507867 1.782438 0.000000 
-1.548116 1.757795 0.000000 
-1.598023 1.730416 0.000000 
-1.467251 1.797212 0.000000 
-1.422160 1.804495 0.000000 
-1.373311 1.811211 0.000000 
-1.322903 1.818988 0.000000 
-1.275577 1.828234 0.000000 
-1.225048 1.826834 0.000000 
-1.662214 1.706747 0.000000 
-1.732600 1.686807 0.000000 
-1.794687 1.672432 0.000000 
-1.841773 1.643244 0.000000 
-2.078405 0.710517 0.000000 
-2.079214 0.789106 0.000000 
-2.097651 0.632917 0.000000 
-2.129318 0.561178 0.000000 
-2.096743 0.869668 0.000000 
-2.169699 0.505835 0.000000 
-1.991686 0.432834 0.000000 
-1.642187 0.358390 0.000000 
-1.989898 0.265610 0.000000 
-2.064526 0.193797 0.000000 
-1.914688 0.339144 0.000000 
-2.037969 1.122221 0.000000 
-2.021377 1.006536 0.000000 
-2.055796 1.251382 0.000000 
-2.102728 1.354035 0.000000 
-2.047875 1.496338 0.000000 
0.428030 0.243069 0.000000 
0.375625 0.221833 0.000000 
0.313454 0.234934 0.000000 
0.290352 0.380968 0.000000 
0.238487 1.091886 0.000000 
0.440631 0.204961 0.000000 
0.396678 0.165184 0.000000 
0.460488 0.139264 0.000000 
0.523747 1.315376 0.000000 
-2.262588 0.278630 0.000000 
-2.220468 0.334658 0.000000 
-2.218579 0.225119 0.000000 
-2.146376 0.276969 0.000000 
-2.206503 0.160049 0.000000 
0.473879 1.276764 0.000000 
0.446488 1.224432 0.000000 
0.440978 1.180414 0.000000 
0.409581 1.172558 0.000000 
0.629179 2.001454 0.000000 
0.593839 1.968980 0.000000 
0.550362 1.924776 0.000000 
0.483841 1.884354 0.000000 
0.202470 1.025522 0.000000 
0.241245 0.877746 0.000000 
0.205152 0.852945 0.000000 
0.175878 0.804805 0.000000 
0.153326 0.746298 0.000000 
0.132079 0.685849 0.000000 
0.113278 0.621393 0.000000 
0.106000 0.553069 0.000000 
0.109640 0.483873 0.000000 
0.121648 0.413195 0.000000 
0.032483 0.323581 0.000000 
0.246820 0.406259 0.000000 
0.099619 0.271946 0.000000 
0.373127 1.157676 0.000000 
-0.307911 2.020816 0.000000 
-0.360136 2.002347 0.000000 
-0.343252 1.948001 0.000000 
-0.270247 1.956145 0.000000 
0.168337 0.268464 0.000000 
0.242346 0.258127 0.000000 
0.270369 0.327164 0.000000 
0.505525 1.383137 0.000000 
-0.689828 0.210392 0.000000 
-0.729540 0.267796 0.000000 
-0.746154 0.342269 0.000000 
-0.657668 0.358833 0.000000 
-0.661195 0.274546 0.000000 
-0.924642 0.511509 0.000000 
-1.137284 1.774872 0.000000 
-1.072920 1.730278 0.000000 
-1.248127 1.787169 0.000000 
-1.304069 1.770847 0.000000 
-1.360197 1.763186 0.000000 
-1.411221 1.759047 0.000000 
-1.453165 1.755817 0.000000 
-1.486003 1.738355 0.000000 
-1.510814 1.694886 0.000000 
-1.558800 1.650217 0.000000 
-0.995058 1.703525 0.000000 
-0.919611 1.693049 0.000000 
-0.852227 1.699981 0.000000 
-0.796966 1.716499 0.000000 
-0.752732 1.735668 0.000000 
-1.635591 1.622884 0.000000 
-1.992480 0.897586 0.000000 
-1.965104 0.787806 0.000000 
-1.974377 0.684473 0.000000 
-2.014368 0.590852 0.000000 
-2.065453 0.507666 0.000000 
-2.071492 0.354599 0.000000 
-2.131272 0.438135 0.000000 
-1.712039 1.609561 0.000000 
-1.781280 1.609511 0.000000 
-1.884796 1.579455 0.000000 
0.516332 1.799117 0.000000 
0.538779 1.727989 0.000000 
0.517174 1.457523 0.000000 
0.552532 1.519459 0.000000 
0.576896 1.561385 0.000000 
0.583356 1.598412 0.000000 
0.576083 1.635416 0.000000 
0.562288 1.677776 0.000000 