# vtk DataFile Version 3.0 
vtk output 
ASCII 
DATASET UNSTRUCTURED_GRID 
POINTS 899 float 
-3.648847 2.305867 0.000000 
-3.619410 2.265315 0.000000 
-3.578536 2.229721 0.000000 
-3.540028 2.194070 0.000000 
-3.511690 2.161874 0.000000 
-3.481362 2.132016 0.000000 
-3.451569 2.091343 0.000000 
0.772356 2.208381 0.000000 
0.774615 2.182260 0.000000 
0.769962 2.153506 0.000000 
-3.399514 2.061067 0.000000 
0.413960 -0.583775 0.000000 
0.455573 -0.579473 0.000000 
-1.762619 -0.483671 0.000000 
-1.783389 -0.448275 0.000000 
-1.714437 -0.419485 0.000000 
0.732567 2.202706 0.000000 
0.698438 2.188870 0.000000 
0.491831 -0.565270 0.000000 
0.519501 -0.534865 0.000000 
0.530556 -0.494418 0.000000 
0.532354 -0.448614 0.000000 
0.531774 -0.398107 0.000000 
-3.460923 1.999334 0.000000 
0.663989 2.166923 0.000000 
0.631675 2.139529 0.000000 
0.601833 2.115473 0.000000 
0.569607 2.092216 0.000000 
0.534059 2.070138 0.000000 
0.492599 2.048998 0.000000 
0.444403 2.030333 0.000000 
0.762807 2.112532 0.000000 
-1.708694 -0.385103 0.000000 
-1.726386 -0.344839 0.000000 
-1.761257 -0.320819 0.000000 
-1.812853 -0.312970 0.000000 
-0.690422 -0.565306 0.000000 
-0.624256 -0.583233 0.000000 
-0.561079 -0.591415 0.000000 
-0.500739 -0.592871 0.000000 
-0.445387 -0.592933 0.000000 
0.532260 -0.339024 0.000000 
0.536647 -0.269690 0.000000 
-1.881389 -0.300470 0.000000 
-0.389303 -0.590658 0.000000 
-0.340338 -0.575373 0.000000 
-0.344339 -0.521238 0.000000 
-0.358558 -0.468698 0.000000 
-0.381750 -0.427787 0.000000 
-0.406193 -0.393612 0.000000 
-0.417316 -0.362114 0.000000 
-0.428320 -0.327857 0.000000 
-0.436973 -0.283593 0.000000 
-0.444212 -0.228050 0.000000 
-0.452662 -0.169192 0.000000 
-0.468602 -0.112293 0.000000 
0.553166 -0.204975 0.000000 
0.573193 -0.147304 0.000000 
0.574450 -0.095564 0.000000 
0.561087 -0.045244 0.000000 
0.550432 0.010079 0.000000 
0.748903 2.059214 0.000000 
0.730940 2.002721 0.000000 
0.715868 1.956562 0.000000 
0.699446 1.920434 0.000000 
0.684888 1.879445 0.000000 
0.675900 1.833240 0.000000 
0.669871 1.783680 0.000000 
0.664455 1.735823 0.000000 
0.668163 1.689404 0.000000 
0.672091 1.639570 0.000000 
0.674558 1.591547 0.000000 
0.673045 1.541468 0.000000 
0.386491 2.020653 0.000000 
0.664855 1.482729 0.000000 
0.652298 1.424651 0.000000 
0.638456 1.371001 0.000000 
0.623121 1.321491 0.000000 
0.616008 1.278464 0.000000 
0.600787 1.243522 0.000000 
0.571289 1.214073 0.000000 
0.539016 1.182912 0.000000 
0.513857 1.154012 0.000000 
0.493343 1.127777 0.000000 
0.469109 1.109965 0.000000 
0.444920 1.093520 0.000000 
0.415324 1.072555 0.000000 
0.383540 1.047802 0.000000 
0.356179 1.018470 0.000000 
0.343879 0.979570 0.000000 
0.337476 0.934050 0.000000 
0.332404 0.888764 0.000000 
0.328512 0.849074 0.000000 
0.319594 0.812994 0.000000 
0.304149 0.779583 0.000000 
0.290502 0.739192 0.000000 
0.275896 0.691330 0.000000 
0.261905 0.649361 0.000000 
0.250150 0.615766 0.000000 
0.250896 0.577961 0.000000 
0.259587 0.535357 0.000000 
0.284617 0.492584 0.000000 
0.315237 0.462923 0.000000 
0.340022 0.443486 0.000000 
0.354380 0.417637 0.000000 
0.368685 0.390495 0.000000 
0.385568 0.364098 0.000000 
0.415372 0.339302 0.000000 
0.447119 0.307589 0.000000 
0.477633 0.279672 0.000000 
0.503078 0.251736 0.000000 
0.518876 0.213682 0.000000 
0.527127 0.177713 0.000000 
0.534187 0.133168 0.000000 
0.543185 0.072388 0.000000 
0.322519 2.009597 0.000000 
0.263849 1.996480 0.000000 
0.208223 1.991061 0.000000 
0.150441 1.987232 0.000000 
-0.687392 -0.492238 0.000000 
-3.327058 2.034835 0.000000 
-3.276080 1.988413 0.000000 
-3.224941 1.954827 0.000000 
-3.181728 1.925668 0.000000 
-3.135074 1.888738 0.000000 
-3.078123 1.864445 0.000000 
-1.944260 -0.255591 0.000000 
0.083204 1.992388 0.000000 
0.005786 1.987035 0.000000 
-0.071812 1.996274 0.000000 
-0.135705 2.025815 0.000000 
-0.182391 2.067421 0.000000 
-1.999041 -0.184623 0.000000 
-1.843230 -0.459132 0.000000 
-0.491126 -0.048333 0.000000 
-0.512312 0.024910 0.000000 
-0.526535 0.087742 0.000000 
-0.527935 0.149864 0.000000 
-0.524207 0.217034 0.000000 
-0.505864 0.274166 0.000000 
-0.468875 0.323378 0.000000 
-0.410369 0.352623 0.000000 
-0.354013 0.373740 0.000000 
-0.301050 0.383686 0.000000 
-0.255730 0.384458 0.000000 
-0.695595 -0.413943 0.000000 
-0.726457 -0.337061 0.000000 
-0.747352 -0.267606 0.000000 
-3.396487 1.977699 0.000000 
-3.344056 1.898312 0.000000 
-3.294256 1.854911 0.000000 
-3.248246 1.816586 0.000000 
-3.196818 1.777233 0.000000 
-3.159669 1.725923 0.000000 
-3.113281 1.679218 0.000000 
-3.056061 1.659655 0.000000 
-2.996684 1.637030 0.000000 
-2.933161 1.607414 0.000000 
-2.879064 1.571271 0.000000 
-2.813006 1.546485 0.000000 
-2.751664 1.523435 0.000000 
-2.686782 1.494112 0.000000 
-1.922020 -0.456325 0.000000 
-1.999705 -0.457824 0.000000 
-2.060018 -0.436220 0.000000 
-2.032615 -0.101232 0.000000 
-2.048550 -0.015510 0.000000 
-2.029059 0.050383 0.000000 
-2.105228 -0.379161 0.000000 
-2.154373 -0.311567 0.000000 
-2.203584 -0.256943 0.000000 
-2.237020 -0.195508 0.000000 
-2.250593 -0.130215 0.000000 
-2.270119 -0.058431 0.000000 
-2.297898 0.011879 0.000000 
-2.327118 0.073459 0.000000 
-2.346747 0.127429 0.000000 
-2.362840 0.180538 0.000000 
-2.374561 0.231583 0.000000 
-2.373128 0.283559 0.000000 
-2.334174 0.350149 0.000000 
-2.331842 0.390767 0.000000 
-2.284565 0.399526 0.000000 
-0.236368 2.116956 0.000000 
-0.299146 2.160783 0.000000 
-0.346614 2.180708 0.000000 
-0.382877 2.144205 0.000000 
-0.412447 2.115155 0.000000 
-0.433989 2.074868 0.000000 
-0.446472 2.031901 0.000000 
-0.451628 1.992583 0.000000 
-0.451047 1.954121 0.000000 
-0.449242 1.918117 0.000000 
-0.453345 1.886228 0.000000 
-0.460251 1.858534 0.000000 
-0.470304 1.829749 0.000000 
-0.475290 1.800259 0.000000 
-0.478341 1.770474 0.000000 
-0.479442 1.733738 0.000000 
-2.609147 1.480323 0.000000 
-2.517189 1.474825 0.000000 
-2.434013 1.475161 0.000000 
-2.352624 1.465130 0.000000 
-2.274410 1.445759 0.000000 
-2.204499 1.411110 0.000000 
-2.180326 1.342227 0.000000 
-2.178559 1.253691 0.000000 
-2.168273 1.163662 0.000000 
-2.159086 1.065598 0.000000 
-2.144575 0.976439 0.000000 
-2.163040 0.901222 0.000000 
-2.183612 0.827131 0.000000 
-2.172907 0.762573 0.000000 
-2.161614 0.699818 0.000000 
-2.169833 0.639706 0.000000 
-2.188987 0.577953 0.000000 
-2.218663 0.526707 0.000000 
-2.229021 0.470834 0.000000 
-2.997130 1.847648 0.000000 
-3.021908 1.749510 0.000000 
-2.902046 1.816141 0.000000 
-0.770600 -0.185012 0.000000 
-0.790096 -0.093354 0.000000 
-0.811857 -0.012646 0.000000 
-0.835807 0.065918 0.000000 
-0.859157 0.136046 0.000000 
-0.881226 0.196097 0.000000 
-0.903169 0.255448 0.000000 
-0.928196 0.319492 0.000000 
-2.785442 1.783588 0.000000 
-2.944278 1.722846 0.000000 
-2.855014 1.685700 0.000000 
-2.796189 1.625620 0.000000 
-2.651235 1.768842 0.000000 
-2.517962 1.758495 0.000000 
-2.394240 1.749332 0.000000 
-2.275192 1.741335 0.000000 
-2.180847 1.716774 0.000000 
-2.099904 1.690295 0.000000 
-2.018420 1.659055 0.000000 
-1.945469 1.663353 0.000000 
-1.885190 1.696692 0.000000 
-1.829736 1.717261 0.000000 
-1.760875 1.742493 0.000000 
-1.680504 1.770917 0.000000 
-1.617798 1.789234 0.000000 
-1.570169 1.803758 0.000000 
-1.527149 1.817948 0.000000 
-1.482581 1.830076 0.000000 
-1.433927 1.836617 0.000000 
-1.386311 1.844532 0.000000 
-1.337319 1.853262 0.000000 
-1.286363 1.860342 0.000000 
-1.235962 1.861060 0.000000 
-1.188452 1.865872 0.000000 
-1.140860 1.875324 0.000000 
-1.091558 1.874633 0.000000 
-1.038962 1.863614 0.000000 
-0.982519 1.844616 0.000000 
-0.922315 1.827874 0.000000 
-0.869867 1.817549 0.000000 
-0.827747 1.811059 0.000000 
-0.785371 1.806148 0.000000 
-0.748025 1.796411 0.000000 
-0.712781 1.786144 0.000000 
-0.681690 1.772212 0.000000 
-0.657198 1.761077 0.000000 
-0.633895 1.754414 0.000000 
-0.612002 1.749959 0.000000 
-0.594184 1.742746 0.000000 
-0.577381 1.733296 0.000000 
-0.560109 1.718013 0.000000 
-0.540091 1.685558 0.000000 
-1.243914 0.046712 0.000000 
-1.232782 0.060429 0.000000 
-1.257376 0.032359 0.000000 
-1.224378 0.079129 0.000000 
-1.271472 0.013013 0.000000 
-1.215702 0.101126 0.000000 
-1.204660 0.127182 0.000000 
-1.290143 -0.014729 0.000000 
-1.314447 -0.059768 0.000000 
-1.190204 0.157489 0.000000 
-1.318041 -0.113123 0.000000 
-1.171655 0.191645 0.000000 
-1.149359 0.227959 0.000000 
-1.123094 0.266208 0.000000 
-1.284246 -0.163102 0.000000 
-1.239750 -0.213829 0.000000 
-1.083297 0.310199 0.000000 
-1.028190 0.341871 0.000000 
-1.181630 -0.256185 0.000000 
-1.112789 -0.287612 0.000000 
-1.040643 -0.299783 0.000000 
-0.978118 -0.302869 0.000000 
-0.927392 -0.315895 0.000000 
-0.889718 -0.355030 0.000000 
-0.873564 -0.411580 0.000000 
-0.920771 -0.443774 0.000000 
-0.935346 -0.376505 0.000000 
-0.991249 -0.453350 0.000000 
-1.088918 -0.450621 0.000000 
-1.067426 -0.370970 0.000000 
-1.189474 -0.443058 0.000000 
-1.147229 -0.358302 0.000000 
-1.266509 -0.419768 0.000000 
-1.219913 -0.332125 0.000000 
-1.335307 -0.383941 0.000000 
-1.284456 -0.294126 0.000000 
-1.402357 -0.340038 0.000000 
-1.341444 -0.246325 0.000000 
-1.466758 -0.287362 0.000000 
-1.539152 -0.226563 0.000000 
-1.393011 -0.188394 0.000000 
-1.612839 -0.156292 0.000000 
-1.665320 -0.098713 0.000000 
-1.691220 -0.033887 0.000000 
-1.704696 0.051607 0.000000 
-1.850073 0.218476 0.000000 
-1.911042 0.162651 0.000000 
-1.969645 0.105815 0.000000 
-1.726970 0.158018 0.000000 
-0.222881 0.365848 0.000000 
-0.195707 0.338264 0.000000 
-0.164205 0.301317 0.000000 
-0.127520 0.268619 0.000000 
-0.095686 0.239128 0.000000 
-0.059027 0.210649 0.000000 
-0.018954 0.180666 0.000000 
0.030296 0.149395 0.000000 
0.086536 0.128869 0.000000 
0.141893 0.110138 0.000000 
0.202102 0.080858 0.000000 
0.263408 0.040941 0.000000 
0.311661 -0.009045 0.000000 
0.333954 -0.068668 0.000000 
0.338621 -0.129118 0.000000 
0.341530 -0.183057 0.000000 
0.353165 -0.233245 0.000000 
0.365710 -0.291668 0.000000 
0.363543 -0.361197 0.000000 
[...]
POINT_DATA 899 
VECTORS X_GC float 
-3.648847 2.305867 0.000000 
-3.619410 2.265315 0.000000 
-3.578536 2.229721 0.000000 
-3.540028 2.194070 0.000000 
-3.511690 2.161874 0.000000 
-3.481362 2.132016 0.000000 
-3.451569 2.091343 0.000000 
0.772356 2.208381 0.000000 
0.774615 2.182260 0.000000 
0.769962 2.153506 0.000000 
-3.399514 2.061067 0.000000 
0.413960 -0.583775 0.000000 
0.455573 -0.579473 0.000000 
-1.762619 -0.483671 0.000000 
-1.783389 -0.448275 0.000000 
-1.714437 -0.419485 0.000000 
0.732567 2.202706 0.000000 
0.698438 2.188870 0.000000 
0.491831 -0.565270 0.000000 
0.519501 -0.534865 0.000000 
0.530556 -0.494418 0.000000 
0.532354 -0.448614 0.000000 
0.531774 -0.398107 0.000000 
-3.460923 1.999334 0.000000 
0.663989 2.166923 0.000000 
0.631675 2.139529 0.000000 
0.601833 2.115473 0.000000 
0.569607 2.092216 0.000000 
0.534059 2.070138 0.000000 
0.492599 2.048998 0.000000 
0.444403 2.030333 0.000000 
0.762807 2.112532 0.000000 
-1.708694 -0.385103 0.000000 
-1.726386 -0.344839 0.000000 
-1.761257 -0.320819 0.000000 
-1.812853 -0.312970 0.000000 
-0.690422 -0.565306 0.000000 
-0.624256 -0.583233 0.000000 
-0.561079 -0.591415 0.000000 
-0.500739 -0.592871 0.000000 
-0.445387 -0.592933 0.000000 
0.532260 -0.339024 0.000000 
0.536647 -0.269690 0.000000 
-1.881389 -0.300470 0.000000 
-0.389303 -0.590658 0.000000 
-0.340338 -0.575373 0.000000 
-0.344339 -0.521238 0.000000 
-0.358558 -0.468698 0.000000 
-0.381750 -0.427787 0.000000 
-0.406193 -0.393612 0.000000 
-0.417316 -0.362114 0.000000 
-0.428320 -0.327857 0.000000 
-0.436973 -0.283593 0.000000 
-0.444212 -0.228050 0.000000 
-0.452662 -0.169192 0.000000 
-0.468602 -0.112293 0.000000 
0.553166 -0.204975 0.000000 
0.573193 -0.147304 0.000000 
0.574450 -0.095564 0.000000 
0.561087 -0.045244 0.000000 
0.550432 0.010079 0.000000 
0.748903 2.059214 0.000000 
0.730940 2.002721 0.000000 
0.715868 1.956562 0.000000 
0.699446 1.920434 0.000000 
0.684888 1.879445 0.000000 
0.675900 1.833240 0.000000 
0.669871 1.783680 0.000000 
0.664455 1.735823 0.000000 
0.668163 1.689404 0.000000 
0.672091 1.639570 0.000000 
0.674558 1.591547 0.000000 
0.673045 1.541468 0.000000 
0.386491 2.020653 0.000000 
0.664855 1.482729 0.000000 
0.652298 1.424651 0.000000 
0.638456 1.371001 0.000000 
0.623121 1.321491 0.000000 
0.616008 1.278464 0.000000 
0.600787 1.243522 0.000000 
0.571289 1.214073 0.000000 
0.539016 1.182912 0.000000 
0.513857 1.154012 0.000000 
0.493343 1.127777 0.000000 
0.469109 1.109965 0.000000 
0.444920 1.093520 0.000000 
0.415324 1.072555 0.000000 
0.383540 1.047802 0.000000 
0.356179 1.018470 0.000000 
0.343879 0.979570 0.000000 
0.337476 0.934050 0.000000 
0.332404 0.888764 0.000000 
0.328512 0.849074 0.000000 
0.319594 0.812994 0.000000 
0.304149 0.779583 0.000000 
0.290502 0.739192 0.000000 
0.275896 0.691330 0.000000 
0.261905 0.649361 0.000000 
0.250150 0.615766 0.000000 
0.250896 0.577961 0.000000 
0.259587 0.535357 0.000000 
0.284617 0.492584 0.000000 
0.315237 0.462923 0.000000 
0.340022 0.443486 0.000000 
0.354380 0.417637 0.000000 
0.368685 0.390495 0.000000 
0.385568 0.364098 0.000000 
0.415372 0.339302 0.000000 
0.447119 0.307589 0.000000 
0.477633 0.279672 0.000000 
0.503078 0.251736 0.000000 
0.518876 0.213682 0.000000 
0.527127 0.177713 0.000000 
0.534187 0.133168 0.000000 
0.543185 0.072388 0.000000 
0.322519 2.009597 0.000000 
0.263849 1.996480 0.000000 
0.208223 1.991061 0.000000 
0.150441 1.987232 0.000000 
-0.687392 -0.492238 0.000000 
-3.327058 2.034835 0.000000 
-3.276080 1.988413 0.000000 
-3.224941 1.954827 0.000000 
-3.181728 1.925668 0.000000 
-3.135074 1.888738 0.000000 
-3.078123 1.864445 0.000000 
-1.944260 -0.255591 0.000000 
0.083204 1.992388 0.000000 
0.005786 1.987035 0.000000 
-0.071812 1.996274 0.000000 
-0.135705 2.025815 0.000000 
-0.182391 2.067421 0.000000 
-1.999041 -0.184623 0.000000 
-1.843230 -0.459132 0.000000 
-0.491126 -0.048333 0.000000 
-0.512312 0.024910 0.000000 
-0.526535 0.087742 0.000000 
-0.527935 0.149864 0.000000 
-0.524207 0.217034 0.000000 
-0.505864 0.274166 0.000000 
-0.468875 0.323378 0.000000 
-0.410369 0.352623 0.000000 
-0.354013 0.373740 0.000000 
-0.301050 0.383686 0.000000 
-0.255730 0.384458 0.000000 
-0.695595 -0.413943 0.000000 
-0.726457 -0.337061 0.000000 
-0.747352 -0.267606 0.000000 
-3.396487 1.977699 0.000000 
-3.344056 1.898312 0.000000 
-3.294256 1.854911 0.000000 
-3.248246 1.816586 0.000000 
-3.196818 1.777233 0.000000 
-3.159669 1.725923 0.000000 
-3.113281 1.679218 0.000000 
-3.056061 1.659655 0.000000 
-2.996684 1.637030 0.000000 
-2.933161 1.607414 0.000000 
-2.879064 1.571271 0.000000 
-2.813006 1.546485 0.000000 
-2.751664 1.523435 0.000000 
-2.686782 1.494112 0.000000 
-1.922020 -0.456325 0.000000 
-1.999705 -0.457824 0.000000 
-2.060018 -0.436220 0.000000 
-2.032615 -0.101232 0.000000 
-2.048550 -0.015510 0.000000 
-2.029059 0.050383 0.000000 
-2.105228 -0.379161 0.000000 
-2.154373 -0.311567 0.000000 
-2.203584 -0.256943 0.000000 
-2.237020 -0.195508 0.000000 
-2.250593 -0.130215 0.000000 
-2.270119 -0.058431 0.000000 
-2.297898 0.011879 0.000000 
-2.327118 0.073459 0.000000 
-2.346747 0.127429 0.000000 
-2.362840 0.180538 0.000000 
-2.374561 0.231583 0.000000 
-2.373128 0.283559 0.000000 
-2.334174 0.350149 0.000000 
-2.331842 0.390767 0.000000 
-2.284565 0.399526 0.000000 
-0.236368 2.116956 0.000000 
-0.299146 2.160783 0.000000 
-0.346614 2.180708 0.000000 
-0.382877 2.144205 0.000000 
-0.412447 2.115155 0.000000 
-0.433989 2.074868 0.000000 
-0.446472 2.031901 0.000000 
-0.451628 1.992583 0.000000 
-0.451047 1.954121 0.000000 
-0.449242 1.918117 0.000000 
-0.453345 1.886228 0.000000 
-0.460251 1.858534 0.000000 
-0.470304 1.829749 0.000000 
-0.475290 1.800259 0.000000 
-0.478341 1.770474 0.000000 
-0.479442 1.733738 0.000000 
-2.609147 1.480323 0.000000 
-2.517189 1.474825 0.000000 
-2.434013 1.475161 0.000000 
-2.352624 1.465130 0.000000 
-2.274410 1.445759 0.000000 
-2.204499 1.411110 0.000000 
-2.180326 1.342227 0.000000 
-2.178559 1.253691 0.000000 
-2.168273 1.163662 0.000000 
-2.159086 1.065598 0.000000 
-2.144575 0.976439 0.000000 
-2.163040 0.901222 0.000000 
-2.183612 0.827131 0.000000 
-2.172907 0.762573 0.000000 
-2.161614 0.699818 0.000000 
-2.169833 0.639706 0.000000 
-2.188987 0.577953 0.000000 
-2.218663 0.526707 0.000000 
-2.229021 0.470834 0.000000 
-2.997130 1.847648 0.000000 
-3.021908 1.749510 0.000000 
-2.902046 1.816141 0.000000 
-0.770600 -0.185012 0.000000 
-0.790096 -0.093354 0.000000 
-0.811857 -0.012646 0.000000 
-0.835807 0.065918 0.000000 
-0.859157 0.136046 0.000000 
-0.881226 0.196097 0.000000 
-0.903169 0.255448 0.000000 
-0.928196 0.319492 0.000000 
-2.785442 1.783588 0.000000 
-2.944278 1.722846 0.000000 
-2.855014 1.685700 0.000000 
-2.796189 1.625620 0.000000 
-2.651235 1.768842 0.000000 
-2.517962 1.758495 0.000000 
-2.394240 1.749332 0.000000 
-2.275192 1.741335 0.000000 
-2.180847 1.716774 0.000000 
-2.099904 1.690295 0.000000 
-2.018420 1.659055 0.000000 
-1.945469 1.663353 0.000000 
-1.885190 1.696692 0.000000 
-1.829736 1.717261 0.000000 
-1.760875 1.742493 0.000000 
-1.680504 1.770917 0.000000 
-1.617798 1.789234 0.000000 
-1.570169 1.803758 0.000000 
-1.527149 1.817948 0.000000 
-1.482581 1.830076 0.000000 
-1.433927 1.836617 0.000000 
-1.386311 1.844532 0.000000 
-1.337319 1.853262 0.000000 
-1.286363 1.860342 0.000000 
-1.235962 1.861060 0.000000 
-1.188452 1.865872 0.000000 
-1.140860 1.875324 0.000000 
-1.091558 1.874633 0.000000 
-1.038962 1.863614 0.000000 
-0.982519 1.844616 0.000000 
-0.922315 1.827874 0.000000 
-0.869867 1.817549 0.000000 
-0.827747 1.811059 0.000000 
-0.785371 1.806148 0.000000 
-0.748025 1.796411 0.000000 
-0.712781 1.786144 0.000000 
-0.681690 1.772212 0.000000 
-0.657198 1.761077 0.000000 
-0.633895 1.754414 0.000000 
-0.612002 1.749959 0.000000 
-0.594184 1.742746 0.000000 
-0.577381 1.733296 0.000000 
-0.560109 1.718013 0.000000 
-0.540091 1.685558 0.000000 
-1.243914 0.046712 0.000000 
-1.232782 0.060429 0.000000 
-1.257376 0.032359 0.000000 
-1.224378 0.079129 0.000000 
-1.271472 0.013013 0.000000 
-1.215702 0.101126 0.000000 
-1.204660 0.127182 0.000000 
-1.290143 -0.014729 0.000000 
-1.314447 -0.059768 0.000000 
-1.190204 0.157489 0.000000 
-1.318041 -0.113123 0.000000 
-1.171655 0.191645 0.000000 
-1.149359 0.227959 0.000000 
-1.123094 0.266208 0.000000 
-1.284246 -0.163102 0.000000 
-1.239750 -0.213829 0.000000 
-1.083297 0.310199 0.000000 
-1.028190 0.341871 0.000000 
-1.181630 -0.256185 0.000000 
-1.112789 -0.287612 0.000000 
-1.040643 -0.299783 0.000000 
-0.978118 -0.302869 0.000000 
-0.927392 -0.315895 0.000000 
-0.889718 -0.355030 0.000000 
-0.873564 -0.411580 0.000000 
-0.920771 -0.443774 0.000000 
-0.935346 -0.376505 0.000000 
-0.991249 -0.453350 0.000000 
-1.088918 -0.450621 0.000000 
-1.067426 -0.370970 0.000000 
-1.189474 -0.443058 0.000000 
-1.147229 -0.358302 0.000000 
-1.266509 -0.419768 0.000000 
-1.219913 -0.332125 0.000000 
-1.335307 -0.383941 0.000000 
-1.284456 -0.294126 0.000000 
-1.402357 -0.340038 0.000000 
-1.341444 -0.246325 0.000000 
-1.466758 -0.287362 0.000000 
-1.539152 -0.226563 0.000000 
-1.393011 -0.188394 0.000000 
-1.612839 -0.156292 0.000000 
-1.665320 -0.098713 0.000000 
-1.691220 -0.033887 0.000000 
-1.704696 0.051607 0.000000 
-1.850073 0.218476 0.000000 
-1.911042 0.162651 0.000000 
-1.969645 0.105815 0.000000 
-1.726970 0.158018 0.000000 
-0.222881 0.365848 0.000000 
-0.195707 0.338264 0.000000 
-0.164205 0.301317 0.000000 
-0.127520 0.268619 0.000000 
-0.095686 0.239128 0.000000 
-0.059027 0.210649 0.000000 
-0.018954 0.180666 0.000000 
0.030296 0.149395 0.000000 
0.086536 0.128869 0.000000 
0.141893 0.110138 0.000000 
0.202102 0.080858 0.000000 
0.263408 0.040941 0.000000 
0.311661 -0.009045 0.000000 
0.333954 -0.068668 0.000000 
0.338621 -0.129118 0.000000 
0.341530 -0.183057 0.000000 
0.353165 -0.233245 0.000000 
0.365710 -0.291668 0.000000 
0.363543 -0.361197 0.000000 
0.357353 -0.423311 0.000000 
0.351188 -0.474054 0.000000 
0.363842 -0.521082 0.000000 
-1.737069 -0.387733 0.000000 
-0.199590 0.418465 0.000000 
-0.156305 0.388549 0.000000 
-0.462327 1.654505 0.000000 
0.741313 2.177079 0.000000 
0.482415 -0.531853 0.000000 
0.446104 -0.539749 0.000000 
0.403556 -0.545403 0.000000 
-0.104001 0.360484 0.000000 
-0.514998 1.586559 0.000000 
-0.059937 0.326079 0.000000 
0.738519 2.151814 0.000000 
0.714572 2.164114 0.000000 
-0.249752 0.445288 0.000000 
-0.036232 0.282281 0.000000 
0.000772 0.254448 0.000000 
0.035161 0.228804 0.000000 
-1.776537 -0.387175 0.000000 
-1.836238 -0.382990 0.000000 
-0.309416 0.459388 0.000000 
-0.378944 0.457124 0.000000 
-2.292732 0.336712 0.000000 
-2.315166 0.286721 0.000000 
-2.314418 0.239164 0.000000 
-2.293418 0.192778 0.000000 
-2.279687 0.142899 0.000000 
-2.253462 0.095633 0.000000 
0.075120 0.201061 0.000000 
0.131113 0.188453 0.000000 
-0.977004 0.390437 0.000000 
-0.860050 0.380271 0.000000 
-1.912142 -0.374933 0.000000 
-1.989966 -0.383714 0.000000 
-2.023752 -0.316172 0.000000 
-2.082175 -0.244911 0.000000 
0.723889 2.120301 0.000000 
0.691466 2.139144 0.000000 
0.665980 2.106497 0.000000 
0.704783 2.079229 0.000000 
0.637970 2.068439 0.000000 
0.681732 2.032020 0.000000 
0.670916 1.985845 0.000000 
0.602858 2.036771 0.000000 
0.659584 1.945421 0.000000 
0.560783 2.010400 0.000000 
0.636111 1.909347 0.000000 
0.607495 1.859556 0.000000 
0.595324 1.796075 0.000000 
0.604052 1.731402 0.000000 
0.514160 1.980997 0.000000 
0.453857 1.953552 0.000000 
0.392525 1.951573 0.000000 
0.334098 1.950045 0.000000 
0.278675 1.931291 0.000000 
0.217273 1.913216 0.000000 
0.149449 1.895860 0.000000 
0.614128 1.679127 0.000000 
0.621313 1.631547 0.000000 
0.624262 1.586667 0.000000 
-2.197766 0.042445 0.000000 
-2.158682 -0.032479 0.000000 
-2.124695 0.101775 0.000000 
-2.150589 -0.198605 0.000000 
-2.141926 -0.121059 0.000000 
-0.393439 -0.537619 0.000000 
-0.412631 -0.493576 0.000000 
-0.436983 -0.452973 0.000000 
-0.445953 -0.409553 0.000000 
-0.458251 -0.376727 0.000000 
-0.479726 -0.341961 0.000000 
-0.496934 -0.293230 0.000000 
-0.509002 -0.238146 0.000000 
-0.517157 -0.183816 0.000000 
-0.545309 -0.132540 0.000000 
-0.442273 -0.535014 0.000000 
-0.496002 -0.525497 0.000000 
-0.557668 -0.527603 0.000000 
-0.618975 -0.512123 0.000000 
-0.334659 2.118895 0.000000 
-0.367985 2.089178 0.000000 
-0.385153 2.052752 0.000000 
-0.396797 2.018885 0.000000 
-0.406285 1.983363 0.000000 
-0.402558 1.944230 0.000000 
-0.406645 1.905786 0.000000 
-0.418378 1.873372 0.000000 
-0.428059 1.844247 0.000000 
-0.435849 1.814699 0.000000 
-0.442335 1.784664 0.000000 
-0.445406 1.751599 0.000000 
-0.444483 1.705883 0.000000 
0.619822 1.540935 0.000000 
-1.077870 0.437500 0.000000 
-1.149036 0.395542 0.000000 
-1.174735 0.320699 0.000000 
-1.192231 0.268976 0.000000 
-1.210811 0.227199 0.000000 
-1.228352 0.187860 0.000000 
-1.238869 0.149880 0.000000 
-1.244643 0.118382 0.000000 
-1.248534 0.093481 0.000000 
-1.252336 0.074194 0.000000 
-1.262323 0.060942 0.000000 
-1.280319 0.050026 0.000000 
-0.451814 0.434464 0.000000 
-0.526928 0.390942 0.000000 
0.194935 0.171461 0.000000 
0.069048 1.881761 0.000000 
-0.574175 0.320258 0.000000 
-0.593607 0.239155 0.000000 
-1.764101 0.278840 0.000000 
-2.210991 0.397696 0.000000 
-0.825996 0.294994 0.000000 
-0.799223 0.223914 0.000000 
-0.760911 0.157480 0.000000 
0.605964 1.489984 0.000000 
0.587834 1.432624 0.000000 
0.576354 1.372775 0.000000 
0.574971 1.317767 0.000000 
0.580375 1.274742 0.000000 
0.545179 1.252358 0.000000 
0.509957 1.220096 0.000000 
0.484198 1.183693 0.000000 
0.468721 1.152539 0.000000 
0.449386 1.134008 0.000000 
0.422962 1.121343 0.000000 
0.391379 1.102192 0.000000 
0.357154 1.078128 0.000000 
0.323730 1.049756 0.000000 
-0.582151 -0.071673 0.000000 
0.265957 0.145031 0.000000 
0.333763 0.098902 0.000000 
0.378371 0.031886 0.000000 
0.400918 -0.042509 0.000000 
0.401084 -0.105498 0.000000 
0.404345 -0.159599 0.000000 
0.432648 -0.210681 0.000000 
0.450030 -0.275122 0.000000 
0.529803 -0.121968 0.000000 
0.491947 -0.170106 0.000000 
0.453243 -0.120222 0.000000 
0.449550 -0.349446 0.000000 
0.498420 -0.076095 0.000000 
0.474171 -0.016154 0.000000 
0.457863 0.058420 0.000000 
0.462195 -0.408100 0.000000 
0.478704 -0.454436 0.000000 
0.483460 -0.495402 0.000000 
0.412910 -0.433742 0.000000 
0.398390 -0.472455 0.000000 
0.404290 -0.506742 0.000000 
0.442452 -0.502184 0.000000 
0.436659 -0.467020 0.000000 
-0.727378 0.083347 0.000000 
-0.616071 0.165366 0.000000 
-0.623548 0.091085 0.000000 
-0.605779 0.010077 0.000000 
-0.706340 -0.002371 0.000000 
-0.681483 -0.088633 0.000000 
-0.032304 1.876200 0.000000 
-0.128010 1.912349 0.000000 
-0.195732 1.979473 0.000000 
-0.243911 2.033387 0.000000 
-0.287859 2.080791 0.000000 
-0.335518 2.053095 0.000000 
-0.667608 -0.174014 0.000000 
-0.584906 -0.180781 0.000000 
-0.658169 -0.254022 0.000000 
-0.578442 -0.246152 0.000000 
-0.639050 -0.325465 0.000000 
-0.607982 -0.400982 0.000000 
-0.562541 -0.308851 0.000000 
-0.536184 -0.369875 0.000000 
-0.495978 -0.407836 0.000000 
-0.500680 -0.460231 0.000000 
-0.573051 -0.464684 0.000000 
-2.690892 1.649494 0.000000 
-2.684799 1.563481 0.000000 
-2.602920 1.562219 0.000000 
-2.574381 1.647212 0.000000 
-2.518122 1.582087 0.000000 
-2.424460 1.605985 0.000000 
-2.320006 1.597053 0.000000 
-2.229986 1.573436 0.000000 
-2.146342 1.532195 0.000000 
-1.455055 -0.129413 0.000000 
-1.387692 -0.049089 0.000000 
-1.339496 0.004239 0.000000 
-1.304977 0.032799 0.000000 
-1.531301 -0.063920 0.000000 
-1.604385 -0.019808 0.000000 
-1.592423 0.080873 0.000000 
-1.608296 0.204836 0.000000 
-1.827918 0.403281 0.000000 
0.477873 0.172085 0.000000 
0.477147 0.206983 0.000000 
0.465631 0.241223 0.000000 
-0.587742 1.685433 0.000000 
-0.593403 1.709536 0.000000 
-0.604579 1.722192 0.000000 
-0.619289 1.727878 0.000000 
-0.639577 1.725705 0.000000 
-0.665912 1.727321 0.000000 
-0.697937 1.734308 0.000000 
-0.595692 1.631944 0.000000 
-0.726123 1.749119 0.000000 
-0.757398 1.759690 0.000000 
-0.794522 1.757114 0.000000 
-0.841416 1.754537 0.000000 
-0.894922 1.755897 0.000000 
-0.956071 1.764313 0.000000 
-1.020951 1.783235 0.000000 
-1.077937 1.810869 0.000000 
-1.120258 1.839598 0.000000 
-1.171769 1.815337 0.000000 
0.332207 0.368728 0.000000 
0.333662 0.326993 0.000000 
0.321472 0.397345 0.000000 
0.302407 0.424158 0.000000 
0.214022 0.438820 0.000000 
0.194081 0.499844 0.000000 
0.186716 0.555357 0.000000 
0.189303 0.608129 0.000000 
0.360023 0.287311 0.000000 
0.405131 0.262178 0.000000 
0.201671 0.657375 0.000000 
0.218038 0.707636 0.000000 
0.236652 0.756570 0.000000 
0.256885 0.798504 0.000000 
0.278373 0.826998 0.000000 
0.284019 0.860396 0.000000 
0.276718 0.907143 0.000000 
0.278735 0.963956 0.000000 
0.296322 1.014223 0.000000 
-1.507867 1.767095 0.000000 
-1.548116 1.742453 0.000000 
-1.598023 1.715073 0.000000 
-1.467251 1.781869 0.000000 
-1.422160 1.789152 0.000000 
-1.373311 1.795868 0.000000 
-1.322903 1.803645 0.000000 
-1.275577 1.812891 0.000000 
-1.225048 1.811492 0.000000 
-1.662214 1.691404 0.000000 
-1.732600 1.671464 0.000000 
-1.794687 1.657089 0.000000 
-1.841773 1.627901 0.000000 
-2.078405 0.695174 0.000000 
-2.079214 0.773763 0.000000 
-2.097651 0.617574 0.000000 
-2.129318 0.545835 0.000000 
-2.096743 0.854326 0.000000 
-2.169699 0.490492 0.000000 
-1.991686 0.417492 0.000000 
-1.642187 0.343048 0.000000 
-1.989898 0.250267 0.000000 
-2.064526 0.178454 0.000000 
-1.914688 0.323801 0.000000 
-2.037969 1.106878 0.000000 
-2.021377 0.991193 0.000000 
-2.055796 1.236040 0.000000 
-2.102728 1.338693 0.000000 
-2.047875 1.480995 0.000000 
0.428030 0.227726 0.000000 
0.375625 0.206490 0.000000 
0.313454 0.219591 0.000000 
0.290352 0.365625 0.000000 
0.238487 1.076543 0.000000 
0.440631 0.189618 0.000000 
0.396678 0.149841 0.000000 
0.460488 0.123921 0.000000 
0.523747 1.300033 0.000000 
-2.262588 0.263288 0.000000 
-2.220468 0.319315 0.000000 
-2.218579 0.209776 0.000000 
-2.146376 0.261627 0.000000 
-2.206503 0.144706 0.000000 
0.473879 1.261421 0.000000 
0.446488 1.209090 0.000000 
0.440978 1.165071 0.000000 
0.409581 1.157215 0.000000 
0.629179 1.986111 0.000000 
0.593839 1.953638 0.000000 
0.550362 1.909434 0.000000 
0.483841 1.869011 0.000000 
0.202470 1.010179 0.000000 
0.241245 0.862403 0.000000 
0.205152 0.837603 0.000000 
0.175878 0.789462 0.000000 
0.153326 0.730956 0.000000 
0.132079 0.670506 0.000000 
0.113278 0.606050 0.000000 
0.106000 0.537727 0.000000 
0.109640 0.468530 0.000000 
0.121648 0.397852 0.000000 
0.032483 0.308238 0.000000 
0.246820 0.390916 0.000000 
0.099619 0.256603 0.000000 
0.373127 1.142333 0.000000 
-0.307911 2.005473 0.000000 
-0.360136 1.987004 0.000000 
-0.343252 1.932658 0.000000 
-0.270247 1.940802 0.000000 
0.168337 0.253122 0.000000 
0.242346 0.242784 0.000000 
0.270369 0.311821 0.000000 
0.505525 1.367794 0.000000 
-0.689828 0.195049 0.000000 
-0.729540 0.252453 0.000000 
-0.746154 0.326926 0.000000 
-0.657668 0.343490 0.000000 
-0.661195 0.259203 0.000000 
-0.924642 0.496166 0.000000 
-1.137284 1.759529 0.000000 
-1.072920 1.714935 0.000000 
-1.248127 1.771826 0.000000 
-1.304069 1.755504 0.000000 
-1.360197 1.747844 0.000000 
-1.411221 1.743704 0.000000 
-1.453165 1.740474 0.000000 
-1.486003 1.723012 0.000000 
-1.510814 1.679543 0.000000 
-1.558800 1.634874 0.000000 
-0.995058 1.688182 0.000000 
-0.919611 1.677706 0.000000 
-0.852227 1.684638 0.000000 
-0.796966 1.701156 0.000000 
-0.752732 1.720325 0.000000 
-1.635591 1.607541 0.000000 
-1.992480 0.882243 0.000000 
-1.965104 0.772463 0.000000 
-1.974377 0.669131 0.000000 
-2.014368 0.575509 0.000000 
-2.065453 0.492323 0.000000 
-2.071492 0.339256 0.000000 
-2.131272 0.422792 0.000000 
-1.712039 1.594218 0.000000 
-1.781280 1.594169 0.000000 
-1.884796 1.564112 0.000000 
0.516332 1.783774 0.000000 
0.538779 1.712646 0.000000 
0.517174 1.442180 0.000000 
0.552532 1.504116 0.000000 
0.576896 1.546043 0.000000 
0.583356 1.583069 0.000000 
0.576083 1.620073 0.000000 
0.562288 1.662433 0.000000 