# vtk DataFile Version 3.0 
vtk output 
ASCII 
DATASET UNSTRUCTURED_GRID 
POINTS 899 float 
-3.648847 2.331363 0.000000 
-3.619410 2.290811 0.000000 
-3.578536 2.255217 0.000000 
-3.540028 2.219566 0.000000 
-3.511690 2.187370 0.000000 
-3.481362 2.157512 0.000000 
-3.451569 2.116839 0.000000 
0.772356 2.233877 0.000000 
0.774615 2.207756 0.000000 
0.769962 2.179002 0.000000 
-3.399514 2.086563 0.000000 
0.413960 -0.558279 0.000000 
0.455573 -0.553977 0.000000 
-1.762619 -0.458175 0.000000 
-1.783389 -0.422778 0.000000 
-1.714437 -0.393989 0.000000 
0.732567 2.228202 0.000000 
0.698438 2.214366 0.000000 
0.491831 -0.539774 0.000000 
0.519501 -0.509369 0.000000 
0.530556 -0.468922 0.000000 
0.532354 -0.423118 0.000000 
0.531774 -0.372611 0.000000 
-3.460923 2.024830 0.000000 
0.663989 2.192420 0.000000 
0.631675 2.165025 0.000000 
0.601833 2.140969 0.000000 
0.569607 2.117712 0.000000 
0.534059 2.095634 0.000000 
0.492599 2.074494 0.000000 
0.444403 2.055829 0.000000 
0.762807 2.138028 0.000000 
-1.708694 -0.359607 0.000000 
-1.726386 -0.319343 0.000000 
-1.761257 -0.295323 0.000000 
-1.812853 -0.287474 0.000000 
-0.690422 -0.539809 0.000000 
-0.624256 -0.557737 0.000000 
-0.561079 -0.565919 0.000000 
-0.500739 -0.567374 0.000000 
-0.445387 -0.567437 0.000000 
0.532260 -0.313527 0.000000 
0.536647 -0.244194 0.000000 
-1.881389 -0.274973 0.000000 
-0.389303 -0.565162 0.000000 
-0.340338 -0.549877 0.000000 
-0.344339 -0.495742 0.000000 
-0.358558 -0.443202 0.000000 
-0.381750 -0.402291 0.000000 
-0.406193 -0.368116 0.000000 
-0.417316 -0.336618 0.000000 
-0.428320 -0.302361 0.000000 
-0.436973 -0.258097 0.000000 
-0.444212 -0.202554 0.000000 
-0.452662 -0.143696 0.000000 
-0.468602 -0.086797 0.000000 
0.553166 -0.179479 0.000000 
0.573193 -0.121808 0.000000 
0.574450 -0.070068 0.000000 
0.561087 -0.019748 0.000000 
0.550432 0.035575 0.000000 
0.748903 2.084710 0.000000 
0.730940 2.028217 0.000000 
0.715868 1.982058 0.000000 
0.699446 1.945930 0.000000 
0.684888 1.904941 0.000000 
0.675900 1.858736 0.000000 
0.669871 1.809177 0.000000 
0.664455 1.761320 0.000000 
0.668163 1.714900 0.000000 
0.672091 1.665067 0.000000 
0.674558 1.617043 0.000000 
0.673045 1.566964 0.000000 
0.386491 2.046149 0.000000 
0.664855 1.508225 0.000000 
0.652298 1.450147 0.000000 
0.638456 1.396497 0.000000 
0.623121 1.346987 0.000000 
0.616008 1.303960 0.000000 
0.600787 1.269018 0.000000 
0.571289 1.239569 0.000000 
0.539016 1.208408 0.000000 
0.513857 1.179509 0.000000 
0.493343 1.153273 0.000000 
0.469109 1.135461 0.000000 
0.444920 1.119017 0.000000 
0.415324 1.098051 0.000000 
0.383540 1.073298 0.000000 
0.356179 1.043966 0.000000 
0.343879 1.005067 0.000000 
0.337476 0.959546 0.000000 
0.332404 0.914260 0.000000 
0.328512 0.874570 0.000000 
0.319594 0.838490 0.000000 
0.304149 0.805079 0.000000 
0.290502 0.764689 0.000000 
0.275896 0.716826 0.000000 
0.261905 0.674857 0.000000 
0.250150 0.641262 0.000000 
0.250896 0.603457 0.000000 
0.259587 0.560853 0.000000 
0.284617 0.518080 0.000000 
0.315237 0.488419 0.000000 
0.340022 0.468983 0.000000 
0.354380 0.443134 0.000000 
0.368685 0.415991 0.000000 
0.385568 0.389595 0.000000 
0.415372 0.364798 0.000000 
0.447119 0.333085 0.000000 
0.477633 0.305169 0.000000 
0.503078 0.277232 0.000000 
0.518876 0.239178 0.000000 
0.527127 0.203209 0.000000 
0.534187 0.158664 0.000000 
0.543185 0.097884 0.000000 
0.322519 2.035093 0.000000 
0.263849 2.021977 0.000000 
0.208223 2.016557 0.000000 
0.150441 2.012728 0.000000 
-0.687392 -0.466742 0.000000 
-3.327058 2.060331 0.000000 
-3.276080 2.013909 0.000000 
-3.224941 1.980323 0.000000 
-3.181728 1.951164 0.000000 
-3.135074 1.914234 0.000000 
-3.078123 1.889941 0.000000 
-1.944260 -0.230095 0.000000 
0.083204 2.017884 0.000000 
0.005786 2.012532 0.000000 
-0.071812 2.021770 0.000000 
-0.135705 2.051311 0.000000 
-0.182391 2.092917 0.000000 
-1.999041 -0.159127 0.000000 
-1.843230 -0.433635 0.000000 
-0.491126 -0.022837 0.000000 
-0.512312 0.050406 0.000000 
-0.526535 0.113239 0.000000 
-0.527935 0.175360 0.000000 
-0.524207 0.242530 0.000000 
-0.505864 0.299662 0.000000 
-0.468875 0.348874 0.000000 
-0.410369 0.378119 0.000000 
-0.354013 0.399236 0.000000 
-0.301050 0.409182 0.000000 
-0.255730 0.409954 0.000000 
-0.695595 -0.388447 0.000000 
-0.726457 -0.311565 0.000000 
-0.747352 -0.242110 0.000000 
-3.396487 2.003196 0.000000 
-3.344056 1.923808 0.000000 
-3.294256 1.880407 0.000000 
-3.248246 1.842083 0.000000 
-3.196818 1.802729 0.000000 
-3.159669 1.751419 0.000000 
-3.113281 1.704714 0.000000 
-3.056061 1.685151 0.000000 
-2.996684 1.662526 0.000000 
-2.933161 1.632910 0.000000 
-2.879064 1.596767 0.000000 
-2.813006 1.571982 0.000000 
-2.751664 1.548931 0.000000 
-2.686782 1.519608 0.000000 
-1.922020 -0.430829 0.000000 
-1.999705 -0.432327 0.000000 
-2.060018 -0.410724 0.000000 
-2.032615 -0.075736 0.000000 
-2.048550 0.009986 0.000000 
-2.029059 0.075879 0.000000 
-2.105228 -0.353665 0.000000 
-2.154373 -0.286071 0.000000 
-2.203584 -0.231447 0.000000 
-2.237020 -0.170012 0.000000 
-2.250593 -0.104719 0.000000 
-2.270119 -0.032935 0.000000 
-2.297898 0.037376 0.000000 
-2.327118 0.098955 0.000000 
-2.346747 0.152925 0.000000 
-2.362840 0.206035 0.000000 
-2.374561 0.257079 0.000000 
-2.373128 0.309055 0.000000 
-2.334174 0.375645 0.000000 
-2.331842 0.416263 0.000000 
-2.284565 0.425022 0.000000 
-0.236368 2.142452 0.000000 
-0.299146 2.186279 0.000000 
-0.346614 2.206204 0.000000 
-0.382877 2.169701 0.000000 
-0.412447 2.140652 0.000000 
-0.433989 2.100364 0.000000 
-0.446472 2.057398 0.000000 
-0.451628 2.018079 0.000000 
-0.451047 1.979617 0.000000 
-0.449242 1.943613 0.000000 
-0.453345 1.911724 0.000000 
-0.460251 1.884031 0.000000 
-0.470304 1.855245 0.000000 
-0.475290 1.825755 0.000000 
-0.478341 1.795970 0.000000 
-0.479442 1.759234 0.000000 
-2.609147 1.505819 0.000000 
-2.517189 1.500321 0.000000 
-2.434013 1.500658 0.000000 
-2.352624 1.490626 0.000000 
-2.274410 1.471255 0.000000 
-2.204499 1.436606 0.000000 
-2.180326 1.367724 0.000000 
-2.178559 1.279187 0.000000 
-2.168273 1.189159 0.000000 
-2.159086 1.091094 0.000000 
-2.144575 1.001936 0.000000 
-2.163040 0.926719 0.000000 
-2.183612 0.852627 0.000000 
-2.172907 0.788069 0.000000 
-2.161614 0.725314 0.000000 
-2.169833 0.665202 0.000000 
-2.188987 0.603449 0.000000 
-2.218663 0.552203 0.000000 
-2.229021 0.496330 0.000000 
-2.997130 1.873144 0.000000 
-3.021908 1.775007 0.000000 
-2.902046 1.841637 0.000000 
-0.770600 -0.159516 0.000000 
-0.790096 -0.067857 0.000000 
-0.811857 0.012850 0.000000 
-0.835807 0.091414 0.000000 
-0.859157 0.161542 0.000000 
-0.881226 0.221594 0.000000 
-0.903169 0.280944 0.000000 
-0.928196 0.344988 0.000000 
-2.785442 1.809084 0.000000 
-2.944278 1.748342 0.000000 
-2.855014 1.711196 0.000000 
-2.796189 1.651116 0.000000 
-2.651235 1.794338 0.000000 
-2.517962 1.783991 0.000000 
-2.394240 1.774828 0.000000 
-2.275192 1.766831 0.000000 
-2.180847 1.742270 0.000000 
-2.099904 1.715791 0.000000 
-2.018420 1.684551 0.000000 
-1.945469 1.688849 0.000000 
-1.885190 1.722189 0.000000 
-1.829736 1.742757 0.000000 
-1.760875 1.767989 0.000000 
-1.680504 1.796413 0.000000 
-1.617798 1.814730 0.000000 
-1.570169 1.829254 0.000000 
-1.527149 1.843444 0.000000 
-1.482581 1.855573 0.000000 
-1.433927 1.862113 0.000000 
-1.386311 1.870028 0.000000 
-1.337319 1.878758 0.000000 
-1.286363 1.885838 0.000000 
-1.235962 1.886556 0.000000 
-1.188452 1.891369 0.000000 
-1.140860 1.900820 0.000000 
-1.091558 1.900129 0.000000 
-1.038962 1.889110 0.000000 
-0.982519 1.870112 0.000000 
-0.922315 1.853370 0.000000 
-0.869867 1.843045 0.000000 
-0.827747 1.836556 0.000000 
-0.785371 1.831644 0.000000 
-0.748025 1.821907 0.000000 
-0.712781 1.811640 0.000000 
-0.681690 1.797708 0.000000 
-0.657198 1.786574 0.000000 
-0.633895 1.779910 0.000000 
-0.612002 1.775455 0.000000 
-0.594184 1.768242 0.000000 
-0.577381 1.758792 0.000000 
-0.560109 1.743509 0.000000 
-0.540091 1.711054 0.000000 
-1.243914 0.072209 0.000000 
-1.232782 0.085926 0.000000 
-1.257376 0.057855 0.000000 
-1.224378 0.104625 0.000000 
-1.271472 0.038509 0.000000 
-1.215702 0.126622 0.000000 
-1.204660 0.152679 0.000000 
-1.290143 0.010768 0.000000 
-1.314447 -0.034272 0.000000 
-1.190204 0.182985 0.000000 
-1.318041 -0.087627 0.000000 
-1.171655 0.217141 0.000000 
-1.149359 0.253456 0.000000 
-1.123094 0.291704 0.000000 
-1.284246 -0.137606 0.000000 
-1.239750 -0.188332 0.000000 
-1.083297 0.335695 0.000000 
-1.028190 0.367367 0.000000 
-1.181630 -0.230689 0.000000 
-1.112789 -0.262116 0.000000 
-1.040643 -0.274286 0.000000 
-0.978118 -0.277373 0.000000 
-0.927392 -0.290399 0.000000 
-0.889718 -0.329533 0.000000 
-0.873564 -0.386084 0.000000 
-0.920771 -0.418278 0.000000 
-0.935346 -0.351009 0.000000 
-0.991249 -0.427853 0.000000 
-1.088918 -0.425125 0.000000 
-1.067426 -0.345473 0.000000 
-1.189474 -0.417562 0.000000 
-1.147229 -0.332806 0.000000 
-1.266509 -0.394272 0.000000 
-1.219913 -0.306629 0.000000 
-1.335307 -0.358445 0.000000 
-1.284456 -0.268630 0.000000 
-1.402357 -0.314541 0.000000 
-1.341444 -0.220829 0.000000 
-1.466758 -0.261866 0.000000 
-1.539152 -0.201067 0.000000 
-1.393011 -0.162898 0.000000 
-1.612839 -0.130795 0.000000 
-1.665320 -0.073217 0.000000 
-1.691220 -0.008391 0.000000 
-1.704696 0.077103 0.000000 
-1.850073 0.243972 0.000000 
-1.911042 0.188148 0.000000 
-1.969645 0.131311 0.000000 
-1.726970 0.183514 0.000000 
-0.222881 0.391344 0.000000 
-0.195707 0.363761 0.000000 
-0.164205 0.326813 0.000000 
-0.127520 0.294115 0.000000 
-0.095686 0.264624 0.000000 
-0.059027 0.236146 0.000000 
-0.018954 0.206162 0.000000 
0.030296 0.174892 0.000000 
0.086536 0.154366 0.000000 
0.141893 0.135634 0.000000 
0.202102 0.106354 0.000000 
0.263408 0.066438 0.000000 
0.311661 0.016451 0.000000 
0.333954 -0.043172 0.000000 
0.338621 -0.103622 0.000000 
0.341530 -0.157561 0.000000 
0.353165 -0.207749 0.000000 
0.365710 -0.266172 0.000000 
0.363543 -0.335701 0.000000 
[...]
POINT_DATA 899 
VECTORS X_GC float 
-3.648847 2.331363 0.000000 
-3.619410 2.290811 0.000000 
-3.578536 2.255217 0.000000 
-3.540028 2.219566 0.000000 
-3.511690 2.187370 0.000000 
-3.481362 2.157512 0.000000 
-3.451569 2.116839 0.000000 
0.772356 2.233877 0.000000 
0.774615 2.207756 0.000000 
0.769962 2.179002 0.000000 
-3.399514 2.086563 0.000000 
0.413960 -0.558279 0.000000 
0.455573 -0.553977 0.000000 
-1.762619 -0.458175 0.000000 
-1.783389 -0.422778 0.000000 
-1.714437 -0.393989 0.000000 
0.732567 2.228202 0.000000 
0.698438 2.214366 0.000000 
0.491831 -0.539774 0.000000 
0.519501 -0.509369 0.000000 
0.530556 -0.468922 0.000000 
0.532354 -0.423118 0.000000 
0.531774 -0.372611 0.000000 
-3.460923 2.024830 0.000000 
0.663989 2.192420 0.000000 
0.631675 2.165025 0.000000 
0.601833 2.140969 0.000000 
0.569607 2.117712 0.000000 
0.534059 2.095634 0.000000 
0.492599 2.074494 0.000000 
0.444403 2.055829 0.000000 
0.762807 2.138028 0.000000 
-1.708694 -0.359607 0.000000 
-1.726386 -0.319343 0.000000 
-1.761257 -0.295323 0.000000 
-1.812853 -0.287474 0.000000 
-0.690422 -0.539809 0.000000 
-0.624256 -0.557737 0.000000 
-0.561079 -0.565919 0.000000 
-0.500739 -0.567374 0.000000 
-0.445387 -0.567437 0.000000 
0.532260 -0.313527 0.000000 
0.536647 -0.244194 0.000000 
-1.881389 -0.274973 0.000000 
-0.389303 -0.565162 0.000000 
-0.340338 -0.549877 0.000000 
-0.344339 -0.495742 0.000000 
-0.358558 -0.443202 0.000000 
-0.381750 -0.402291 0.000000 
-0.406193 -0.368116 0.000000 
-0.417316 -0.336618 0.000000 
-0.428320 -0.302361 0.000000 
-0.436973 -0.258097 0.000000 
-0.444212 -0.202554 0.000000 
-0.452662 -0.143696 0.000000 
-0.468602 -0.086797 0.000000 
0.553166 -0.179479 0.000000 
0.573193 -0.121808 0.000000 
0.574450 -0.070068 0.000000 
0.561087 -0.019748 0.000000 
0.550432 0.035575 0.000000 
0.748903 2.084710 0.000000 
0.730940 2.028217 0.000000 
0.715868 1.982058 0.000000 
0.699446 1.945930 0.000000 
0.684888 1.904941 0.000000 
0.675900 1.858736 0.000000 
0.669871 1.809177 0.000000 
0.664455 1.761320 0.000000 
0.668163 1.714900 0.000000 
0.672091 1.665067 0.000000 
0.674558 1.617043 0.000000 
0.673045 1.566964 0.000000 
0.386491 2.046149 0.000000 
0.664855 1.508225 0.000000 
0.652298 1.450147 0.000000 
0.638456 1.396497 0.000000 
0.623121 1.346987 0.000000 
0.616008 1.303960 0.000000 
0.600787 1.269018 0.000000 
0.571289 1.239569 0.000000 
0.539016 1.208408 0.000000 
0.513857 1.179509 0.000000 
0.493343 1.153273 0.000000 
0.469109 1.135461 0.000000 
0.444920 1.119017 0.000000 
0.415324 1.098051 0.000000 
0.383540 1.073298 0.000000 
0.356179 1.043966 0.000000 
0.343879 1.005067 0.000000 
0.337476 0.959546 0.000000 
0.332404 0.914260 0.000000 
0.328512 0.874570 0.000000 
0.319594 0.838490 0.000000 
0.304149 0.805079 0.000000 
0.290502 0.764689 0.000000 
0.275896 0.716826 0.000000 
0.261905 0.674857 0.000000 
0.250150 0.641262 0.000000 
0.250896 0.603457 0.000000 
0.259587 0.560853 0.000000 
0.284617 0.518080 0.000000 
0.315237 0.488419 0.000000 
0.340022 0.468983 0.000000 
0.354380 0.443134 0.000000 
0.368685 0.415991 0.000000 
0.385568 0.389595 0.000000 
0.415372 0.364798 0.000000 
0.447119 0.333085 0.000000 
0.477633 0.305169 0.000000 
0.503078 0.277232 0.000000 
0.518876 0.239178 0.000000 
0.527127 0.203209 0.000000 
0.534187 0.158664 0.000000 
0.543185 0.097884 0.000000 
0.322519 2.035093 0.000000 
0.263849 2.021977 0.000000 
0.208223 2.016557 0.000000 
0.150441 2.012728 0.000000 
-0.687392 -0.466742 0.000000 
-3.327058 2.060331 0.000000 
-3.276080 2.013909 0.000000 
-3.224941 1.980323 0.000000 
-3.181728 1.951164 0.000000 
-3.135074 1.914234 0.000000 
-3.078123 1.889941 0.000000 
-1.944260 -0.230095 0.000000 
0.083204 2.017884 0.000000 
0.005786 2.012532 0.000000 
-0.071812 2.021770 0.000000 
-0.135705 2.051311 0.000000 
-0.182391 2.092917 0.000000 
-1.999041 -0.159127 0.000000 
-1.843230 -0.433635 0.000000 
-0.491126 -0.022837 0.000000 
-0.512312 0.050406 0.000000 
-0.526535 0.113239 0.000000 
-0.527935 0.175360 0.000000 
-0.524207 0.242530 0.000000 
-0.505864 0.299662 0.000000 
-0.468875 0.348874 0.000000 
-0.410369 0.378119 0.000000 
-0.354013 0.399236 0.000000 
-0.301050 0.409182 0.000000 
-0.255730 0.409954 0.000000 
-0.695595 -0.388447 0.000000 
-0.726457 -0.311565 0.000000 
-0.747352 -0.242110 0.000000 
-3.396487 2.003196 0.000000 
-3.344056 1.923808 0.000000 
-3.294256 1.880407 0.000000 
-3.248246 1.842083 0.000000 
-3.196818 1.802729 0.000000 
-3.159669 1.751419 0.000000 
-3.113281 1.704714 0.000000 
-3.056061 1.685151 0.000000 
-2.996684 1.662526 0.000000 
-2.933161 1.632910 0.000000 
-2.879064 1.596767 0.000000 
-2.813006 1.571982 0.000000 
-2.751664 1.548931 0.000000 
-2.686782 1.519608 0.000000 
-1.922020 -0.430829 0.000000 
-1.999705 -0.432327 0.000000 
-2.060018 -0.410724 0.000000 
-2.032615 -0.075736 0.000000 
-2.048550 0.009986 0.000000 
-2.029059 0.075879 0.000000 
-2.105228 -0.353665 0.000000 
-2.154373 -0.286071 0.000000 
-2.203584 -0.231447 0.000000 
-2.237020 -0.170012 0.000000 
-2.250593 -0.104719 0.000000 
-2.270119 -0.032935 0.000000 
-2.297898 0.037376 0.000000 
-2.327118 0.098955 0.000000 
-2.346747 0.152925 0.000000 
-2.362840 0.206035 0.000000 
-2.374561 0.257079 0.000000 
-2.373128 0.309055 0.000000 
-2.334174 0.375645 0.000000 
-2.331842 0.416263 0.000000 
-2.284565 0.425022 0.000000 
-0.236368 2.142452 0.000000 
-0.299146 2.186279 0.000000 
-0.346614 2.206204 0.000000 
-0.382877 2.169701 0.000000 
-0.412447 2.140652 0.000000 
-0.433989 2.100364 0.000000 
-0.446472 2.057398 0.000000 
-0.451628 2.018079 0.000000 
-0.451047 1.979617 0.000000 
-0.449242 1.943613 0.000000 
-0.453345 1.911724 0.000000 
-0.460251 1.884031 0.000000 
-0.470304 1.855245 0.000000 
-0.475290 1.825755 0.000000 
-0.478341 1.795970 0.000000 
-0.479442 1.759234 0.000000 
-2.609147 1.505819 0.000000 
-2.517189 1.500321 0.000000 
-2.434013 1.500658 0.000000 
-2.352624 1.490626 0.000000 
-2.274410 1.471255 0.000000 
-2.204499 1.436606 0.000000 
-2.180326 1.367724 0.000000 
-2.178559 1.279187 0.000000 
-2.168273 1.189159 0.000000 
-2.159086 1.091094 0.000000 
-2.144575 1.001936 0.000000 
-2.163040 0.926719 0.000000 
-2.183612 0.852627 0.000000 
-2.172907 0.788069 0.000000 
-2.161614 0.725314 0.000000 
-2.169833 0.665202 0.000000 
-2.188987 0.603449 0.000000 
-2.218663 0.552203 0.000000 
-2.229021 0.496330 0.000000 
-2.997130 1.873144 0.000000 
-3.021908 1.775007 0.000000 
-2.902046 1.841637 0.000000 
-0.770600 -0.159516 0.000000 
-0.790096 -0.067857 0.000000 
-0.811857 0.012850 0.000000 
-0.835807 0.091414 0.000000 
-0.859157 0.161542 0.000000 
-0.881226 0.221594 0.000000 
-0.903169 0.280944 0.000000 
-0.928196 0.344988 0.000000 
-2.785442 1.809084 0.000000 
-2.944278 1.748342 0.000000 
-2.855014 1.711196 0.000000 
-2.796189 1.651116 0.000000 
-2.651235 1.794338 0.000000 
-2.517962 1.783991 0.000000 
-2.394240 1.774828 0.000000 
-2.275192 1.766831 0.000000 
-2.180847 1.742270 0.000000 
-2.099904 1.715791 0.000000 
-2.018420 1.684551 0.000000 
-1.945469 1.688849 0.000000 
-1.885190 1.722189 0.000000 
-1.829736 1.742757 0.000000 
-1.760875 1.767989 0.000000 
-1.680504 1.796413 0.000000 
-1.617798 1.814730 0.000000 
-1.570169 1.829254 0.000000 
-1.527149 1.843444 0.000000 
-1.482581 1.855573 0.000000 
-1.433927 1.862113 0.000000 
-1.386311 1.870028 0.000000 
-1.337319 1.878758 0.000000 
-1.286363 1.885838 0.000000 
-1.235962 1.886556 0.000000 
-1.188452 1.891369 0.000000 
-1.140860 1.900820 0.000000 
-1.091558 1.900129 0.000000 
-1.038962 1.889110 0.000000 
-0.982519 1.870112 0.000000 
-0.922315 1.853370 0.000000 
-0.869867 1.843045 0.000000 
-0.827747 1.836556 0.000000 
-0.785371 1.831644 0.000000 
-0.748025 1.821907 0.000000 
-0.712781 1.811640 0.000000 
-0.681690 1.797708 0.000000 
-0.657198 1.786574 0.000000 
-0.633895 1.779910 0.000000 
-0.612002 1.775455 0.000000 
-0.594184 1.768242 0.000000 
-0.577381 1.758792 0.000000 
-0.560109 1.743509 0.000000 
-0.540091 1.711054 0.000000 
-1.243914 0.072209 0.000000 
-1.232782 0.085926 0.000000 
-1.257376 0.057855 0.000000 
-1.224378 0.104625 0.000000 
-1.271472 0.038509 0.000000 
-1.215702 0.126622 0.000000 
-1.204660 0.152679 0.000000 
-1.290143 0.010768 0.000000 
-1.314447 -0.034272 0.000000 
-1.190204 0.182985 0.000000 
-1.318041 -0.087627 0.000000 
-1.171655 0.217141 0.000000 
-1.149359 0.253456 0.000000 
-1.123094 0.291704 0.000000 
-1.284246 -0.137606 0.000000 
-1.239750 -0.188332 0.000000 
-1.083297 0.335695 0.000000 
-1.028190 0.367367 0.000000 
-1.181630 -0.230689 0.000000 
-1.112789 -0.262116 0.000000 
-1.040643 -0.274286 0.000000 
-0.978118 -0.277373 0.000000 
-0.927392 -0.290399 0.000000 
-0.889718 -0.329533 0.000000 
-0.873564 -0.386084 0.000000 
-0.920771 -0.418278 0.000000 
-0.935346 -0.351009 0.000000 
-0.991249 -0.427853 0.000000 
-1.088918 -0.425125 0.000000 
-1.067426 -0.345473 0.000000 
-1.189474 -0.417562 0.000000 
-1.147229 -0.332806 0.000000 
-1.266509 -0.394272 0.000000 
-1.219913 -0.306629 0.000000 
-1.335307 -0.358445 0.000000 
-1.284456 -0.268630 0.000000 
-1.402357 -0.314541 0.000000 
-1.341444 -0.220829 0.000000 
-1.466758 -0.261866 0.000000 
-1.539152 -0.201067 0.000000 
-1.393011 -0.162898 0.000000 
-1.612839 -0.130795 0.000000 
-1.665320 -0.073217 0.000000 
-1.691220 -0.008391 0.000000 
-1.704696 0.077103 0.000000 
-1.850073 0.243972 0.000000 
-1.911042 0.188148 0.000000 
-1.969645 0.131311 0.000000 
-1.726970 0.183514 0.000000 
-0.222881 0.391344 0.000000 
-0.195707 0.363761 0.000000 
-0.164205 0.326813 0.000000 
-0.127520 0.294115 0.000000 
-0.095686 0.264624 0.000000 
-0.059027 0.236146 0.000000 
-0.018954 0.206162 0.000000 
0.030296 0.174892 0.000000 
0.086536 0.154366 0.000000 
0.141893 0.135634 0.000000 
0.202102 0.106354 0.000000 
0.263408 0.066438 0.000000 
0.311661 0.016451 0.000000 
0.333954 -0.043172 0.000000 
0.338621 -0.103622 0.000000 
0.341530 -0.157561 0.000000 
0.353165 -0.207749 0.000000 
0.365710 -0.266172 0.000000 
0.363543 -0.335701 0.000000 
0.357353 -0.397815 0.000000 
0.351188 -0.448558 0.000000 
0.363842 -0.495586 0.000000 
-1.737069 -0.362237 0.000000 
-0.199590 0.443961 0.000000 
-0.156305 0.414045 0.000000 
-0.462327 1.680001 0.000000 
0.741313 2.202575 0.000000 
0.482415 -0.506357 0.000000 
0.446104 -0.514253 0.000000 
0.403556 -0.519907 0.000000 
-0.104001 0.385980 0.000000 
-0.514998 1.612055 0.000000 
-0.059937 0.351575 0.000000 
0.738519 2.177310 0.000000 
0.714572 2.189610 0.000000 
-0.249752 0.470784 0.000000 
-0.036232 0.307777 0.000000 
0.000772 0.279945 0.000000 
0.035161 0.254300 0.000000 
-1.776537 -0.361678 0.000000 
-1.836238 -0.357494 0.000000 
-0.309416 0.484885 0.000000 
-0.378944 0.482620 0.000000 
-2.292732 0.362209 0.000000 
-2.315166 0.312218 0.000000 
-2.314418 0.264661 0.000000 
-2.293418 0.218274 0.000000 
-2.279687 0.168395 0.000000 
-2.253462 0.121130 0.000000 
0.075120 0.226557 0.000000 
0.131113 0.213949 0.000000 
-0.977004 0.415933 0.000000 
-0.860050 0.405767 0.000000 
-1.912142 -0.349437 0.000000 
-1.989966 -0.358218 0.000000 
-2.023752 -0.290676 0.000000 
-2.082175 -0.219415 0.000000 
0.723889 2.145797 0.000000 
0.691466 2.164640 0.000000 
0.665980 2.131993 0.000000 
0.704783 2.104725 0.000000 
0.637970 2.093935 0.000000 
0.681732 2.057517 0.000000 
0.670916 2.011341 0.000000 
0.602858 2.062267 0.000000 
0.659584 1.970917 0.000000 
0.560783 2.035896 0.000000 
0.636111 1.934843 0.000000 
0.607495 1.885052 0.000000 
0.595324 1.821572 0.000000 
0.604052 1.756898 0.000000 
0.514160 2.006493 0.000000 
0.453857 1.979048 0.000000 
0.392525 1.977069 0.000000 
0.334098 1.975541 0.000000 
0.278675 1.956787 0.000000 
0.217273 1.938712 0.000000 
0.149449 1.921356 0.000000 
0.614128 1.704623 0.000000 
0.621313 1.657043 0.000000 
0.624262 1.612164 0.000000 
-2.197766 0.067941 0.000000 
-2.158682 -0.006982 0.000000 
-2.124695 0.127271 0.000000 
-2.150589 -0.173109 0.000000 
-2.141926 -0.095563 0.000000 
-0.393439 -0.512123 0.000000 
-0.412631 -0.468080 0.000000 
-0.436983 -0.427476 0.000000 
-0.445953 -0.384057 0.000000 
-0.458251 -0.351231 0.000000 
-0.479726 -0.316465 0.000000 
-0.496934 -0.267734 0.000000 
-0.509002 -0.212650 0.000000 
-0.517157 -0.158320 0.000000 
-0.545309 -0.107044 0.000000 
-0.442273 -0.509518 0.000000 
-0.496002 -0.500000 0.000000 
-0.557668 -0.502107 0.000000 
-0.618975 -0.486627 0.000000 
-0.334659 2.144392 0.000000 
-0.367985 2.114674 0.000000 
-0.385153 2.078248 0.000000 
-0.396797 2.044381 0.000000 
-0.406285 2.008859 0.000000 
-0.402558 1.969726 0.000000 
-0.406645 1.931282 0.000000 
-0.418378 1.898868 0.000000 
-0.428059 1.869743 0.000000 
-0.435849 1.840195 0.000000 
-0.442335 1.810160 0.000000 
-0.445406 1.777095 0.000000 
-0.444483 1.731379 0.000000 
0.619822 1.566432 0.000000 
-1.077870 0.462997 0.000000 
-1.149036 0.421038 0.000000 
-1.174735 0.346195 0.000000 
-1.192231 0.294472 0.000000 
-1.210811 0.252695 0.000000 
-1.228352 0.213356 0.000000 
-1.238869 0.175376 0.000000 
-1.244643 0.143879 0.000000 
-1.248534 0.118977 0.000000 
-1.252336 0.099690 0.000000 
-1.262323 0.086438 0.000000 
-1.280319 0.075522 0.000000 
-0.451814 0.459960 0.000000 
-0.526928 0.416438 0.000000 
0.194935 0.196957 0.000000 
0.069048 1.907257 0.000000 
-0.574175 0.345754 0.000000 
-0.593607 0.264651 0.000000 
-1.764101 0.304336 0.000000 
-2.210991 0.423192 0.000000 
-0.825996 0.320490 0.000000 
-0.799223 0.249410 0.000000 
-0.760911 0.182977 0.000000 
0.605964 1.515480 0.000000 
0.587834 1.458120 0.000000 
0.576354 1.398271 0.000000 
0.574971 1.343263 0.000000 
0.580375 1.300238 0.000000 
0.545179 1.277854 0.000000 
0.509957 1.245592 0.000000 
0.484198 1.209189 0.000000 
0.468721 1.178035 0.000000 
0.449386 1.159504 0.000000 
0.422962 1.146839 0.000000 
0.391379 1.127688 0.000000 
0.357154 1.103624 0.000000 
0.323730 1.075252 0.000000 
-0.582151 -0.046177 0.000000 
0.265957 0.170527 0.000000 
0.333763 0.124398 0.000000 
0.378371 0.057382 0.000000 
0.400918 -0.017013 0.000000 
0.401084 -0.080001 0.000000 
0.404345 -0.134102 0.000000 
0.432648 -0.185184 0.000000 
0.450030 -0.249625 0.000000 
0.529803 -0.096472 0.000000 
0.491947 -0.144610 0.000000 
0.453243 -0.094726 0.000000 
0.449550 -0.323950 0.000000 
0.498420 -0.050599 0.000000 
0.474171 0.009343 0.000000 
0.457863 0.083916 0.000000 
0.462195 -0.382604 0.000000 
0.478704 -0.428940 0.000000 
0.483460 -0.469906 0.000000 
0.412910 -0.408245 0.000000 
0.398390 -0.446959 0.000000 
0.404290 -0.481246 0.000000 
0.442452 -0.476688 0.000000 
0.436659 -0.441523 0.000000 
-0.727378 0.108843 0.000000 
-0.616071 0.190862 0.000000 
-0.623548 0.116581 0.000000 
-0.605779 0.035573 0.000000 
-0.706340 0.023125 0.000000 
-0.681483 -0.063136 0.000000 
-0.032304 1.901696 0.000000 
-0.128010 1.937846 0.000000 
-0.195732 2.004969 0.000000 
-0.243911 2.058883 0.000000 
-0.287859 2.106287 0.000000 
-0.335518 2.078591 0.000000 
-0.667608 -0.148517 0.000000 
-0.584906 -0.155285 0.000000 
-0.658169 -0.228526 0.000000 
-0.578442 -0.220656 0.000000 
-0.639050 -0.299969 0.000000 
-0.607982 -0.375486 0.000000 
-0.562541 -0.283355 0.000000 
-0.536184 -0.344378 0.000000 
-0.495978 -0.382340 0.000000 
-0.500680 -0.434734 0.000000 
-0.573051 -0.439187 0.000000 
-2.690892 1.674990 0.000000 
-2.684799 1.588978 0.000000 
-2.602920 1.587716 0.000000 
-2.574381 1.672709 0.000000 
-2.518122 1.607583 0.000000 
-2.424460 1.631481 0.000000 
-2.320006 1.622550 0.000000 
-2.229986 1.598932 0.000000 
-2.146342 1.557692 0.000000 
-1.455055 -0.103917 0.000000 
-1.387692 -0.023593 0.000000 
-1.339496 0.029735 0.000000 
-1.304977 0.058295 0.000000 
-1.531301 -0.038424 0.000000 
-1.604385 0.005689 0.000000 
-1.592423 0.106369 0.000000 
-1.608296 0.230332 0.000000 
-1.827918 0.428778 0.000000 
0.477873 0.197581 0.000000 
0.477147 0.232479 0.000000 
0.465631 0.266720 0.000000 
-0.587742 1.710929 0.000000 
-0.593403 1.735033 0.000000 
-0.604579 1.747688 0.000000 
-0.619289 1.753374 0.000000 
-0.639577 1.751201 0.000000 
-0.665912 1.752817 0.000000 
-0.697937 1.759804 0.000000 
-0.595692 1.657440 0.000000 
-0.726123 1.774616 0.000000 
-0.757398 1.785186 0.000000 
-0.794522 1.782611 0.000000 
-0.841416 1.780033 0.000000 
-0.894922 1.781394 0.000000 
-0.956071 1.789809 0.000000 
-1.020951 1.808731 0.000000 
-1.077937 1.836366 0.000000 
-1.120258 1.865094 0.000000 
-1.171769 1.840833 0.000000 
0.332207 0.394224 0.000000 
0.333662 0.352489 0.000000 
0.321472 0.422841 0.000000 
0.302407 0.449654 0.000000 
0.214022 0.464316 0.000000 
0.194081 0.525340 0.000000 
0.186716 0.580853 0.000000 
0.189303 0.633625 0.000000 
0.360023 0.312808 0.000000 
0.405131 0.287674 0.000000 
0.201671 0.682871 0.000000 
0.218038 0.733132 0.000000 
0.236652 0.782066 0.000000 
0.256885 0.824000 0.000000 
0.278373 0.852494 0.000000 
0.284019 0.885892 0.000000 
0.276718 0.932639 0.000000 
0.278735 0.989452 0.000000 
0.296322 1.039720 0.000000 
-1.507867 1.792591 0.000000 
-1.548116 1.767949 0.000000 
-1.598023 1.740569 0.000000 
-1.467251 1.807365 0.000000 
-1.422160 1.814648 0.000000 
-1.373311 1.821365 0.000000 
-1.322903 1.829141 0.000000 
-1.275577 1.838387 0.000000 
-1.225048 1.836988 0.000000 
-1.662214 1.716900 0.000000 
-1.732600 1.696960 0.000000 
-1.794687 1.682585 0.000000 
-1.841773 1.653398 0.000000 
-2.078405 0.720670 0.000000 
-2.079214 0.799260 0.000000 
-2.097651 0.643070 0.000000 
-2.129318 0.571331 0.000000 
-2.096743 0.879822 0.000000 
-2.169699 0.515988 0.000000 
-1.991686 0.442988 0.000000 
-1.642187 0.368544 0.000000 
-1.989898 0.275763 0.000000 
-2.064526 0.203950 0.000000 
-1.914688 0.349297 0.000000 
-2.037969 1.132374 0.000000 
-2.021377 1.016689 0.000000 
-2.055796 1.261536 0.000000 
-2.102728 1.364189 0.000000 
-2.047875 1.506491 0.000000 
0.428030 0.253222 0.000000 
0.375625 0.231986 0.000000 
0.313454 0.245087 0.000000 
0.290352 0.391122 0.000000 
0.238487 1.102039 0.000000 
0.440631 0.215115 0.000000 
0.396678 0.175338 0.000000 
0.460488 0.149417 0.000000 
0.523747 1.325529 0.000000 
-2.262588 0.288784 0.000000 
-2.220468 0.344811 0.000000 
-2.218579 0.235273 0.000000 
-2.146376 0.287123 0.000000 
-2.206503 0.170202 0.000000 
0.473879 1.286917 0.000000 
0.446488 1.234586 0.000000 
0.440978 1.190567 0.000000 
0.409581 1.182712 0.000000 
0.629179 2.011607 0.000000 
0.593839 1.979134 0.000000 
0.550362 1.934930 0.000000 
0.483841 1.894507 0.000000 
0.202470 1.035675 0.000000 
0.241245 0.887899 0.000000 
0.205152 0.863099 0.000000 
0.175878 0.814958 0.000000 
0.153326 0.756452 0.000000 
0.132079 0.696002 0.000000 
0.113278 0.631546 0.000000 
0.106000 0.563223 0.000000 
0.109640 0.494026 0.000000 
0.121648 0.423348 0.000000 
0.032483 0.333734 0.000000 
0.246820 0.416413 0.000000 
0.099619 0.282099 0.000000 
0.373127 1.167830 0.000000 
-0.307911 2.030969 0.000000 
-0.360136 2.012500 0.000000 
-0.343252 1.958154 0.000000 
-0.270247 1.966299 0.000000 
0.168337 0.278618 0.000000 
0.242346 0.268281 0.000000 
0.270369 0.337317 0.000000 
0.505525 1.393291 0.000000 
-0.689828 0.220546 0.000000 
-0.729540 0.277950 0.000000 
-0.746154 0.352422 0.000000 
-0.657668 0.368986 0.000000 
-0.661195 0.284699 0.000000 
-0.924642 0.521662 0.000000 
-1.137284 1.785025 0.000000 
-1.072920 1.740431 0.000000 
-1.248127 1.797322 0.000000 
-1.304069 1.781000 0.000000 
-1.360197 1.773340 0.000000 
-1.411221 1.769200 0.000000 
-1.453165 1.765970 0.000000 
-1.486003 1.748508 0.000000 
-1.510814 1.705039 0.000000 
-1.558800 1.660370 0.000000 
-0.995058 1.713678 0.000000 
-0.919611 1.703202 0.000000 
-0.852227 1.710134 0.000000 
-0.796966 1.726653 0.000000 
-0.752732 1.745821 0.000000 
-1.635591 1.633037 0.000000 
-1.992480 0.907739 0.000000 
-1.965104 0.797959 0.000000 
-1.974377 0.694627 0.000000 
-2.014368 0.601005 0.000000 
-2.065453 0.517819 0.000000 
-2.071492 0.364752 0.000000 
-2.131272 0.448289 0.000000 
-1.712039 1.619714 0.000000 
-1.781280 1.619665 0.000000 
-1.884796 1.589608 0.000000 
0.516332 1.809271 0.000000 
0.538779 1.738142 0.000000 
0.517174 1.467676 0.000000 
0.552532 1.529612 0.000000 
0.576896 1.571539 0.000000 
0.583356 1.608565 0.000000 
0.576083 1.645569 0.000000 
0.562288 1.687930 0.000000 