# vtk DataFile Version 3.0 
vtk output 
ASCII 
DATASET UNSTRUCTURED_GRID 
POINTS 899 float 
-3.648847 2.329215 0.000000 
-3.619410 2.288663 0.000000 
-3.578536 2.253068 0.000000 
-3.540028 2.217418 0.000000 
-3.511690 2.185222 0.000000 
-3.481362 2.155364 0.000000 
-3.451569 2.114690 0.000000 
0.772356 2.231729 0.000000 
0.774615 2.205608 0.000000 
0.769962 2.176854 0.000000 
-3.399514 2.084414 0.000000 
0.413960 -0.560428 0.000000 
0.455573 -0.556125 0.000000 
-1.762619 -0.460323 0.000000 
-1.783389 -0.424927 0.000000 
-1.714437 -0.396138 0.000000 
0.732567 2.226054 0.000000 
0.698438 2.212217 0.000000 
0.491831 -0.541922 0.000000 
0.519501 -0.511517 0.000000 
0.530556 -0.471070 0.000000 
0.532354 -0.425266 0.000000 
0.531774 -0.374760 0.000000 
-3.460923 2.022682 0.000000 
0.663989 2.190271 0.000000 
0.631675 2.162876 0.000000 
0.601833 2.138821 0.000000 
0.569607 2.115563 0.000000 
0.534059 2.093486 0.000000 
0.492599 2.072346 0.000000 
0.444403 2.053681 0.000000 
0.762807 2.135879 0.000000 
-1.708694 -0.361755 0.000000 
-1.726386 -0.321492 0.000000 
-1.761257 -0.297471 0.000000 
-1.812853 -0.289623 0.000000 
-0.690422 -0.541958 0.000000 
-0.624256 -0.559886 0.000000 
-0.561079 -0.568067 0.000000 
-0.500739 -0.569523 0.000000 
-0.445387 -0.569585 0.000000 
0.532260 -0.315676 0.000000 
0.536647 -0.246343 0.000000 
-1.881389 -0.277122 0.000000 
-0.389303 -0.567311 0.000000 
-0.340338 -0.552025 0.000000 
-0.344339 -0.497890 0.000000 
-0.358558 -0.445351 0.000000 
-0.381750 -0.404439 0.000000 
-0.406193 -0.370264 0.000000 
-0.417316 -0.338767 0.000000 
-0.428320 -0.304510 0.000000 
-0.436973 -0.260245 0.000000 
-0.444212 -0.204702 0.000000 
-0.452662 -0.145844 0.000000 
-0.468602 -0.088945 0.000000 
0.553166 -0.181628 0.000000 
0.573193 -0.123957 0.000000 
0.574450 -0.072216 0.000000 
0.561087 -0.021896 0.000000 
0.550432 0.033427 0.000000 
0.748903 2.082562 0.000000 
0.730940 2.026069 0.000000 
0.715868 1.979910 0.000000 
0.699446 1.943782 0.000000 
0.684888 1.902792 0.000000 
0.675900 1.856588 0.000000 
0.669871 1.807028 0.000000 
0.664455 1.759171 0.000000 
0.668163 1.712752 0.000000 
0.672091 1.662918 0.000000 
0.674558 1.614895 0.000000 
0.673045 1.564815 0.000000 
0.386491 2.044001 0.000000 
0.664855 1.506077 0.000000 
0.652298 1.447999 0.000000 
0.638456 1.394349 0.000000 
0.623121 1.344839 0.000000 
0.616008 1.301812 0.000000 
0.600787 1.266869 0.000000 
0.571289 1.237421 0.000000 
0.539016 1.206259 0.000000 
0.513857 1.177360 0.000000 
0.493343 1.151125 0.000000 
0.469109 1.133313 0.000000 
0.444920 1.116868 0.000000 
0.415324 1.095902 0.000000 
0.383540 1.071150 0.000000 
0.356179 1.041818 0.000000 
0.343879 1.002918 0.000000 
0.337476 0.957398 0.000000 
0.332404 0.912111 0.000000 
0.328512 0.872422 0.000000 
0.319594 0.836342 0.000000 
0.304149 0.802931 0.000000 
0.290502 0.762540 0.000000 
0.275896 0.714678 0.000000 
0.261905 0.672709 0.000000 
0.250150 0.639113 0.000000 
0.250896 0.601308 0.000000 
0.259587 0.558705 0.000000 
0.284617 0.515932 0.000000 
0.315237 0.486271 0.000000 
0.340022 0.466834 0.000000 
0.354380 0.440985 0.000000 
0.368685 0.413842 0.000000 
0.385568 0.387446 0.000000 
0.415372 0.362649 0.000000 
0.447119 0.330937 0.000000 
0.477633 0.303020 0.000000 
0.503078 0.275084 0.000000 
0.518876 0.237030 0.000000 
0.527127 0.201061 0.000000 
0.534187 0.156516 0.000000 
0.543185 0.095736 0.000000 
0.322519 2.032945 0.000000 
0.263849 2.019828 0.000000 
0.208223 2.014409 0.000000 
0.150441 2.010580 0.000000 
-0.687392 -0.468890 0.000000 
-3.327058 2.058183 0.000000 
-3.276080 2.011761 0.000000 
-3.224941 1.978174 0.000000 
-3.181728 1.949016 0.000000 
-3.135074 1.912086 0.000000 
-3.078123 1.887793 0.000000 
-1.944260 -0.232244 0.000000 
0.083204 2.015736 0.000000 
0.005786 2.010383 0.000000 
-0.071812 2.019621 0.000000 
-0.135705 2.049163 0.000000 
-0.182391 2.090769 0.000000 
-1.999041 -0.161275 0.000000 
-1.843230 -0.435784 0.000000 
-0.491126 -0.024985 0.000000 
-0.512312 0.048258 0.000000 
-0.526535 0.111090 0.000000 
-0.527935 0.173212 0.000000 
-0.524207 0.240382 0.000000 
-0.505864 0.297514 0.000000 
-0.468875 0.346726 0.000000 
-0.410369 0.375971 0.000000 
-0.354013 0.397088 0.000000 
-0.301050 0.407033 0.000000 
-0.255730 0.407806 0.000000 
-0.695595 -0.390595 0.000000 
-0.726457 -0.313714 0.000000 
-0.747352 -0.244258 0.000000 
-3.396487 2.001047 0.000000 
-3.344056 1.921659 0.000000 
-3.294256 1.878259 0.000000 
-3.248246 1.839934 0.000000 
-3.196818 1.800581 0.000000 
-3.159669 1.749270 0.000000 
-3.113281 1.702566 0.000000 
-3.056061 1.683003 0.000000 
-2.996684 1.660378 0.000000 
-2.933161 1.630761 0.000000 
-2.879064 1.594619 0.000000 
-2.813006 1.569833 0.000000 
-2.751664 1.546783 0.000000 
-2.686782 1.517460 0.000000 
-1.922020 -0.432977 0.000000 
-1.999705 -0.434476 0.000000 
-2.060018 -0.412872 0.000000 
-2.032615 -0.077885 0.000000 
-2.048550 0.007837 0.000000 
-2.029059 0.073730 0.000000 
-2.105228 -0.355814 0.000000 
-2.154373 -0.288219 0.000000 
-2.203584 -0.233595 0.000000 
-2.237020 -0.172160 0.000000 
-2.250593 -0.106867 0.000000 
-2.270119 -0.035083 0.000000 
-2.297898 0.035227 0.000000 
-2.327118 0.096807 0.000000 
-2.346747 0.150777 0.000000 
-2.362840 0.203886 0.000000 
-2.374561 0.254931 0.000000 
-2.373128 0.306906 0.000000 
-2.334174 0.373497 0.000000 
-2.331842 0.414115 0.000000 
-2.284565 0.422874 0.000000 
-0.236368 2.140304 0.000000 
-0.299146 2.184131 0.000000 
-0.346614 2.204056 0.000000 
-0.382877 2.167553 0.000000 
-0.412447 2.138503 0.000000 
-0.433989 2.098215 0.000000 
-0.446472 2.055249 0.000000 
-0.451628 2.015931 0.000000 
-0.451047 1.977469 0.000000 
-0.449242 1.941465 0.000000 
-0.453345 1.909576 0.000000 
-0.460251 1.881882 0.000000 
-0.470304 1.853097 0.000000 
-0.475290 1.823607 0.000000 
-0.478341 1.793821 0.000000 
-0.479442 1.757085 0.000000 
-2.609147 1.503671 0.000000 
-2.517189 1.498172 0.000000 
-2.434013 1.498509 0.000000 
-2.352624 1.488478 0.000000 
-2.274410 1.469106 0.000000 
-2.204499 1.434458 0.000000 
-2.180326 1.365575 0.000000 
-2.178559 1.277039 0.000000 
-2.168273 1.187010 0.000000 
-2.159086 1.088946 0.000000 
-2.144575 0.999787 0.000000 
-2.163040 0.924570 0.000000 
-2.183612 0.850478 0.000000 
-2.172907 0.785921 0.000000 
-2.161614 0.723166 0.000000 
-2.169833 0.663054 0.000000 
-2.188987 0.601301 0.000000 
-2.218663 0.550055 0.000000 
-2.229021 0.494182 0.000000 
-2.997130 1.870996 0.000000 
-3.021908 1.772858 0.000000 
-2.902046 1.839489 0.000000 
-0.770600 -0.161665 0.000000 
-0.790096 -0.070006 0.000000 
-0.811857 0.010702 0.000000 
-0.835807 0.089266 0.000000 
-0.859157 0.159394 0.000000 
-0.881226 0.219445 0.000000 
-0.903169 0.278796 0.000000 
-0.928196 0.342840 0.000000 
-2.785442 1.806936 0.000000 
-2.944278 1.746194 0.000000 
-2.855014 1.709048 0.000000 
-2.796189 1.648968 0.000000 
-2.651235 1.792189 0.000000 
-2.517962 1.781842 0.000000 
-2.394240 1.772680 0.000000 
-2.275192 1.764683 0.000000 
-2.180847 1.740122 0.000000 
-2.099904 1.713643 0.000000 
-2.018420 1.682403 0.000000 
-1.945469 1.686700 0.000000 
-1.885190 1.720040 0.000000 
-1.829736 1.740609 0.000000 
-1.760875 1.765840 0.000000 
-1.680504 1.794265 0.000000 
-1.617798 1.812582 0.000000 
-1.570169 1.827105 0.000000 
-1.527149 1.841295 0.000000 
-1.482581 1.853424 0.000000 
-1.433927 1.859965 0.000000 
-1.386311 1.867880 0.000000 
-1.337319 1.876610 0.000000 
-1.286363 1.883690 0.000000 
-1.235962 1.884407 0.000000 
-1.188452 1.889220 0.000000 
-1.140860 1.898671 0.000000 
-1.091558 1.897980 0.000000 
-1.038962 1.886962 0.000000 
-0.982519 1.867964 0.000000 
-0.922315 1.851222 0.000000 
-0.869867 1.840897 0.000000 
-0.827747 1.834407 0.000000 
-0.785371 1.829496 0.000000 
-0.748025 1.819758 0.000000 
-0.712781 1.809491 0.000000 
-0.681690 1.795560 0.000000 
-0.657198 1.784425 0.000000 
-0.633895 1.777762 0.000000 
-0.612002 1.773307 0.000000 
-0.594184 1.766094 0.000000 
-0.577381 1.756644 0.000000 
-0.560109 1.741360 0.000000 
-0.540091 1.708906 0.000000 
-1.243914 0.070060 0.000000 
-1.232782 0.083777 0.000000 
-1.257376 0.055706 0.000000 
-1.224378 0.102477 0.000000 
-1.271472 0.036361 0.000000 
-1.215702 0.124474 0.000000 
-1.204660 0.150530 0.000000 
-1.290143 0.008619 0.000000 
-1.314447 -0.036421 0.000000 
-1.190204 0.180837 0.000000 
-1.318041 -0.089775 0.000000 
-1.171655 0.214993 0.000000 
-1.149359 0.251307 0.000000 
-1.123094 0.289556 0.000000 
-1.284246 -0.139755 0.000000 
-1.239750 -0.190481 0.000000 
-1.083297 0.333547 0.000000 
-1.028190 0.365218 0.000000 
-1.181630 -0.232837 0.000000 
-1.112789 -0.264265 0.000000 
-1.040643 -0.276435 0.000000 
-0.978118 -0.279522 0.000000 
-0.927392 -0.292547 0.000000 
-0.889718 -0.331682 0.000000 
-0.873564 -0.388232 0.000000 
-0.920771 -0.420426 0.000000 
-0.935346 -0.353157 0.000000 
-0.991249 -0.430002 0.000000 
-1.088918 -0.427274 0.000000 
-1.067426 -0.347622 0.000000 
-1.189474 -0.419710 0.000000 
-1.147229 -0.334955 0.000000 
-1.266509 -0.396420 0.000000 
-1.219913 -0.308777 0.000000 
-1.335307 -0.360594 0.000000 
-1.284456 -0.270778 0.000000 
-1.402357 -0.316690 0.000000 
-1.341444 -0.222978 0.000000 
-1.466758 -0.264014 0.000000 
-1.539152 -0.203215 0.000000 
-1.393011 -0.165047 0.000000 
-1.612839 -0.132944 0.000000 
-1.665320 -0.075366 0.000000 
-1.691220 -0.010539 0.000000 
-1.704696 0.074955 0.000000 
-1.850073 0.241824 0.000000 
-1.911042 0.185999 0.000000 
-1.969645 0.129162 0.000000 
-1.726970 0.181366 0.000000 
-0.222881 0.389195 0.000000 
-0.195707 0.361612 0.000000 
-0.164205 0.324665 0.000000 
-0.127520 0.291967 0.000000 
-0.095686 0.262475 0.000000 
-0.059027 0.233997 0.000000 
-0.018954 0.204014 0.000000 
0.030296 0.172743 0.000000 
0.086536 0.152217 0.000000 
0.141893 0.133486 0.000000 
0.202102 0.104206 0.000000 
0.263408 0.064289 0.000000 
0.311661 0.014302 0.000000 
0.333954 -0.045320 0.000000 
0.338621 -0.105771 0.000000 
0.341530 -0.159709 0.000000 
0.353165 -0.209898 0.000000 
0.365710 -0.268320 0.000000 
0.363543 -0.337849 0.000000 
[...]
POINT_DATA 899 
VECTORS X_GC float 
-3.648847 2.329215 0.000000 
-3.619410 2.288663 0.000000 
-3.578536 2.253068 0.000000 
-3.540028 2.217418 0.000000 
-3.511690 2.185222 0.000000 
-3.481362 2.155364 0.000000 
-3.451569 2.114690 0.000000 
0.772356 2.231729 0.000000 
0.774615 2.205608 0.000000 
0.769962 2.176854 0.000000 
-3.399514 2.084414 0.000000 
0.413960 -0.560428 0.000000 
0.455573 -0.556125 0.000000 
-1.762619 -0.460323 0.000000 
-1.783389 -0.424927 0.000000 
-1.714437 -0.396138 0.000000 
0.732567 2.226054 0.000000 
0.698438 2.212217 0.000000 
0.491831 -0.541922 0.000000 
0.519501 -0.511517 0.000000 
0.530556 -0.471070 0.000000 
0.532354 -0.425266 0.000000 
0.531774 -0.374760 0.000000 
-3.460923 2.022682 0.000000 
0.663989 2.190271 0.000000 
0.631675 2.162876 0.000000 
0.601833 2.138821 0.000000 
0.569607 2.115563 0.000000 
0.534059 2.093486 0.000000 
0.492599 2.072346 0.000000 
0.444403 2.053681 0.000000 
0.762807 2.135879 0.000000 
-1.708694 -0.361755 0.000000 
-1.726386 -0.321492 0.000000 
-1.761257 -0.297471 0.000000 
-1.812853 -0.289623 0.000000 
-0.690422 -0.541958 0.000000 
-0.624256 -0.559886 0.000000 
-0.561079 -0.568067 0.000000 
-0.500739 -0.569523 0.000000 
-0.445387 -0.569585 0.000000 
0.532260 -0.315676 0.000000 
0.536647 -0.246343 0.000000 
-1.881389 -0.277122 0.000000 
-0.389303 -0.567311 0.000000 
-0.340338 -0.552025 0.000000 
-0.344339 -0.497890 0.000000 
-0.358558 -0.445351 0.000000 
-0.381750 -0.404439 0.000000 
-0.406193 -0.370264 0.000000 
-0.417316 -0.338767 0.000000 
-0.428320 -0.304510 0.000000 
-0.436973 -0.260245 0.000000 
-0.444212 -0.204702 0.000000 
-0.452662 -0.145844 0.000000 
-0.468602 -0.088945 0.000000 
0.553166 -0.181628 0.000000 
0.573193 -0.123957 0.000000 
0.574450 -0.072216 0.000000 
0.561087 -0.021896 0.000000 
0.550432 0.033427 0.000000 
0.748903 2.082562 0.000000 
0.730940 2.026069 0.000000 
0.715868 1.979910 0.000000 
0.699446 1.943782 0.000000 
0.684888 1.902792 0.000000 
0.675900 1.856588 0.000000 
0.669871 1.807028 0.000000 
0.664455 1.759171 0.000000 
0.668163 1.712752 0.000000 
0.672091 1.662918 0.000000 
0.674558 1.614895 0.000000 
0.673045 1.564815 0.000000 
0.386491 2.044001 0.000000 
0.664855 1.506077 0.000000 
0.652298 1.447999 0.000000 
0.638456 1.394349 0.000000 
0.623121 1.344839 0.000000 
0.616008 1.301812 0.000000 
0.600787 1.266869 0.000000 
0.571289 1.237421 0.000000 
0.539016 1.206259 0.000000 
0.513857 1.177360 0.000000 
0.493343 1.151125 0.000000 
0.469109 1.133313 0.000000 
0.444920 1.116868 0.000000 
0.415324 1.095902 0.000000 
0.383540 1.071150 0.000000 
0.356179 1.041818 0.000000 
0.343879 1.002918 0.000000 
0.337476 0.957398 0.000000 
0.332404 0.912111 0.000000 
0.328512 0.872422 0.000000 
0.319594 0.836342 0.000000 
0.304149 0.802931 0.000000 
0.290502 0.762540 0.000000 
0.275896 0.714678 0.000000 
0.261905 0.672709 0.000000 
0.250150 0.639113 0.000000 
0.250896 0.601308 0.000000 
0.259587 0.558705 0.000000 
0.284617 0.515932 0.000000 
0.315237 0.486271 0.000000 
0.340022 0.466834 0.000000 
0.354380 0.440985 0.000000 
0.368685 0.413842 0.000000 
0.385568 0.387446 0.000000 
0.415372 0.362649 0.000000 
0.447119 0.330937 0.000000 
0.477633 0.303020 0.000000 
0.503078 0.275084 0.000000 
0.518876 0.237030 0.000000 
0.527127 0.201061 0.000000 
0.534187 0.156516 0.000000 
0.543185 0.095736 0.000000 
0.322519 2.032945 0.000000 
0.263849 2.019828 0.000000 
0.208223 2.014409 0.000000 
0.150441 2.010580 0.000000 
-0.687392 -0.468890 0.000000 
-3.327058 2.058183 0.000000 
-3.276080 2.011761 0.000000 
-3.224941 1.978174 0.000000 
-3.181728 1.949016 0.000000 
-3.135074 1.912086 0.000000 
-3.078123 1.887793 0.000000 
-1.944260 -0.232244 0.000000 
0.083204 2.015736 0.000000 
0.005786 2.010383 0.000000 
-0.071812 2.019621 0.000000 
-0.135705 2.049163 0.000000 
-0.182391 2.090769 0.000000 
-1.999041 -0.161275 0.000000 
-1.843230 -0.435784 0.000000 
-0.491126 -0.024985 0.000000 
-0.512312 0.048258 0.000000 
-0.526535 0.111090 0.000000 
-0.527935 0.173212 0.000000 
-0.524207 0.240382 0.000000 
-0.505864 0.297514 0.000000 
-0.468875 0.346726 0.000000 
-0.410369 0.375971 0.000000 
-0.354013 0.397088 0.000000 
-0.301050 0.407033 0.000000 
-0.255730 0.407806 0.000000 
-0.695595 -0.390595 0.000000 
-0.726457 -0.313714 0.000000 
-0.747352 -0.244258 0.000000 
-3.396487 2.001047 0.000000 
-3.344056 1.921659 0.000000 
-3.294256 1.878259 0.000000 
-3.248246 1.839934 0.000000 
-3.196818 1.800581 0.000000 
-3.159669 1.749270 0.000000 
-3.113281 1.702566 0.000000 
-3.056061 1.683003 0.000000 
-2.996684 1.660378 0.000000 
-2.933161 1.630761 0.000000 
-2.879064 1.594619 0.000000 
-2.813006 1.569833 0.000000 
-2.751664 1.546783 0.000000 
-2.686782 1.517460 0.000000 
-1.922020 -0.432977 0.000000 
-1.999705 -0.434476 0.000000 
-2.060018 -0.412872 0.000000 
-2.032615 -0.077885 0.000000 
-2.048550 0.007837 0.000000 
-2.029059 0.073730 0.000000 
-2.105228 -0.355814 0.000000 
-2.154373 -0.288219 0.000000 
-2.203584 -0.233595 0.000000 
-2.237020 -0.172160 0.000000 
-2.250593 -0.106867 0.000000 
-2.270119 -0.035083 0.000000 
-2.297898 0.035227 0.000000 
-2.327118 0.096807 0.000000 
-2.346747 0.150777 0.000000 
-2.362840 0.203886 0.000000 
-2.374561 0.254931 0.000000 
-2.373128 0.306906 0.000000 
-2.334174 0.373497 0.000000 
-2.331842 0.414115 0.000000 
-2.284565 0.422874 0.000000 
-0.236368 2.140304 0.000000 
-0.299146 2.184131 0.000000 
-0.346614 2.204056 0.000000 
-0.382877 2.167553 0.000000 
-0.412447 2.138503 0.000000 
-0.433989 2.098215 0.000000 
-0.446472 2.055249 0.000000 
-0.451628 2.015931 0.000000 
-0.451047 1.977469 0.000000 
-0.449242 1.941465 0.000000 
-0.453345 1.909576 0.000000 
-0.460251 1.881882 0.000000 
-0.470304 1.853097 0.000000 
-0.475290 1.823607 0.000000 
-0.478341 1.793821 0.000000 
-0.479442 1.757085 0.000000 
-2.609147 1.503671 0.000000 
-2.517189 1.498172 0.000000 
-2.434013 1.498509 0.000000 
-2.352624 1.488478 0.000000 
-2.274410 1.469106 0.000000 
-2.204499 1.434458 0.000000 
-2.180326 1.365575 0.000000 
-2.178559 1.277039 0.000000 
-2.168273 1.187010 0.000000 
-2.159086 1.088946 0.000000 
-2.144575 0.999787 0.000000 
-2.163040 0.924570 0.000000 
-2.183612 0.850478 0.000000 
-2.172907 0.785921 0.000000 
-2.161614 0.723166 0.000000 
-2.169833 0.663054 0.000000 
-2.188987 0.601301 0.000000 
-2.218663 0.550055 0.000000 
-2.229021 0.494182 0.000000 
-2.997130 1.870996 0.000000 
-3.021908 1.772858 0.000000 
-2.902046 1.839489 0.000000 
-0.770600 -0.161665 0.000000 
-0.790096 -0.070006 0.000000 
-0.811857 0.010702 0.000000 
-0.835807 0.089266 0.000000 
-0.859157 0.159394 0.000000 
-0.881226 0.219445 0.000000 
-0.903169 0.278796 0.000000 
-0.928196 0.342840 0.000000 
-2.785442 1.806936 0.000000 
-2.944278 1.746194 0.000000 
-2.855014 1.709048 0.000000 
-2.796189 1.648968 0.000000 
-2.651235 1.792189 0.000000 
-2.517962 1.781842 0.000000 
-2.394240 1.772680 0.000000 
-2.275192 1.764683 0.000000 
-2.180847 1.740122 0.000000 
-2.099904 1.713643 0.000000 
-2.018420 1.682403 0.000000 
-1.945469 1.686700 0.000000 
-1.885190 1.720040 0.000000 
-1.829736 1.740609 0.000000 
-1.760875 1.765840 0.000000 
-1.680504 1.794265 0.000000 
-1.617798 1.812582 0.000000 
-1.570169 1.827105 0.000000 
-1.527149 1.841295 0.000000 
-1.482581 1.853424 0.000000 
-1.433927 1.859965 0.000000 
-1.386311 1.867880 0.000000 
-1.337319 1.876610 0.000000 
-1.286363 1.883690 0.000000 
-1.235962 1.884407 0.000000 
-1.188452 1.889220 0.000000 
-1.140860 1.898671 0.000000 
-1.091558 1.897980 0.000000 
-1.038962 1.886962 0.000000 
-0.982519 1.867964 0.000000 
-0.922315 1.851222 0.000000 
-0.869867 1.840897 0.000000 
-0.827747 1.834407 0.000000 
-0.785371 1.829496 0.000000 
-0.748025 1.819758 0.000000 
-0.712781 1.809491 0.000000 
-0.681690 1.795560 0.000000 
-0.657198 1.784425 0.000000 
-0.633895 1.777762 0.000000 
-0.612002 1.773307 0.000000 
-0.594184 1.766094 0.000000 
-0.577381 1.756644 0.000000 
-0.560109 1.741360 0.000000 
-0.540091 1.708906 0.000000 
-1.243914 0.070060 0.000000 
-1.232782 0.083777 0.000000 
-1.257376 0.055706 0.000000 
-1.224378 0.102477 0.000000 
-1.271472 0.036361 0.000000 
-1.215702 0.124474 0.000000 
-1.204660 0.150530 0.000000 
-1.290143 0.008619 0.000000 
-1.314447 -0.036421 0.000000 
-1.190204 0.180837 0.000000 
-1.318041 -0.089775 0.000000 
-1.171655 0.214993 0.000000 
-1.149359 0.251307 0.000000 
-1.123094 0.289556 0.000000 
-1.284246 -0.139755 0.000000 
-1.239750 -0.190481 0.000000 
-1.083297 0.333547 0.000000 
-1.028190 0.365218 0.000000 
-1.181630 -0.232837 0.000000 
-1.112789 -0.264265 0.000000 
-1.040643 -0.276435 0.000000 
-0.978118 -0.279522 0.000000 
-0.927392 -0.292547 0.000000 
-0.889718 -0.331682 0.000000 
-0.873564 -0.388232 0.000000 
-0.920771 -0.420426 0.000000 
-0.935346 -0.353157 0.000000 
-0.991249 -0.430002 0.000000 
-1.088918 -0.427274 0.000000 
-1.067426 -0.347622 0.000000 
-1.189474 -0.419710 0.000000 
-1.147229 -0.334955 0.000000 
-1.266509 -0.396420 0.000000 
-1.219913 -0.308777 0.000000 
-1.335307 -0.360594 0.000000 
-1.284456 -0.270778 0.000000 
-1.402357 -0.316690 0.000000 
-1.341444 -0.222978 0.000000 
-1.466758 -0.264014 0.000000 
-1.539152 -0.203215 0.000000 
-1.393011 -0.165047 0.000000 
-1.612839 -0.132944 0.000000 
-1.665320 -0.075366 0.000000 
-1.691220 -0.010539 0.000000 
-1.704696 0.074955 0.000000 
-1.850073 0.241824 0.000000 
-1.911042 0.185999 0.000000 
-1.969645 0.129162 0.000000 
-1.726970 0.181366 0.000000 
-0.222881 0.389195 0.000000 
-0.195707 0.361612 0.000000 
-0.164205 0.324665 0.000000 
-0.127520 0.291967 0.000000 
-0.095686 0.262475 0.000000 
-0.059027 0.233997 0.000000 
-0.018954 0.204014 0.000000 
0.030296 0.172743 0.000000 
0.086536 0.152217 0.000000 
0.141893 0.133486 0.000000 
0.202102 0.104206 0.000000 
0.263408 0.064289 0.000000 
0.311661 0.014302 0.000000 
0.333954 -0.045320 0.000000 
0.338621 -0.105771 0.000000 
0.341530 -0.159709 0.000000 
0.353165 -0.209898 0.000000 
0.365710 -0.268320 0.000000 
0.363543 -0.337849 0.000000 
0.357353 -0.399964 0.000000 
0.351188 -0.450706 0.000000 
0.363842 -0.497734 0.000000 
-1.737069 -0.364385 0.000000 
-0.199590 0.441813 0.000000 
-0.156305 0.411896 0.000000 
-0.462327 1.677852 0.000000 
0.741313 2.200427 0.000000 
0.482415 -0.508505 0.000000 
0.446104 -0.516401 0.000000 
0.403556 -0.522055 0.000000 
-0.104001 0.383832 0.000000 
-0.514998 1.609907 0.000000 
-0.059937 0.349427 0.000000 
0.738519 2.175162 0.000000 
0.714572 2.187462 0.000000 
-0.249752 0.468636 0.000000 
-0.036232 0.305628 0.000000 
0.000772 0.277796 0.000000 
0.035161 0.252152 0.000000 
-1.776537 -0.363827 0.000000 
-1.836238 -0.359642 0.000000 
-0.309416 0.482736 0.000000 
-0.378944 0.480472 0.000000 
-2.292732 0.360060 0.000000 
-2.315166 0.310069 0.000000 
-2.314418 0.262512 0.000000 
-2.293418 0.216126 0.000000 
-2.279687 0.166247 0.000000 
-2.253462 0.118981 0.000000 
0.075120 0.224409 0.000000 
0.131113 0.211801 0.000000 
-0.977004 0.413784 0.000000 
-0.860050 0.403619 0.000000 
-1.912142 -0.351586 0.000000 
-1.989966 -0.360366 0.000000 
-2.023752 -0.292824 0.000000 
-2.082175 -0.221563 0.000000 
0.723889 2.143649 0.000000 
0.691466 2.162492 0.000000 
0.665980 2.129845 0.000000 
0.704783 2.102577 0.000000 
0.637970 2.091787 0.000000 
0.681732 2.055368 0.000000 
0.670916 2.009193 0.000000 
0.602858 2.060119 0.000000 
0.659584 1.968769 0.000000 
0.560783 2.033748 0.000000 
0.636111 1.932694 0.000000 
0.607495 1.882904 0.000000 
0.595324 1.819423 0.000000 
0.604052 1.754750 0.000000 
0.514160 2.004345 0.000000 
0.453857 1.976899 0.000000 
0.392525 1.974921 0.000000 
0.334098 1.973393 0.000000 
0.278675 1.954639 0.000000 
0.217273 1.936564 0.000000 
0.149449 1.919208 0.000000 
0.614128 1.702474 0.000000 
0.621313 1.654895 0.000000 
0.624262 1.610015 0.000000 
-2.197766 0.065793 0.000000 
-2.158682 -0.009131 0.000000 
-2.124695 0.125123 0.000000 
-2.150589 -0.175257 0.000000 
-2.141926 -0.097712 0.000000 
-0.393439 -0.514272 0.000000 
-0.412631 -0.470228 0.000000 
-0.436983 -0.429625 0.000000 
-0.445953 -0.386205 0.000000 
-0.458251 -0.353379 0.000000 
-0.479726 -0.318613 0.000000 
-0.496934 -0.269882 0.000000 
-0.509002 -0.214799 0.000000 
-0.517157 -0.160468 0.000000 
-0.545309 -0.109193 0.000000 
-0.442273 -0.511666 0.000000 
-0.496002 -0.502149 0.000000 
-0.557668 -0.504255 0.000000 
-0.618975 -0.488775 0.000000 
-0.334659 2.142243 0.000000 
-0.367985 2.112526 0.000000 
-0.385153 2.076100 0.000000 
-0.396797 2.042233 0.000000 
-0.406285 2.006711 0.000000 
-0.402558 1.967577 0.000000 
-0.406645 1.929134 0.000000 
-0.418378 1.896720 0.000000 
-0.428059 1.867594 0.000000 
-0.435849 1.838047 0.000000 
-0.442335 1.808012 0.000000 
-0.445406 1.774947 0.000000 
-0.444483 1.729231 0.000000 
0.619822 1.564283 0.000000 
-1.077870 0.460848 0.000000 
-1.149036 0.418890 0.000000 
-1.174735 0.344047 0.000000 
-1.192231 0.292324 0.000000 
-1.210811 0.250547 0.000000 
-1.228352 0.211207 0.000000 
-1.238869 0.173227 0.000000 
-1.244643 0.141730 0.000000 
-1.248534 0.116829 0.000000 
-1.252336 0.097541 0.000000 
-1.262323 0.084290 0.000000 
-1.280319 0.073374 0.000000 
-0.451814 0.457812 0.000000 
-0.526928 0.414290 0.000000 
0.194935 0.194809 0.000000 
0.069048 1.905108 0.000000 
-0.574175 0.343606 0.000000 
-0.593607 0.262503 0.000000 
-1.764101 0.302188 0.000000 
-2.210991 0.421044 0.000000 
-0.825996 0.318342 0.000000 
-0.799223 0.247261 0.000000 
-0.760911 0.180828 0.000000 
0.605964 1.513332 0.000000 
0.587834 1.455971 0.000000 
0.576354 1.396123 0.000000 
0.574971 1.341115 0.000000 
0.580375 1.298090 0.000000 
0.545179 1.275706 0.000000 
0.509957 1.243443 0.000000 
0.484198 1.207041 0.000000 
0.468721 1.175887 0.000000 
0.449386 1.157356 0.000000 
0.422962 1.144690 0.000000 
0.391379 1.125539 0.000000 
0.357154 1.101476 0.000000 
0.323730 1.073103 0.000000 
-0.582151 -0.048325 0.000000 
0.265957 0.168379 0.000000 
0.333763 0.122250 0.000000 
0.378371 0.055234 0.000000 
0.400918 -0.019161 0.000000 
0.401084 -0.082150 0.000000 
0.404345 -0.136251 0.000000 
0.432648 -0.187333 0.000000 
0.450030 -0.251774 0.000000 
0.529803 -0.098621 0.000000 
0.491947 -0.146758 0.000000 
0.453243 -0.096874 0.000000 
0.449550 -0.326098 0.000000 
0.498420 -0.052747 0.000000 
0.474171 0.007194 0.000000 
0.457863 0.081767 0.000000 
0.462195 -0.384752 0.000000 
0.478704 -0.431088 0.000000 
0.483460 -0.472054 0.000000 
0.412910 -0.410394 0.000000 
0.398390 -0.449107 0.000000 
0.404290 -0.483395 0.000000 
0.442452 -0.478836 0.000000 
0.436659 -0.443672 0.000000 
-0.727378 0.106695 0.000000 
-0.616071 0.188713 0.000000 
-0.623548 0.114433 0.000000 
-0.605779 0.033425 0.000000 
-0.706340 0.020977 0.000000 
-0.681483 -0.065285 0.000000 
-0.032304 1.899548 0.000000 
-0.128010 1.935697 0.000000 
-0.195732 2.002821 0.000000 
-0.243911 2.056735 0.000000 
-0.287859 2.104138 0.000000 
-0.335518 2.076443 0.000000 
-0.667608 -0.150666 0.000000 
-0.584906 -0.157434 0.000000 
-0.658169 -0.230674 0.000000 
-0.578442 -0.222804 0.000000 
-0.639050 -0.302117 0.000000 
-0.607982 -0.377634 0.000000 
-0.562541 -0.285503 0.000000 
-0.536184 -0.346527 0.000000 
-0.495978 -0.384488 0.000000 
-0.500680 -0.436883 0.000000 
-0.573051 -0.441336 0.000000 
-2.690892 1.672842 0.000000 
-2.684799 1.586829 0.000000 
-2.602920 1.585567 0.000000 
-2.574381 1.670560 0.000000 
-2.518122 1.605434 0.000000 
-2.424460 1.629332 0.000000 
-2.320006 1.620401 0.000000 
-2.229986 1.596783 0.000000 
-2.146342 1.555543 0.000000 
-1.455055 -0.106065 0.000000 
-1.387692 -0.025742 0.000000 
-1.339496 0.027587 0.000000 
-1.304977 0.056146 0.000000 
-1.531301 -0.040572 0.000000 
-1.604385 0.003540 0.000000 
-1.592423 0.104221 0.000000 
-1.608296 0.228184 0.000000 
-1.827918 0.426629 0.000000 
0.477873 0.195433 0.000000 
0.477147 0.230331 0.000000 
0.465631 0.264571 0.000000 
-0.587742 1.708780 0.000000 
-0.593403 1.732884 0.000000 
-0.604579 1.745540 0.000000 
-0.619289 1.751226 0.000000 
-0.639577 1.749053 0.000000 
-0.665912 1.750669 0.000000 
-0.697937 1.757656 0.000000 
-0.595692 1.655292 0.000000 
-0.726123 1.772467 0.000000 
-0.757398 1.783038 0.000000 
-0.794522 1.780462 0.000000 
-0.841416 1.777885 0.000000 
-0.894922 1.779245 0.000000 
-0.956071 1.787661 0.000000 
-1.020951 1.806582 0.000000 
-1.077937 1.834217 0.000000 
-1.120258 1.862945 0.000000 
-1.171769 1.838685 0.000000 
0.332207 0.392076 0.000000 
0.333662 0.350341 0.000000 
0.321472 0.420693 0.000000 
0.302407 0.447505 0.000000 
0.214022 0.462167 0.000000 
0.194081 0.523192 0.000000 
0.186716 0.578705 0.000000 
0.189303 0.631477 0.000000 
0.360023 0.310659 0.000000 
0.405131 0.285526 0.000000 
0.201671 0.680723 0.000000 
0.218038 0.730984 0.000000 
0.236652 0.779918 0.000000 
0.256885 0.821851 0.000000 
0.278373 0.850345 0.000000 
0.284019 0.883743 0.000000 
0.276718 0.930491 0.000000 
0.278735 0.987304 0.000000 
0.296322 1.037571 0.000000 
-1.507867 1.790443 0.000000 
-1.548116 1.765800 0.000000 
-1.598023 1.738421 0.000000 
-1.467251 1.805217 0.000000 
-1.422160 1.812500 0.000000 
-1.373311 1.819216 0.000000 
-1.322903 1.826993 0.000000 
-1.275577 1.836239 0.000000 
-1.225048 1.834839 0.000000 
-1.662214 1.714752 0.000000 
-1.732600 1.694812 0.000000 
-1.794687 1.680437 0.000000 
-1.841773 1.651249 0.000000 
-2.078405 0.718522 0.000000 
-2.079214 0.797111 0.000000 
-2.097651 0.640922 0.000000 
-2.129318 0.569183 0.000000 
-2.096743 0.877673 0.000000 
-2.169699 0.513840 0.000000 
-1.991686 0.440839 0.000000 
-1.642187 0.366395 0.000000 
-1.989898 0.273615 0.000000 
-2.064526 0.201802 0.000000 
-1.914688 0.347149 0.000000 
-2.037969 1.130226 0.000000 
-2.021377 1.014541 0.000000 
-2.055796 1.259387 0.000000 
-2.102728 1.362040 0.000000 
-2.047875 1.504343 0.000000 
0.428030 0.251074 0.000000 
0.375625 0.229838 0.000000 
0.313454 0.242939 0.000000 
0.290352 0.388973 0.000000 
0.238487 1.099891 0.000000 
0.440631 0.212966 0.000000 
0.396678 0.173189 0.000000 
0.460488 0.147269 0.000000 
0.523747 1.323381 0.000000 
-2.262588 0.286635 0.000000 
-2.220468 0.342663 0.000000 
-2.218579 0.233124 0.000000 
-2.146376 0.284974 0.000000 
-2.206503 0.168054 0.000000 
0.473879 1.284769 0.000000 
0.446488 1.232437 0.000000 
0.440978 1.188418 0.000000 
0.409581 1.180563 0.000000 
0.629179 2.009459 0.000000 
0.593839 1.976985 0.000000 
0.550362 1.932781 0.000000 
0.483841 1.892359 0.000000 
0.202470 1.033527 0.000000 
0.241245 0.885751 0.000000 
0.205152 0.860950 0.000000 
0.175878 0.812810 0.000000 
0.153326 0.754303 0.000000 
0.132079 0.693854 0.000000 
0.113278 0.629398 0.000000 
0.106000 0.561074 0.000000 
0.109640 0.491878 0.000000 
0.121648 0.421200 0.000000 
0.032483 0.331586 0.000000 
0.246820 0.414264 0.000000 
0.099619 0.279951 0.000000 
0.373127 1.165681 0.000000 
-0.307911 2.028821 0.000000 
-0.360136 2.010352 0.000000 
-0.343252 1.956006 0.000000 
-0.270247 1.964150 0.000000 
0.168337 0.276469 0.000000 
0.242346 0.266132 0.000000 
0.270369 0.335169 0.000000 
0.505525 1.391142 0.000000 
-0.689828 0.218397 0.000000 
-0.729540 0.275801 0.000000 
-0.746154 0.350274 0.000000 
-0.657668 0.366838 0.000000 
-0.661195 0.282551 0.000000 
-0.924642 0.519513 0.000000 
-1.137284 1.782877 0.000000 
-1.072920 1.738283 0.000000 
-1.248127 1.795174 0.000000 
-1.304069 1.778852 0.000000 
-1.360197 1.771191 0.000000 
-1.411221 1.767052 0.000000 
-1.453165 1.763822 0.000000 
-1.486003 1.746360 0.000000 
-1.510814 1.702891 0.000000 
-1.558800 1.658222 0.000000 
-0.995058 1.711530 0.000000 
-0.919611 1.701054 0.000000 
-0.852227 1.707986 0.000000 
-0.796966 1.724504 0.000000 
-0.752732 1.743673 0.000000 
-1.635591 1.630889 0.000000 
-1.992480 0.905591 0.000000 
-1.965104 0.795811 0.000000 
-1.974377 0.692478 0.000000 
-2.014368 0.598857 0.000000 
-2.065453 0.515670 0.000000 
-2.071492 0.362603 0.000000 
-2.131272 0.446140 0.000000 
-1.712039 1.617566 0.000000 
-1.781280 1.617516 0.000000 
-1.884796 1.587460 0.000000 
0.516332 1.807122 0.000000 
0.538779 1.735994 0.000000 
0.517174 1.465527 0.000000 
0.552532 1.527464 0.000000 
0.576896 1.569390 0.000000 
0.583356 1.606417 0.000000 
0.576083 1.643421 0.000000 
0.562288 1.685781 0.000000 