# vtk DataFile Version 3.0 
vtk output 
ASCII 
DATASET UNSTRUCTURED_GRID 
POINTS 899 float 
-3.648847 2.189216 0.000000 
-3.619410 2.148664 0.000000 
-3.578536 2.113070 0.000000 
-3.540028 2.077419 0.000000 
-3.511690 2.045224 0.000000 
-3.481362 2.015365 0.000000 
-3.451569 1.974692 0.000000 
0.772356 2.091730 0.000000 
0.774615 2.065609 0.000000 
0.769962 2.036855 0.000000 
-3.399514 1.944416 0.000000 
0.413960 -0.700426 0.000000 
0.455573 -0.696123 0.000000 
-1.762619 -0.600322 0.000000 
-1.783389 -0.564925 0.000000 
-1.714437 -0.536136 0.000000 
0.732567 2.086055 0.000000 
0.698438 2.072219 0.000000 
0.491831 -0.681921 0.000000 
0.519501 -0.651516 0.000000 
0.530556 -0.611069 0.000000 
0.532354 -0.565265 0.000000 
0.531774 -0.514758 0.000000 
-3.460923 1.882683 0.000000 
0.663989 2.050273 0.000000 
0.631675 2.022878 0.000000 
0.601833 1.998822 0.000000 
0.569607 1.975565 0.000000 
0.534059 1.953487 0.000000 
0.492599 1.932347 0.000000 
0.444403 1.913682 0.000000 
0.762807 1.995881 0.000000 
-1.708694 -0.501754 0.000000 
-1.726386 -0.461490 0.000000 
-1.761257 -0.437469 0.000000 
-1.812853 -0.429621 0.000000 
-0.690422 -0.681956 0.000000 
-0.624256 -0.699884 0.000000 
-0.561079 -0.708066 0.000000 
-0.500739 -0.709521 0.000000 
-0.445387 -0.709583 0.000000 
0.532260 -0.455674 0.000000 
0.536647 -0.386341 0.000000 
-1.881389 -0.417120 0.000000 
-0.389303 -0.707309 0.000000 
-0.340338 -0.692024 0.000000 
-0.344339 -0.637889 0.000000 
-0.358558 -0.585349 0.000000 
-0.381750 -0.544438 0.000000 
-0.406193 -0.510263 0.000000 
-0.417316 -0.478765 0.000000 
-0.428320 -0.444508 0.000000 
-0.436973 -0.400244 0.000000 
-0.444212 -0.344701 0.000000 
-0.452662 -0.285843 0.000000 
-0.468602 -0.228944 0.000000 
0.553166 -0.321626 0.000000 
0.573193 -0.263955 0.000000 
0.574450 -0.212215 0.000000 
0.561087 -0.161895 0.000000 
0.550432 -0.106572 0.000000 
0.748903 1.942563 0.000000 
0.730940 1.886071 0.000000 
0.715868 1.839911 0.000000 
0.699446 1.803783 0.000000 
0.684888 1.762794 0.000000 
0.675900 1.716589 0.000000 
0.669871 1.667030 0.000000 
0.664455 1.619173 0.000000 
0.668163 1.572753 0.000000 
0.672091 1.522920 0.000000 
0.674558 1.474896 0.000000 
0.673045 1.424817 0.000000 
0.386491 1.904002 0.000000 
0.664855 1.366078 0.000000 
0.652298 1.308000 0.000000 
0.638456 1.254350 0.000000 
0.623121 1.204840 0.000000 
0.616008 1.161813 0.000000 
0.600787 1.126871 0.000000 
0.571289 1.097422 0.000000 
0.539016 1.066261 0.000000 
0.513857 1.037362 0.000000 
0.493343 1.011127 0.000000 
0.469109 0.993314 0.000000 
0.444920 0.976870 0.000000 
0.415324 0.955904 0.000000 
0.383540 0.931152 0.000000 
0.356179 0.901819 0.000000 
0.343879 0.862920 0.000000 
0.337476 0.817399 0.000000 
0.332404 0.772113 0.000000 
0.328512 0.732423 0.000000 
0.319594 0.696343 0.000000 
0.304149 0.662932 0.000000 
0.290502 0.622542 0.000000 
0.275896 0.574679 0.000000 
0.261905 0.532710 0.000000 
0.250150 0.499115 0.000000 
0.250896 0.461310 0.000000 
0.259587 0.418707 0.000000 
0.284617 0.375934 0.000000 
0.315237 0.346272 0.000000 
0.340022 0.326836 0.000000 
0.354380 0.300987 0.000000 
0.368685 0.273844 0.000000 
0.385568 0.247448 0.000000 
0.415372 0.222651 0.000000 
0.447119 0.190938 0.000000 
0.477633 0.163022 0.000000 
0.503078 0.135085 0.000000 
0.518876 0.097031 0.000000 
0.527127 0.061063 0.000000 
0.534187 0.016517 0.000000 
0.543185 -0.044263 0.000000 
0.322519 1.892946 0.000000 
0.263849 1.879830 0.000000 
0.208223 1.874410 0.000000 
0.150441 1.870581 0.000000 
-0.687392 -0.608889 0.000000 
-3.327058 1.918184 0.000000 
-3.276080 1.871763 0.000000 
-3.224941 1.838176 0.000000 
-3.181728 1.809017 0.000000 
-3.135074 1.772087 0.000000 
-3.078123 1.747794 0.000000 
-1.944260 -0.372242 0.000000 
0.083204 1.875737 0.000000 
0.005786 1.870385 0.000000 
-0.071812 1.879623 0.000000 
-0.135705 1.909165 0.000000 
-0.182391 1.950770 0.000000 
-1.999041 -0.301274 0.000000 
-1.843230 -0.575782 0.000000 
-0.491126 -0.164984 0.000000 
-0.512312 -0.091741 0.000000 
-0.526535 -0.028908 0.000000 
-0.527935 0.033214 0.000000 
-0.524207 0.100383 0.000000 
-0.505864 0.157515 0.000000 
-0.468875 0.206727 0.000000 
-0.410369 0.235972 0.000000 
-0.354013 0.257089 0.000000 
-0.301050 0.267035 0.000000 
-0.255730 0.267807 0.000000 
-0.695595 -0.530594 0.000000 
-0.726457 -0.453712 0.000000 
-0.747352 -0.384257 0.000000 
-3.396487 1.861049 0.000000 
-3.344056 1.781661 0.000000 
-3.294256 1.738260 0.000000 
-3.248246 1.699936 0.000000 
-3.196818 1.660582 0.000000 
-3.159669 1.609272 0.000000 
-3.113281 1.562567 0.000000 
-3.056061 1.543004 0.000000 
-2.996684 1.520379 0.000000 
-2.933161 1.490763 0.000000 
-2.879064 1.454620 0.000000 
-2.813006 1.429835 0.000000 
-2.751664 1.406785 0.000000 
-2.686782 1.377462 0.000000 
-1.922020 -0.572975 0.000000 
-1.999705 -0.574474 0.000000 
-2.060018 -0.552870 0.000000 
-2.032615 -0.217883 0.000000 
-2.048550 -0.132161 0.000000 
-2.029059 -0.066268 0.000000 
-2.105228 -0.495812 0.000000 
-2.154373 -0.428218 0.000000 
-2.203584 -0.373594 0.000000 
-2.237020 -0.312158 0.000000 
-2.250593 -0.246866 0.000000 
-2.270119 -0.175082 0.000000 
-2.297898 -0.104771 0.000000 
-2.327118 -0.043192 0.000000 
-2.346747 0.010778 0.000000 
-2.362840 0.063888 0.000000 
-2.374561 0.114932 0.000000 
-2.373128 0.166908 0.000000 
-2.334174 0.233498 0.000000 
-2.331842 0.274116 0.000000 
-2.284565 0.282875 0.000000 
-0.236368 2.000305 0.000000 
-0.299146 2.044132 0.000000 
-0.346614 2.064057 0.000000 
-0.382877 2.027554 0.000000 
-0.412447 1.998505 0.000000 
-0.433989 1.958217 0.000000 
-0.446472 1.915251 0.000000 
-0.451628 1.875932 0.000000 
-0.451047 1.837470 0.000000 
-0.449242 1.801467 0.000000 
-0.453345 1.769577 0.000000 
-0.460251 1.741884 0.000000 
-0.470304 1.713098 0.000000 
-0.475290 1.683608 0.000000 
-0.478341 1.653823 0.000000 
-0.479442 1.617087 0.000000 
-2.609147 1.363672 0.000000 
-2.517189 1.358174 0.000000 
-2.434013 1.358511 0.000000 
-2.352624 1.348479 0.000000 
-2.274410 1.329108 0.000000 
-2.204499 1.294460 0.000000 
-2.180326 1.225577 0.000000 
-2.178559 1.137041 0.000000 
-2.168273 1.047012 0.000000 
-2.159086 0.948948 0.000000 
-2.144575 0.859789 0.000000 
-2.163040 0.784572 0.000000 
-2.183612 0.710480 0.000000 
-2.172907 0.645922 0.000000 
-2.161614 0.583167 0.000000 
-2.169833 0.523055 0.000000 
-2.188987 0.461302 0.000000 
-2.218663 0.410056 0.000000 
-2.229021 0.354183 0.000000 
-2.997130 1.730998 0.000000 
-3.021908 1.632860 0.000000 
-2.902046 1.699490 0.000000 
-0.770600 -0.301663 0.000000 
-0.790096 -0.210004 0.000000 
-0.811857 -0.129297 0.000000 
-0.835807 -0.050733 0.000000 
-0.859157 0.019395 0.000000 
-0.881226 0.079447 0.000000 
-0.903169 0.138797 0.000000 
-0.928196 0.202841 0.000000 
-2.785442 1.666937 0.000000 
-2.944278 1.606195 0.000000 
-2.855014 1.569049 0.000000 
-2.796189 1.508969 0.000000 
-2.651235 1.652191 0.000000 
-2.517962 1.641844 0.000000 
-2.394240 1.632681 0.000000 
-2.275192 1.624685 0.000000 
-2.180847 1.600123 0.000000 
-2.099904 1.573644 0.000000 
-2.018420 1.542404 0.000000 
-1.945469 1.546702 0.000000 
-1.885190 1.580042 0.000000 
-1.829736 1.600610 0.000000 
-1.760875 1.625842 0.000000 
-1.680504 1.654266 0.000000 
-1.617798 1.672583 0.000000 
-1.570169 1.687107 0.000000 
-1.527149 1.701297 0.000000 
-1.482581 1.713426 0.000000 
-1.433927 1.719966 0.000000 
-1.386311 1.727881 0.000000 
-1.337319 1.736612 0.000000 
-1.286363 1.743691 0.000000 
-1.235962 1.744409 0.000000 
-1.188452 1.749222 0.000000 
-1.140860 1.758673 0.000000 
-1.091558 1.757982 0.000000 
-1.038962 1.746963 0.000000 
-0.982519 1.727965 0.000000 
-0.922315 1.711223 0.000000 
-0.869867 1.700898 0.000000 
-0.827747 1.694409 0.000000 
-0.785371 1.689497 0.000000 
-0.748025 1.679760 0.000000 
-0.712781 1.669493 0.000000 
-0.681690 1.655561 0.000000 
-0.657198 1.644427 0.000000 
-0.633895 1.637763 0.000000 
-0.612002 1.633308 0.000000 
-0.594184 1.626095 0.000000 
-0.577381 1.616645 0.000000 
-0.560109 1.601362 0.000000 
-0.540091 1.568907 0.000000 
-1.243914 -0.069938 0.000000 
-1.232782 -0.056221 0.000000 
-1.257376 -0.084292 0.000000 
-1.224378 -0.037522 0.000000 
-1.271472 -0.103638 0.000000 
-1.215702 -0.015525 0.000000 
-1.204660 0.010532 0.000000 
-1.290143 -0.131379 0.000000 
-1.314447 -0.176419 0.000000 
-1.190204 0.040838 0.000000 
-1.318041 -0.229773 0.000000 
-1.171655 0.074994 0.000000 
-1.149359 0.111309 0.000000 
-1.123094 0.149557 0.000000 
-1.284246 -0.279753 0.000000 
-1.239750 -0.330479 0.000000 
-1.083297 0.193548 0.000000 
-1.028190 0.225220 0.000000 
-1.181630 -0.372836 0.000000 
-1.112789 -0.404263 0.000000 
-1.040643 -0.416433 0.000000 
-0.978118 -0.419520 0.000000 
-0.927392 -0.432546 0.000000 
-0.889718 -0.471680 0.000000 
-0.873564 -0.528231 0.000000 
-0.920771 -0.560425 0.000000 
-0.935346 -0.493156 0.000000 
-0.991249 -0.570000 0.000000 
-1.088918 -0.567272 0.000000 
-1.067426 -0.487620 0.000000 
-1.189474 -0.559709 0.000000 
-1.147229 -0.474953 0.000000 
-1.266509 -0.536419 0.000000 
-1.219913 -0.448776 0.000000 
-1.335307 -0.500592 0.000000 
-1.284456 -0.410777 0.000000 
-1.402357 -0.456688 0.000000 
-1.341444 -0.362976 0.000000 
-1.466758 -0.404013 0.000000 
-1.539152 -0.343214 0.000000 
-1.393011 -0.305045 0.000000 
-1.612839 -0.272942 0.000000 
-1.665320 -0.215364 0.000000 
-1.691220 -0.150538 0.000000 
-1.704696 -0.065044 0.000000 
-1.850073 0.101825 0.000000 
-1.911042 0.046001 0.000000 
-1.969645 -0.010836 0.000000 
-1.726970 0.041367 0.000000 
-0.222881 0.249197 0.000000 
-0.195707 0.221614 0.000000 
-0.164205 0.184666 0.000000 
-0.127520 0.151968 0.000000 
-0.095686 0.122477 0.000000 
-0.059027 0.093999 0.000000 
-0.018954 0.064015 0.000000 
0.030296 0.032745 0.000000 
0.086536 0.012219 0.000000 
0.141893 -0.006513 0.000000 
0.202102 -0.035792 0.000000 
0.263408 -0.075709 0.000000 
0.311661 -0.125696 0.000000 
0.333954 -0.185319 0.000000 
0.338621 -0.245769 0.000000 
0.341530 -0.299707 0.000000 
0.353165 -0.349896 0.000000 
0.365710 -0.408319 0.000000 
0.363543 -0.477847 0.000000 
[...]
POINT_DATA 899 
VECTORS X_GC float 
-3.648847 2.189216 0.000000 
-3.619410 2.148664 0.000000 
-3.578536 2.113070 0.000000 
-3.540028 2.077419 0.000000 
-3.511690 2.045224 0.000000 
-3.481362 2.015365 0.000000 
-3.451569 1.974692 0.000000 
0.772356 2.091730 0.000000 
0.774615 2.065609 0.000000 
0.769962 2.036855 0.000000 
-3.399514 1.944416 0.000000 
0.413960 -0.700426 0.000000 
0.455573 -0.696123 0.000000 
-1.762619 -0.600322 0.000000 
-1.783389 -0.564925 0.000000 
-1.714437 -0.536136 0.000000 
0.732567 2.086055 0.000000 
0.698438 2.072219 0.000000 
0.491831 -0.681921 0.000000 
0.519501 -0.651516 0.000000 
0.530556 -0.611069 0.000000 
0.532354 -0.565265 0.000000 
0.531774 -0.514758 0.000000 
-3.460923 1.882683 0.000000 
0.663989 2.050273 0.000000 
0.631675 2.022878 0.000000 
0.601833 1.998822 0.000000 
0.569607 1.975565 0.000000 
0.534059 1.953487 0.000000 
0.492599 1.932347 0.000000 
0.444403 1.913682 0.000000 
0.762807 1.995881 0.000000 
-1.708694 -0.501754 0.000000 
-1.726386 -0.461490 0.000000 
-1.761257 -0.437469 0.000000 
-1.812853 -0.429621 0.000000 
-0.690422 -0.681956 0.000000 
-0.624256 -0.699884 0.000000 
-0.561079 -0.708066 0.000000 
-0.500739 -0.709521 0.000000 
-0.445387 -0.709583 0.000000 
0.532260 -0.455674 0.000000 
0.536647 -0.386341 0.000000 
-1.881389 -0.417120 0.000000 
-0.389303 -0.707309 0.000000 
-0.340338 -0.692024 0.000000 
-0.344339 -0.637889 0.000000 
-0.358558 -0.585349 0.000000 
-0.381750 -0.544438 0.000000 
-0.406193 -0.510263 0.000000 
-0.417316 -0.478765 0.000000 
-0.428320 -0.444508 0.000000 
-0.436973 -0.400244 0.000000 
-0.444212 -0.344701 0.000000 
-0.452662 -0.285843 0.000000 
-0.468602 -0.228944 0.000000 
0.553166 -0.321626 0.000000 
0.573193 -0.263955 0.000000 
0.574450 -0.212215 0.000000 
0.561087 -0.161895 0.000000 
0.550432 -0.106572 0.000000 
0.748903 1.942563 0.000000 
0.730940 1.886071 0.000000 
0.715868 1.839911 0.000000 
0.699446 1.803783 0.000000 
0.684888 1.762794 0.000000 
0.675900 1.716589 0.000000 
0.669871 1.667030 0.000000 
0.664455 1.619173 0.000000 
0.668163 1.572753 0.000000 
0.672091 1.522920 0.000000 
0.674558 1.474896 0.000000 
0.673045 1.424817 0.000000 
0.386491 1.904002 0.000000 
0.664855 1.366078 0.000000 
0.652298 1.308000 0.000000 
0.638456 1.254350 0.000000 
0.623121 1.204840 0.000000 
0.616008 1.161813 0.000000 
0.600787 1.126871 0.000000 
0.571289 1.097422 0.000000 
0.539016 1.066261 0.000000 
0.513857 1.037362 0.000000 
0.493343 1.011127 0.000000 
0.469109 0.993314 0.000000 
0.444920 0.976870 0.000000 
0.415324 0.955904 0.000000 
0.383540 0.931152 0.000000 
0.356179 0.901819 0.000000 
0.343879 0.862920 0.000000 
0.337476 0.817399 0.000000 
0.332404 0.772113 0.000000 
0.328512 0.732423 0.000000 
0.319594 0.696343 0.000000 
0.304149 0.662932 0.000000 
0.290502 0.622542 0.000000 
0.275896 0.574679 0.000000 
0.261905 0.532710 0.000000 
0.250150 0.499115 0.000000 
0.250896 0.461310 0.000000 
0.259587 0.418707 0.000000 
0.284617 0.375934 0.000000 
0.315237 0.346272 0.000000 
0.340022 0.326836 0.000000 
0.354380 0.300987 0.000000 
0.368685 0.273844 0.000000 
0.385568 0.247448 0.000000 
0.415372 0.222651 0.000000 
0.447119 0.190938 0.000000 
0.477633 0.163022 0.000000 
0.503078 0.135085 0.000000 
0.518876 0.097031 0.000000 
0.527127 0.061063 0.000000 
0.534187 0.016517 0.000000 
0.543185 -0.044263 0.000000 
0.322519 1.892946 0.000000 
0.263849 1.879830 0.000000 
0.208223 1.874410 0.000000 
0.150441 1.870581 0.000000 
-0.687392 -0.608889 0.000000 
-3.327058 1.918184 0.000000 
-3.276080 1.871763 0.000000 
-3.224941 1.838176 0.000000 
-3.181728 1.809017 0.000000 
-3.135074 1.772087 0.000000 
-3.078123 1.747794 0.000000 
-1.944260 -0.372242 0.000000 
0.083204 1.875737 0.000000 
0.005786 1.870385 0.000000 
-0.071812 1.879623 0.000000 
-0.135705 1.909165 0.000000 
-0.182391 1.950770 0.000000 
-1.999041 -0.301274 0.000000 
-1.843230 -0.575782 0.000000 
-0.491126 -0.164984 0.000000 
-0.512312 -0.091741 0.000000 
-0.526535 -0.028908 0.000000 
-0.527935 0.033214 0.000000 
-0.524207 0.100383 0.000000 
-0.505864 0.157515 0.000000 
-0.468875 0.206727 0.000000 
-0.410369 0.235972 0.000000 
-0.354013 0.257089 0.000000 
-0.301050 0.267035 0.000000 
-0.255730 0.267807 0.000000 
-0.695595 -0.530594 0.000000 
-0.726457 -0.453712 0.000000 
-0.747352 -0.384257 0.000000 
-3.396487 1.861049 0.000000 
-3.344056 1.781661 0.000000 
-3.294256 1.738260 0.000000 
-3.248246 1.699936 0.000000 
-3.196818 1.660582 0.000000 
-3.159669 1.609272 0.000000 
-3.113281 1.562567 0.000000 
-3.056061 1.543004 0.000000 
-2.996684 1.520379 0.000000 
-2.933161 1.490763 0.000000 
-2.879064 1.454620 0.000000 
-2.813006 1.429835 0.000000 
-2.751664 1.406785 0.000000 
-2.686782 1.377462 0.000000 
-1.922020 -0.572975 0.000000 
-1.999705 -0.574474 0.000000 
-2.060018 -0.552870 0.000000 
-2.032615 -0.217883 0.000000 
-2.048550 -0.132161 0.000000 
-2.029059 -0.066268 0.000000 
-2.105228 -0.495812 0.000000 
-2.154373 -0.428218 0.000000 
-2.203584 -0.373594 0.000000 
-2.237020 -0.312158 0.000000 
-2.250593 -0.246866 0.000000 
-2.270119 -0.175082 0.000000 
-2.297898 -0.104771 0.000000 
-2.327118 -0.043192 0.000000 
-2.346747 0.010778 0.000000 
-2.362840 0.063888 0.000000 
-2.374561 0.114932 0.000000 
-2.373128 0.166908 0.000000 
-2.334174 0.233498 0.000000 
-2.331842 0.274116 0.000000 
-2.284565 0.282875 0.000000 
-0.236368 2.000305 0.000000 
-0.299146 2.044132 0.000000 
-0.346614 2.064057 0.000000 
-0.382877 2.027554 0.000000 
-0.412447 1.998505 0.000000 
-0.433989 1.958217 0.000000 
-0.446472 1.915251 0.000000 
-0.451628 1.875932 0.000000 
-0.451047 1.837470 0.000000 
-0.449242 1.801467 0.000000 
-0.453345 1.769577 0.000000 
-0.460251 1.741884 0.000000 
-0.470304 1.713098 0.000000 
-0.475290 1.683608 0.000000 
-0.478341 1.653823 0.000000 
-0.479442 1.617087 0.000000 
-2.609147 1.363672 0.000000 
-2.517189 1.358174 0.000000 
-2.434013 1.358511 0.000000 
-2.352624 1.348479 0.000000 
-2.274410 1.329108 0.000000 
-2.204499 1.294460 0.000000 
-2.180326 1.225577 0.000000 
-2.178559 1.137041 0.000000 
-2.168273 1.047012 0.000000 
-2.159086 0.948948 0.000000 
-2.144575 0.859789 0.000000 
-2.163040 0.784572 0.000000 
-2.183612 0.710480 0.000000 
-2.172907 0.645922 0.000000 
-2.161614 0.583167 0.000000 
-2.169833 0.523055 0.000000 
-2.188987 0.461302 0.000000 
-2.218663 0.410056 0.000000 
-2.229021 0.354183 0.000000 
-2.997130 1.730998 0.000000 
-3.021908 1.632860 0.000000 
-2.902046 1.699490 0.000000 
-0.770600 -0.301663 0.000000 
-0.790096 -0.210004 0.000000 
-0.811857 -0.129297 0.000000 
-0.835807 -0.050733 0.000000 
-0.859157 0.019395 0.000000 
-0.881226 0.079447 0.000000 
-0.903169 0.138797 0.000000 
-0.928196 0.202841 0.000000 
-2.785442 1.666937 0.000000 
-2.944278 1.606195 0.000000 
-2.855014 1.569049 0.000000 
-2.796189 1.508969 0.000000 
-2.651235 1.652191 0.000000 
-2.517962 1.641844 0.000000 
-2.394240 1.632681 0.000000 
-2.275192 1.624685 0.000000 
-2.180847 1.600123 0.000000 
-2.099904 1.573644 0.000000 
-2.018420 1.542404 0.000000 
-1.945469 1.546702 0.000000 
-1.885190 1.580042 0.000000 
-1.829736 1.600610 0.000000 
-1.760875 1.625842 0.000000 
-1.680504 1.654266 0.000000 
-1.617798 1.672583 0.000000 
-1.570169 1.687107 0.000000 
-1.527149 1.701297 0.000000 
-1.482581 1.713426 0.000000 
-1.433927 1.719966 0.000000 
-1.386311 1.727881 0.000000 
-1.337319 1.736612 0.000000 
-1.286363 1.743691 0.000000 
-1.235962 1.744409 0.000000 
-1.188452 1.749222 0.000000 
-1.140860 1.758673 0.000000 
-1.091558 1.757982 0.000000 
-1.038962 1.746963 0.000000 
-0.982519 1.727965 0.000000 
-0.922315 1.711223 0.000000 
-0.869867 1.700898 0.000000 
-0.827747 1.694409 0.000000 
-0.785371 1.689497 0.000000 
-0.748025 1.679760 0.000000 
-0.712781 1.669493 0.000000 
-0.681690 1.655561 0.000000 
-0.657198 1.644427 0.000000 
-0.633895 1.637763 0.000000 
-0.612002 1.633308 0.000000 
-0.594184 1.626095 0.000000 
-0.577381 1.616645 0.000000 
-0.560109 1.601362 0.000000 
-0.540091 1.568907 0.000000 
-1.243914 -0.069938 0.000000 
-1.232782 -0.056221 0.000000 
-1.257376 -0.084292 0.000000 
-1.224378 -0.037522 0.000000 
-1.271472 -0.103638 0.000000 
-1.215702 -0.015525 0.000000 
-1.204660 0.010532 0.000000 
-1.290143 -0.131379 0.000000 
-1.314447 -0.176419 0.000000 
-1.190204 0.040838 0.000000 
-1.318041 -0.229773 0.000000 
-1.171655 0.074994 0.000000 
-1.149359 0.111309 0.000000 
-1.123094 0.149557 0.000000 
-1.284246 -0.279753 0.000000 
-1.239750 -0.330479 0.000000 
-1.083297 0.193548 0.000000 
-1.028190 0.225220 0.000000 
-1.181630 -0.372836 0.000000 
-1.112789 -0.404263 0.000000 
-1.040643 -0.416433 0.000000 
-0.978118 -0.419520 0.000000 
-0.927392 -0.432546 0.000000 
-0.889718 -0.471680 0.000000 
-0.873564 -0.528231 0.000000 
-0.920771 -0.560425 0.000000 
-0.935346 -0.493156 0.000000 
-0.991249 -0.570000 0.000000 
-1.088918 -0.567272 0.000000 
-1.067426 -0.487620 0.000000 
-1.189474 -0.559709 0.000000 
-1.147229 -0.474953 0.000000 
-1.266509 -0.536419 0.000000 
-1.219913 -0.448776 0.000000 
-1.335307 -0.500592 0.000000 
-1.284456 -0.410777 0.000000 
-1.402357 -0.456688 0.000000 
-1.341444 -0.362976 0.000000 
-1.466758 -0.404013 0.000000 
-1.539152 -0.343214 0.000000 
-1.393011 -0.305045 0.000000 
-1.612839 -0.272942 0.000000 
-1.665320 -0.215364 0.000000 
-1.691220 -0.150538 0.000000 
-1.704696 -0.065044 0.000000 
-1.850073 0.101825 0.000000 
-1.911042 0.046001 0.000000 
-1.969645 -0.010836 0.000000 
-1.726970 0.041367 0.000000 
-0.222881 0.249197 0.000000 
-0.195707 0.221614 0.000000 
-0.164205 0.184666 0.000000 
-0.127520 0.151968 0.000000 
-0.095686 0.122477 0.000000 
-0.059027 0.093999 0.000000 
-0.018954 0.064015 0.000000 
0.030296 0.032745 0.000000 
0.086536 0.012219 0.000000 
0.141893 -0.006513 0.000000 
0.202102 -0.035792 0.000000 
0.263408 -0.075709 0.000000 
0.311661 -0.125696 0.000000 
0.333954 -0.185319 0.000000 
0.338621 -0.245769 0.000000 
0.341530 -0.299707 0.000000 
0.353165 -0.349896 0.000000 
0.365710 -0.408319 0.000000 
0.363543 -0.477847 0.000000 
0.357353 -0.539962 0.000000 
0.351188 -0.590705 0.000000 
0.363842 -0.637733 0.000000 
-1.737069 -0.504384 0.000000 
-0.199590 0.301814 0.000000 
-0.156305 0.271898 0.000000 
-0.462327 1.537854 0.000000 
0.741313 2.060428 0.000000 
0.482415 -0.648504 0.000000 
0.446104 -0.656400 0.000000 
0.403556 -0.662054 0.000000 
-0.104001 0.243833 0.000000 
-0.514998 1.469908 0.000000 
-0.059937 0.209428 0.000000 
0.738519 2.035163 0.000000 
0.714572 2.047464 0.000000 
-0.249752 0.328638 0.000000 
-0.036232 0.165630 0.000000 
0.000772 0.137798 0.000000 
0.035161 0.112153 0.000000 
-1.776537 -0.503825 0.000000 
-1.836238 -0.499641 0.000000 
-0.309416 0.342738 0.000000 
-0.378944 0.340473 0.000000 
-2.292732 0.220062 0.000000 
-2.315166 0.170071 0.000000 
-2.314418 0.122514 0.000000 
-2.293418 0.076127 0.000000 
-2.279687 0.026248 0.000000 
-2.253462 -0.021017 0.000000 
0.075120 0.084410 0.000000 
0.131113 0.071802 0.000000 
-0.977004 0.273786 0.000000 
-0.860050 0.263620 0.000000 
-1.912142 -0.491584 0.000000 
-1.989966 -0.500365 0.000000 
-2.023752 -0.432823 0.000000 
-2.082175 -0.361562 0.000000 
0.723889 2.003650 0.000000 
0.691466 2.022493 0.000000 
0.665980 1.989846 0.000000 
0.704783 1.962578 0.000000 
0.637970 1.951788 0.000000 
0.681732 1.915370 0.000000 
0.670916 1.869194 0.000000 
0.602858 1.920120 0.000000 
0.659584 1.828771 0.000000 
0.560783 1.893749 0.000000 
0.636111 1.792696 0.000000 
0.607495 1.742905 0.000000 
0.595324 1.679425 0.000000 
0.604052 1.614751 0.000000 
0.514160 1.864346 0.000000 
0.453857 1.836901 0.000000 
0.392525 1.834922 0.000000 
0.334098 1.833394 0.000000 
0.278675 1.814640 0.000000 
0.217273 1.796565 0.000000 
0.149449 1.779209 0.000000 
0.614128 1.562476 0.000000 
0.621313 1.514896 0.000000 
0.624262 1.470017 0.000000 
-2.197766 -0.074206 0.000000 
-2.158682 -0.149129 0.000000 
-2.124695 -0.014876 0.000000 
-2.150589 -0.315256 0.000000 
-2.141926 -0.237710 0.000000 
-0.393439 -0.654270 0.000000 
-0.412631 -0.610227 0.000000 
-0.436983 -0.569623 0.000000 
-0.445953 -0.526204 0.000000 
-0.458251 -0.493378 0.000000 
-0.479726 -0.458611 0.000000 
-0.496934 -0.409881 0.000000 
-0.509002 -0.354797 0.000000 
-0.517157 -0.300466 0.000000 
-0.545309 -0.249191 0.000000 
-0.442273 -0.651665 0.000000 
-0.496002 -0.642147 0.000000 
-0.557668 -0.644254 0.000000 
-0.618975 -0.628774 0.000000 
-0.334659 2.002245 0.000000 
-0.367985 1.972527 0.000000 
-0.385153 1.936101 0.000000 
-0.396797 1.902234 0.000000 
-0.406285 1.866712 0.000000 
-0.402558 1.827579 0.000000 
-0.406645 1.789136 0.000000 
-0.418378 1.756721 0.000000 
-0.428059 1.727596 0.000000 
-0.435849 1.698048 0.000000 
-0.442335 1.668014 0.000000 
-0.445406 1.634948 0.000000 
-0.444483 1.589232 0.000000 
0.619822 1.424285 0.000000 
-1.077870 0.320850 0.000000 
-1.149036 0.278891 0.000000 
-1.174735 0.204048 0.000000 
-1.192231 0.152325 0.000000 
-1.210811 0.110549 0.000000 
-1.228352 0.071209 0.000000 
-1.238869 0.033229 0.000000 
-1.244643 0.001732 0.000000 
-1.248534 -0.023169 0.000000 
-1.252336 -0.042457 0.000000 
-1.262323 -0.055709 0.000000 
-1.280319 -0.066625 0.000000 
-0.451814 0.317813 0.000000 
-0.526928 0.274291 0.000000 
0.194935 0.054810 0.000000 
0.069048 1.765110 0.000000 
-0.574175 0.203607 0.000000 
-0.593607 0.122504 0.000000 
-1.764101 0.162189 0.000000 
-2.210991 0.281045 0.000000 
-0.825996 0.178343 0.000000 
-0.799223 0.107263 0.000000 
-0.760911 0.040830 0.000000 
0.605964 1.373333 0.000000 
0.587834 1.315973 0.000000 
0.576354 1.256125 0.000000 
0.574971 1.201116 0.000000 
0.580375 1.158091 0.000000 
0.545179 1.135707 0.000000 
0.509957 1.103445 0.000000 
0.484198 1.067042 0.000000 
0.468721 1.035888 0.000000 
0.449386 1.017357 0.000000 
0.422962 1.004692 0.000000 
0.391379 0.985541 0.000000 
0.357154 0.961477 0.000000 
0.323730 0.933105 0.000000 
-0.582151 -0.188323 0.000000 
0.265957 0.028380 0.000000 
0.333763 -0.017749 0.000000 
0.378371 -0.084765 0.000000 
0.400918 -0.159160 0.000000 
0.401084 -0.222148 0.000000 
0.404345 -0.276249 0.000000 
0.432648 -0.327331 0.000000 
0.450030 -0.391772 0.000000 
0.529803 -0.238619 0.000000 
0.491947 -0.286756 0.000000 
0.453243 -0.236873 0.000000 
0.449550 -0.466096 0.000000 
0.498420 -0.192746 0.000000 
0.474171 -0.132804 0.000000 
0.457863 -0.058231 0.000000 
0.462195 -0.524751 0.000000 
0.478704 -0.571086 0.000000 
0.483460 -0.612052 0.000000 
0.412910 -0.550392 0.000000 
0.398390 -0.589106 0.000000 
0.404290 -0.623393 0.000000 
0.442452 -0.618835 0.000000 
0.436659 -0.583670 0.000000 
-0.727378 -0.033303 0.000000 
-0.616071 0.048715 0.000000 
-0.623548 -0.025566 0.000000 
-0.605779 -0.106574 0.000000 
-0.706340 -0.119022 0.000000 
-0.681483 -0.205283 0.000000 
-0.032304 1.759549 0.000000 
-0.128010 1.795699 0.000000 
-0.195732 1.862822 0.000000 
-0.243911 1.916736 0.000000 
-0.287859 1.964140 0.000000 
-0.335518 1.936444 0.000000 
-0.667608 -0.290664 0.000000 
-0.584906 -0.297432 0.000000 
-0.658169 -0.370673 0.000000 
-0.578442 -0.362803 0.000000 
-0.639050 -0.442115 0.000000 
-0.607982 -0.517632 0.000000 
-0.562541 -0.425502 0.000000 
-0.536184 -0.486525 0.000000 
-0.495978 -0.524487 0.000000 
-0.500680 -0.576881 0.000000 
-0.573051 -0.581334 0.000000 
-2.690892 1.532843 0.000000 
-2.684799 1.446831 0.000000 
-2.602920 1.445569 0.000000 
-2.574381 1.530562 0.000000 
-2.518122 1.465436 0.000000 
-2.424460 1.489334 0.000000 
-2.320006 1.480403 0.000000 
-2.229986 1.456785 0.000000 
-2.146342 1.415545 0.000000 
-1.455055 -0.246064 0.000000 
-1.387692 -0.165740 0.000000 
-1.339496 -0.112412 0.000000 
-1.304977 -0.083852 0.000000 
-1.531301 -0.180571 0.000000 
-1.604385 -0.136458 0.000000 
-1.592423 -0.035778 0.000000 
-1.608296 0.088185 0.000000 
-1.827918 0.286631 0.000000 
0.477873 0.055434 0.000000 
0.477147 0.090333 0.000000 
0.465631 0.124573 0.000000 
-0.587742 1.568782 0.000000 
-0.593403 1.592886 0.000000 
-0.604579 1.605541 0.000000 
-0.619289 1.611228 0.000000 
-0.639577 1.609054 0.000000 
-0.665912 1.610670 0.000000 
-0.697937 1.617657 0.000000 
-0.595692 1.515294 0.000000 
-0.726123 1.632469 0.000000 
-0.757398 1.643039 0.000000 
-0.794522 1.640464 0.000000 
-0.841416 1.637886 0.000000 
-0.894922 1.639247 0.000000 
-0.956071 1.647662 0.000000 
-1.020951 1.666584 0.000000 
-1.077937 1.694219 0.000000 
-1.120258 1.722947 0.000000 
-1.171769 1.698686 0.000000 
0.332207 0.252078 0.000000 
0.333662 0.210342 0.000000 
0.321472 0.280694 0.000000 
0.302407 0.307507 0.000000 
0.214022 0.322169 0.000000 
0.194081 0.383193 0.000000 
0.186716 0.438706 0.000000 
0.189303 0.491478 0.000000 
0.360023 0.170661 0.000000 
0.405131 0.145527 0.000000 
0.201671 0.540724 0.000000 
0.218038 0.590985 0.000000 
0.236652 0.639919 0.000000 
0.256885 0.681853 0.000000 
0.278373 0.710347 0.000000 
0.284019 0.743745 0.000000 
0.276718 0.790492 0.000000 
0.278735 0.847305 0.000000 
0.296322 0.897573 0.000000 
-1.507867 1.650444 0.000000 
-1.548116 1.625802 0.000000 
-1.598023 1.598423 0.000000 
-1.467251 1.665218 0.000000 
-1.422160 1.672501 0.000000 
-1.373311 1.679218 0.000000 
-1.322903 1.686994 0.000000 
-1.275577 1.696240 0.000000 
-1.225048 1.694841 0.000000 
-1.662214 1.574753 0.000000 
-1.732600 1.554813 0.000000 
-1.794687 1.540438 0.000000 
-1.841773 1.511251 0.000000 
-2.078405 0.578523 0.000000 
-2.079214 0.657113 0.000000 
-2.097651 0.500923 0.000000 
-2.129318 0.429184 0.000000 
-2.096743 0.737675 0.000000 
-2.169699 0.373841 0.000000 
-1.991686 0.300841 0.000000 
-1.642187 0.226397 0.000000 
-1.989898 0.133616 0.000000 
-2.064526 0.061804 0.000000 
-1.914688 0.207151 0.000000 
-2.037969 0.990227 0.000000 
-2.021377 0.874542 0.000000 
-2.055796 1.119389 0.000000 
-2.102728 1.222042 0.000000 
-2.047875 1.364344 0.000000 
0.428030 0.111075 0.000000 
0.375625 0.089839 0.000000 
0.313454 0.102940 0.000000 
0.290352 0.248975 0.000000 
0.238487 0.959892 0.000000 
0.440631 0.072968 0.000000 
0.396678 0.033191 0.000000 
0.460488 0.007270 0.000000 
0.523747 1.183382 0.000000 
-2.262588 0.146637 0.000000 
-2.220468 0.202664 0.000000 
-2.218579 0.093126 0.000000 
-2.146376 0.144976 0.000000 
-2.206503 0.028055 0.000000 
0.473879 1.144770 0.000000 
0.446488 1.092439 0.000000 
0.440978 1.048420 0.000000 
0.409581 1.040565 0.000000 
0.629179 1.869460 0.000000 
0.593839 1.836987 0.000000 
0.550362 1.792783 0.000000 
0.483841 1.752360 0.000000 
0.202470 0.893528 0.000000 
0.241245 0.745752 0.000000 
0.205152 0.720952 0.000000 
0.175878 0.672811 0.000000 
0.153326 0.614305 0.000000 
0.132079 0.553855 0.000000 
0.113278 0.489399 0.000000 
0.106000 0.421076 0.000000 
0.109640 0.351879 0.000000 
0.121648 0.281201 0.000000 
0.032483 0.191587 0.000000 
0.246820 0.274266 0.000000 
0.099619 0.139953 0.000000 
0.373127 1.025683 0.000000 
-0.307911 1.888822 0.000000 
-0.360136 1.870353 0.000000 
-0.343252 1.816008 0.000000 
-0.270247 1.824152 0.000000 
0.168337 0.136471 0.000000 
0.242346 0.126134 0.000000 
0.270369 0.195170 0.000000 
0.505525 1.251144 0.000000 
-0.689828 0.078399 0.000000 
-0.729540 0.135803 0.000000 
-0.746154 0.210275 0.000000 
-0.657668 0.226839 0.000000 
-0.661195 0.142553 0.000000 
-0.924642 0.379515 0.000000 
-1.137284 1.642878 0.000000 
-1.072920 1.598284 0.000000 
-1.248127 1.655175 0.000000 
-1.304069 1.638853 0.000000 
-1.360197 1.631193 0.000000 
-1.411221 1.627053 0.000000 
-1.453165 1.623823 0.000000 
-1.486003 1.606361 0.000000 
-1.510814 1.562892 0.000000 
-1.558800 1.518223 0.000000 
-0.995058 1.571531 0.000000 
-0.919611 1.561055 0.000000 
-0.852227 1.567987 0.000000 
-0.796966 1.584506 0.000000 
-0.752732 1.603674 0.000000 
-1.635591 1.490890 0.000000 
-1.992480 0.765592 0.000000 
-1.965104 0.655813 0.000000 
-1.974377 0.552480 0.000000 
-2.014368 0.458858 0.000000 
-2.065453 0.375672 0.000000 
-2.071492 0.222605 0.000000 
-2.131272 0.306142 0.000000 
-1.712039 1.477567 0.000000 
-1.781280 1.477518 0.000000 
-1.884796 1.447461 0.000000 
0.516332 1.667124 0.000000 
0.538779 1.595995 0.000000 
0.517174 1.325529 0.000000 
0.552532 1.387465 0.000000 
0.576896 1.429392 0.000000 
0.583356 1.466418 0.000000 