# vtk DataFile Version 3.0 
vtk output 
ASCII 
DATASET UNSTRUCTURED_GRID 
POINTS 899 float 
-3.648847 2.335837 0.000000 
-3.619410 2.295285 0.000000 
-3.578536 2.259690 0.000000 
-3.540028 2.224039 0.000000 
-3.511690 2.191844 0.000000 
-3.481362 2.161986 0.000000 
-3.451569 2.121312 0.000000 
0.772356 2.238351 0.000000 
0.774615 2.212230 0.000000 
0.769962 2.183475 0.000000 
-3.399514 2.091036 0.000000 
0.413960 -0.553806 0.000000 
0.455573 -0.549503 0.000000 
-1.762619 -0.453701 0.000000 
-1.783389 -0.418305 0.000000 
-1.714437 -0.389516 0.000000 
0.732567 2.232675 0.000000 
0.698438 2.218839 0.000000 
0.491831 -0.535301 0.000000 
0.519501 -0.504895 0.000000 
0.530556 -0.464449 0.000000 
0.532354 -0.418645 0.000000 
0.531774 -0.368138 0.000000 
-3.460923 2.029303 0.000000 
0.663989 2.196893 0.000000 
0.631675 2.169498 0.000000 
0.601833 2.145443 0.000000 
0.569607 2.122185 0.000000 
0.534059 2.100108 0.000000 
0.492599 2.078968 0.000000 
0.444403 2.060303 0.000000 
0.762807 2.142501 0.000000 
-1.708694 -0.355134 0.000000 
-1.726386 -0.314870 0.000000 
-1.761257 -0.290849 0.000000 
-1.812853 -0.283001 0.000000 
-0.690422 -0.535336 0.000000 
-0.624256 -0.553264 0.000000 
-0.561079 -0.561446 0.000000 
-0.500739 -0.562901 0.000000 
-0.445387 -0.562963 0.000000 
0.532260 -0.309054 0.000000 
0.536647 -0.239721 0.000000 
-1.881389 -0.270500 0.000000 
-0.389303 -0.560689 0.000000 
-0.340338 -0.545404 0.000000 
-0.344339 -0.491268 0.000000 
-0.358558 -0.438729 0.000000 
-0.381750 -0.397817 0.000000 
-0.406193 -0.363643 0.000000 
-0.417316 -0.332145 0.000000 
-0.428320 -0.297888 0.000000 
-0.436973 -0.253623 0.000000 
-0.444212 -0.198081 0.000000 
-0.452662 -0.139222 0.000000 
-0.468602 -0.082323 0.000000 
0.553166 -0.175006 0.000000 
0.573193 -0.117335 0.000000 
0.574450 -0.065594 0.000000 
0.561087 -0.015275 0.000000 
0.550432 0.040048 0.000000 
0.748903 2.089183 0.000000 
0.730940 2.032691 0.000000 
0.715868 1.986532 0.000000 
0.699446 1.950404 0.000000 
0.684888 1.909414 0.000000 
0.675900 1.863210 0.000000 
0.669871 1.813650 0.000000 
0.664455 1.765793 0.000000 
0.668163 1.719374 0.000000 
0.672091 1.669540 0.000000 
0.674558 1.621516 0.000000 
0.673045 1.571437 0.000000 
0.386491 2.050623 0.000000 
0.664855 1.512698 0.000000 
0.652298 1.454621 0.000000 
0.638456 1.400971 0.000000 
0.623121 1.351461 0.000000 
0.616008 1.308433 0.000000 
0.600787 1.273491 0.000000 
0.571289 1.244042 0.000000 
0.539016 1.212881 0.000000 
0.513857 1.183982 0.000000 
0.493343 1.157747 0.000000 
0.469109 1.139934 0.000000 
0.444920 1.123490 0.000000 
0.415324 1.102524 0.000000 
0.383540 1.077772 0.000000 
0.356179 1.048440 0.000000 
0.343879 1.009540 0.000000 
0.337476 0.964019 0.000000 
0.332404 0.918733 0.000000 
0.328512 0.879043 0.000000 
0.319594 0.842964 0.000000 
0.304149 0.809553 0.000000 
0.290502 0.769162 0.000000 
0.275896 0.721299 0.000000 
0.261905 0.679330 0.000000 
0.250150 0.645735 0.000000 
0.250896 0.607930 0.000000 
0.259587 0.565327 0.000000 
0.284617 0.522554 0.000000 
0.315237 0.492892 0.000000 
0.340022 0.473456 0.000000 
0.354380 0.447607 0.000000 
0.368685 0.420464 0.000000 
0.385568 0.394068 0.000000 
0.415372 0.369271 0.000000 
0.447119 0.337558 0.000000 
0.477633 0.309642 0.000000 
0.503078 0.281706 0.000000 
0.518876 0.243651 0.000000 
0.527127 0.207683 0.000000 
0.534187 0.163137 0.000000 
0.543185 0.102357 0.000000 
0.322519 2.039567 0.000000 
0.263849 2.026450 0.000000 
0.208223 2.021030 0.000000 
0.150441 2.017202 0.000000 
-0.687392 -0.462269 0.000000 
-3.327058 2.064804 0.000000 
-3.276080 2.018383 0.000000 
-3.224941 1.984796 0.000000 
-3.181728 1.955638 0.000000 
-3.135074 1.918708 0.000000 
-3.078123 1.894415 0.000000 
-1.944260 -0.225622 0.000000 
0.083204 2.022358 0.000000 
0.005786 2.017005 0.000000 
-0.071812 2.026243 0.000000 
-0.135705 2.055785 0.000000 
-0.182391 2.097390 0.000000 
-1.999041 -0.154653 0.000000 
-1.843230 -0.429162 0.000000 
-0.491126 -0.018363 0.000000 
-0.512312 0.054879 0.000000 
-0.526535 0.117712 0.000000 
-0.527935 0.179834 0.000000 
-0.524207 0.247004 0.000000 
-0.505864 0.304135 0.000000 
-0.468875 0.353347 0.000000 
-0.410369 0.382592 0.000000 
-0.354013 0.403710 0.000000 
-0.301050 0.413655 0.000000 
-0.255730 0.414428 0.000000 
-0.695595 -0.383973 0.000000 
-0.726457 -0.307092 0.000000 
-0.747352 -0.237636 0.000000 
-3.396487 2.007669 0.000000 
-3.344056 1.928281 0.000000 
-3.294256 1.884880 0.000000 
-3.248246 1.846556 0.000000 
-3.196818 1.807202 0.000000 
-3.159669 1.755892 0.000000 
-3.113281 1.709188 0.000000 
-3.056061 1.689624 0.000000 
-2.996684 1.666999 0.000000 
-2.933161 1.637383 0.000000 
-2.879064 1.601240 0.000000 
-2.813006 1.576455 0.000000 
-2.751664 1.553405 0.000000 
-2.686782 1.524082 0.000000 
-1.922020 -0.426355 0.000000 
-1.999705 -0.427854 0.000000 
-2.060018 -0.406250 0.000000 
-2.032615 -0.071263 0.000000 
-2.048550 0.014459 0.000000 
-2.029059 0.080352 0.000000 
-2.105228 -0.349192 0.000000 
-2.154373 -0.281597 0.000000 
-2.203584 -0.226974 0.000000 
-2.237020 -0.165538 0.000000 
-2.250593 -0.100246 0.000000 
-2.270119 -0.028461 0.000000 
-2.297898 0.041849 0.000000 
-2.327118 0.103429 0.000000 
-2.346747 0.157399 0.000000 
-2.362840 0.210508 0.000000 
-2.374561 0.261553 0.000000 
-2.373128 0.313528 0.000000 
-2.334174 0.380118 0.000000 
-2.331842 0.420737 0.000000 
-2.284565 0.429495 0.000000 
-0.236368 2.146926 0.000000 
-0.299146 2.190752 0.000000 
-0.346614 2.210678 0.000000 
-0.382877 2.174175 0.000000 
-0.412447 2.145125 0.000000 
-0.433989 2.104837 0.000000 
-0.446472 2.061871 0.000000 
-0.451628 2.022553 0.000000 
-0.451047 1.984090 0.000000 
-0.449242 1.948087 0.000000 
-0.453345 1.916197 0.000000 
-0.460251 1.888504 0.000000 
-0.470304 1.859719 0.000000 
-0.475290 1.830229 0.000000 
-0.478341 1.800443 0.000000 
-0.479442 1.763707 0.000000 
-2.609147 1.510293 0.000000 
-2.517189 1.504794 0.000000 
-2.434013 1.505131 0.000000 
-2.352624 1.495099 0.000000 
-2.274410 1.475728 0.000000 
-2.204499 1.441080 0.000000 
-2.180326 1.372197 0.000000 
-2.178559 1.283661 0.000000 
-2.168273 1.193632 0.000000 
-2.159086 1.095568 0.000000 
-2.144575 1.006409 0.000000 
-2.163040 0.931192 0.000000 
-2.183612 0.857100 0.000000 
-2.172907 0.792543 0.000000 
-2.161614 0.729788 0.000000 
-2.169833 0.669676 0.000000 
-2.188987 0.607922 0.000000 
-2.218663 0.556677 0.000000 
-2.229021 0.500804 0.000000 
-2.997130 1.877618 0.000000 
-3.021908 1.779480 0.000000 
-2.902046 1.846111 0.000000 
-0.770600 -0.155043 0.000000 
-0.790096 -0.063384 0.000000 
-0.811857 0.017324 0.000000 
-0.835807 0.095888 0.000000 
-0.859157 0.166015 0.000000 
-0.881226 0.226067 0.000000 
-0.903169 0.285418 0.000000 
-0.928196 0.349462 0.000000 
-2.785442 1.813557 0.000000 
-2.944278 1.752815 0.000000 
-2.855014 1.715670 0.000000 
-2.796189 1.655590 0.000000 
-2.651235 1.798811 0.000000 
-2.517962 1.788464 0.000000 
-2.394240 1.779301 0.000000 
-2.275192 1.771305 0.000000 
-2.180847 1.746744 0.000000 
-2.099904 1.720264 0.000000 
-2.018420 1.689025 0.000000 
-1.945469 1.693322 0.000000 
-1.885190 1.726662 0.000000 
-1.829736 1.747231 0.000000 
-1.760875 1.772462 0.000000 
-1.680504 1.800887 0.000000 
-1.617798 1.819203 0.000000 
-1.570169 1.833727 0.000000 
-1.527149 1.847917 0.000000 
-1.482581 1.860046 0.000000 
-1.433927 1.866587 0.000000 
-1.386311 1.874501 0.000000 
-1.337319 1.883232 0.000000 
-1.286363 1.890311 0.000000 
-1.235962 1.891029 0.000000 
-1.188452 1.895842 0.000000 
-1.140860 1.905293 0.000000 
-1.091558 1.904602 0.000000 
-1.038962 1.893584 0.000000 
-0.982519 1.874586 0.000000 
-0.922315 1.857843 0.000000 
-0.869867 1.847519 0.000000 
-0.827747 1.841029 0.000000 
-0.785371 1.836117 0.000000 
-0.748025 1.826380 0.000000 
-0.712781 1.816113 0.000000 
-0.681690 1.802181 0.000000 
-0.657198 1.791047 0.000000 
-0.633895 1.784384 0.000000 
-0.612002 1.779928 0.000000 
-0.594184 1.772716 0.000000 
-0.577381 1.763265 0.000000 
-0.560109 1.747982 0.000000 
-0.540091 1.715528 0.000000 
-1.243914 0.076682 0.000000 
-1.232782 0.090399 0.000000 
-1.257376 0.062328 0.000000 
-1.224378 0.109098 0.000000 
-1.271472 0.042983 0.000000 
-1.215702 0.131095 0.000000 
-1.204660 0.157152 0.000000 
-1.290143 0.015241 0.000000 
-1.314447 -0.029799 0.000000 
-1.190204 0.187458 0.000000 
-1.318041 -0.083153 0.000000 
-1.171655 0.221615 0.000000 
-1.149359 0.257929 0.000000 
-1.123094 0.296177 0.000000 
-1.284246 -0.133133 0.000000 
-1.239750 -0.183859 0.000000 
-1.083297 0.340169 0.000000 
-1.028190 0.371840 0.000000 
-1.181630 -0.226216 0.000000 
-1.112789 -0.257643 0.000000 
-1.040643 -0.269813 0.000000 
-0.978118 -0.272900 0.000000 
-0.927392 -0.285926 0.000000 
-0.889718 -0.325060 0.000000 
-0.873564 -0.381610 0.000000 
-0.920771 -0.413804 0.000000 
-0.935346 -0.346536 0.000000 
-0.991249 -0.423380 0.000000 
-1.088918 -0.420652 0.000000 
-1.067426 -0.341000 0.000000 
-1.189474 -0.413089 0.000000 
-1.147229 -0.328333 0.000000 
-1.266509 -0.389799 0.000000 
-1.219913 -0.302155 0.000000 
-1.335307 -0.353972 0.000000 
-1.284456 -0.264156 0.000000 
-1.402357 -0.310068 0.000000 
-1.341444 -0.216356 0.000000 
-1.466758 -0.257393 0.000000 
-1.539152 -0.196594 0.000000 
-1.393011 -0.158425 0.000000 
-1.612839 -0.126322 0.000000 
-1.665320 -0.068744 0.000000 
-1.691220 -0.003917 0.000000 
-1.704696 0.081576 0.000000 
-1.850073 0.248446 0.000000 
-1.911042 0.192621 0.000000 
-1.969645 0.135784 0.000000 
-1.726970 0.187987 0.000000 
-0.222881 0.395817 0.000000 
-0.195707 0.368234 0.000000 
-0.164205 0.331287 0.000000 
-0.127520 0.298589 0.000000 
-0.095686 0.269097 0.000000 
-0.059027 0.240619 0.000000 
-0.018954 0.210635 0.000000 
0.030296 0.179365 0.000000 
0.086536 0.158839 0.000000 
0.141893 0.140107 0.000000 
0.202102 0.110828 0.000000 
0.263408 0.070911 0.000000 
0.311661 0.020924 0.000000 
0.333954 -0.038699 0.000000 
0.338621 -0.099149 0.000000 
0.341530 -0.153087 0.000000 
0.353165 -0.203276 0.000000 
0.365710 -0.261699 0.000000 
0.363543 -0.331227 0.000000 
[...]
POINT_DATA 899 
VECTORS X_GC float 
-3.648847 2.335837 0.000000 
-3.619410 2.295285 0.000000 
-3.578536 2.259690 0.000000 
-3.540028 2.224039 0.000000 
-3.511690 2.191844 0.000000 
-3.481362 2.161986 0.000000 
-3.451569 2.121312 0.000000 
0.772356 2.238351 0.000000 
0.774615 2.212230 0.000000 
0.769962 2.183475 0.000000 
-3.399514 2.091036 0.000000 
0.413960 -0.553806 0.000000 
0.455573 -0.549503 0.000000 
-1.762619 -0.453701 0.000000 
-1.783389 -0.418305 0.000000 
-1.714437 -0.389516 0.000000 
0.732567 2.232675 0.000000 
0.698438 2.218839 0.000000 
0.491831 -0.535301 0.000000 
0.519501 -0.504895 0.000000 
0.530556 -0.464449 0.000000 
0.532354 -0.418645 0.000000 
0.531774 -0.368138 0.000000 
-3.460923 2.029303 0.000000 
0.663989 2.196893 0.000000 
0.631675 2.169498 0.000000 
0.601833 2.145443 0.000000 
0.569607 2.122185 0.000000 
0.534059 2.100108 0.000000 
0.492599 2.078968 0.000000 
0.444403 2.060303 0.000000 
0.762807 2.142501 0.000000 
-1.708694 -0.355134 0.000000 
-1.726386 -0.314870 0.000000 
-1.761257 -0.290849 0.000000 
-1.812853 -0.283001 0.000000 
-0.690422 -0.535336 0.000000 
-0.624256 -0.553264 0.000000 
-0.561079 -0.561446 0.000000 
-0.500739 -0.562901 0.000000 
-0.445387 -0.562963 0.000000 
0.532260 -0.309054 0.000000 
0.536647 -0.239721 0.000000 
-1.881389 -0.270500 0.000000 
-0.389303 -0.560689 0.000000 
-0.340338 -0.545404 0.000000 
-0.344339 -0.491268 0.000000 
-0.358558 -0.438729 0.000000 
-0.381750 -0.397817 0.000000 
-0.406193 -0.363643 0.000000 
-0.417316 -0.332145 0.000000 
-0.428320 -0.297888 0.000000 
-0.436973 -0.253623 0.000000 
-0.444212 -0.198081 0.000000 
-0.452662 -0.139222 0.000000 
-0.468602 -0.082323 0.000000 
0.553166 -0.175006 0.000000 
0.573193 -0.117335 0.000000 
0.574450 -0.065594 0.000000 
0.561087 -0.015275 0.000000 
0.550432 0.040048 0.000000 
0.748903 2.089183 0.000000 
0.730940 2.032691 0.000000 
0.715868 1.986532 0.000000 
0.699446 1.950404 0.000000 
0.684888 1.909414 0.000000 
0.675900 1.863210 0.000000 
0.669871 1.813650 0.000000 
0.664455 1.765793 0.000000 
0.668163 1.719374 0.000000 
0.672091 1.669540 0.000000 
0.674558 1.621516 0.000000 
0.673045 1.571437 0.000000 
0.386491 2.050623 0.000000 
0.664855 1.512698 0.000000 
0.652298 1.454621 0.000000 
0.638456 1.400971 0.000000 
0.623121 1.351461 0.000000 
0.616008 1.308433 0.000000 
0.600787 1.273491 0.000000 
0.571289 1.244042 0.000000 
0.539016 1.212881 0.000000 
0.513857 1.183982 0.000000 
0.493343 1.157747 0.000000 
0.469109 1.139934 0.000000 
0.444920 1.123490 0.000000 
0.415324 1.102524 0.000000 
0.383540 1.077772 0.000000 
0.356179 1.048440 0.000000 
0.343879 1.009540 0.000000 
0.337476 0.964019 0.000000 
0.332404 0.918733 0.000000 
0.328512 0.879043 0.000000 
0.319594 0.842964 0.000000 
0.304149 0.809553 0.000000 
0.290502 0.769162 0.000000 
0.275896 0.721299 0.000000 
0.261905 0.679330 0.000000 
0.250150 0.645735 0.000000 
0.250896 0.607930 0.000000 
0.259587 0.565327 0.000000 
0.284617 0.522554 0.000000 
0.315237 0.492892 0.000000 
0.340022 0.473456 0.000000 
0.354380 0.447607 0.000000 
0.368685 0.420464 0.000000 
0.385568 0.394068 0.000000 
0.415372 0.369271 0.000000 
0.447119 0.337558 0.000000 
0.477633 0.309642 0.000000 
0.503078 0.281706 0.000000 
0.518876 0.243651 0.000000 
0.527127 0.207683 0.000000 
0.534187 0.163137 0.000000 
0.543185 0.102357 0.000000 
0.322519 2.039567 0.000000 
0.263849 2.026450 0.000000 
0.208223 2.021030 0.000000 
0.150441 2.017202 0.000000 
-0.687392 -0.462269 0.000000 
-3.327058 2.064804 0.000000 
-3.276080 2.018383 0.000000 
-3.224941 1.984796 0.000000 
-3.181728 1.955638 0.000000 
-3.135074 1.918708 0.000000 
-3.078123 1.894415 0.000000 
-1.944260 -0.225622 0.000000 
0.083204 2.022358 0.000000 
0.005786 2.017005 0.000000 
-0.071812 2.026243 0.000000 
-0.135705 2.055785 0.000000 
-0.182391 2.097390 0.000000 
-1.999041 -0.154653 0.000000 
-1.843230 -0.429162 0.000000 
-0.491126 -0.018363 0.000000 
-0.512312 0.054879 0.000000 
-0.526535 0.117712 0.000000 
-0.527935 0.179834 0.000000 
-0.524207 0.247004 0.000000 
-0.505864 0.304135 0.000000 
-0.468875 0.353347 0.000000 
-0.410369 0.382592 0.000000 
-0.354013 0.403710 0.000000 
-0.301050 0.413655 0.000000 
-0.255730 0.414428 0.000000 
-0.695595 -0.383973 0.000000 
-0.726457 -0.307092 0.000000 
-0.747352 -0.237636 0.000000 
-3.396487 2.007669 0.000000 
-3.344056 1.928281 0.000000 
-3.294256 1.884880 0.000000 
-3.248246 1.846556 0.000000 
-3.196818 1.807202 0.000000 
-3.159669 1.755892 0.000000 
-3.113281 1.709188 0.000000 
-3.056061 1.689624 0.000000 
-2.996684 1.666999 0.000000 
-2.933161 1.637383 0.000000 
-2.879064 1.601240 0.000000 
-2.813006 1.576455 0.000000 
-2.751664 1.553405 0.000000 
-2.686782 1.524082 0.000000 
-1.922020 -0.426355 0.000000 
-1.999705 -0.427854 0.000000 
-2.060018 -0.406250 0.000000 
-2.032615 -0.071263 0.000000 
-2.048550 0.014459 0.000000 
-2.029059 0.080352 0.000000 
-2.105228 -0.349192 0.000000 
-2.154373 -0.281597 0.000000 
-2.203584 -0.226974 0.000000 
-2.237020 -0.165538 0.000000 
-2.250593 -0.100246 0.000000 
-2.270119 -0.028461 0.000000 
-2.297898 0.041849 0.000000 
-2.327118 0.103429 0.000000 
-2.346747 0.157399 0.000000 
-2.362840 0.210508 0.000000 
-2.374561 0.261553 0.000000 
-2.373128 0.313528 0.000000 
-2.334174 0.380118 0.000000 
-2.331842 0.420737 0.000000 
-2.284565 0.429495 0.000000 
-0.236368 2.146926 0.000000 
-0.299146 2.190752 0.000000 
-0.346614 2.210678 0.000000 
-0.382877 2.174175 0.000000 
-0.412447 2.145125 0.000000 
-0.433989 2.104837 0.000000 
-0.446472 2.061871 0.000000 
-0.451628 2.022553 0.000000 
-0.451047 1.984090 0.000000 
-0.449242 1.948087 0.000000 
-0.453345 1.916197 0.000000 
-0.460251 1.888504 0.000000 
-0.470304 1.859719 0.000000 
-0.475290 1.830229 0.000000 
-0.478341 1.800443 0.000000 
-0.479442 1.763707 0.000000 
-2.609147 1.510293 0.000000 
-2.517189 1.504794 0.000000 
-2.434013 1.505131 0.000000 
-2.352624 1.495099 0.000000 
-2.274410 1.475728 0.000000 
-2.204499 1.441080 0.000000 
-2.180326 1.372197 0.000000 
-2.178559 1.283661 0.000000 
-2.168273 1.193632 0.000000 
-2.159086 1.095568 0.000000 
-2.144575 1.006409 0.000000 
-2.163040 0.931192 0.000000 
-2.183612 0.857100 0.000000 
-2.172907 0.792543 0.000000 
-2.161614 0.729788 0.000000 
-2.169833 0.669676 0.000000 
-2.188987 0.607922 0.000000 
-2.218663 0.556677 0.000000 
-2.229021 0.500804 0.000000 
-2.997130 1.877618 0.000000 
-3.021908 1.779480 0.000000 
-2.902046 1.846111 0.000000 
-0.770600 -0.155043 0.000000 
-0.790096 -0.063384 0.000000 
-0.811857 0.017324 0.000000 
-0.835807 0.095888 0.000000 
-0.859157 0.166015 0.000000 
-0.881226 0.226067 0.000000 
-0.903169 0.285418 0.000000 
-0.928196 0.349462 0.000000 
-2.785442 1.813557 0.000000 
-2.944278 1.752815 0.000000 
-2.855014 1.715670 0.000000 
-2.796189 1.655590 0.000000 
-2.651235 1.798811 0.000000 
-2.517962 1.788464 0.000000 
-2.394240 1.779301 0.000000 
-2.275192 1.771305 0.000000 
-2.180847 1.746744 0.000000 
-2.099904 1.720264 0.000000 
-2.018420 1.689025 0.000000 
-1.945469 1.693322 0.000000 
-1.885190 1.726662 0.000000 
-1.829736 1.747231 0.000000 
-1.760875 1.772462 0.000000 
-1.680504 1.800887 0.000000 
-1.617798 1.819203 0.000000 
-1.570169 1.833727 0.000000 
-1.527149 1.847917 0.000000 
-1.482581 1.860046 0.000000 
-1.433927 1.866587 0.000000 
-1.386311 1.874501 0.000000 
-1.337319 1.883232 0.000000 
-1.286363 1.890311 0.000000 
-1.235962 1.891029 0.000000 
-1.188452 1.895842 0.000000 
-1.140860 1.905293 0.000000 
-1.091558 1.904602 0.000000 
-1.038962 1.893584 0.000000 
-0.982519 1.874586 0.000000 
-0.922315 1.857843 0.000000 
-0.869867 1.847519 0.000000 
-0.827747 1.841029 0.000000 
-0.785371 1.836117 0.000000 
-0.748025 1.826380 0.000000 
-0.712781 1.816113 0.000000 
-0.681690 1.802181 0.000000 
-0.657198 1.791047 0.000000 
-0.633895 1.784384 0.000000 
-0.612002 1.779928 0.000000 
-0.594184 1.772716 0.000000 
-0.577381 1.763265 0.000000 
-0.560109 1.747982 0.000000 
-0.540091 1.715528 0.000000 
-1.243914 0.076682 0.000000 
-1.232782 0.090399 0.000000 
-1.257376 0.062328 0.000000 
-1.224378 0.109098 0.000000 
-1.271472 0.042983 0.000000 
-1.215702 0.131095 0.000000 
-1.204660 0.157152 0.000000 
-1.290143 0.015241 0.000000 
-1.314447 -0.029799 0.000000 
-1.190204 0.187458 0.000000 
-1.318041 -0.083153 0.000000 
-1.171655 0.221615 0.000000 
-1.149359 0.257929 0.000000 
-1.123094 0.296177 0.000000 
-1.284246 -0.133133 0.000000 
-1.239750 -0.183859 0.000000 
-1.083297 0.340169 0.000000 
-1.028190 0.371840 0.000000 
-1.181630 -0.226216 0.000000 
-1.112789 -0.257643 0.000000 
-1.040643 -0.269813 0.000000 
-0.978118 -0.272900 0.000000 
-0.927392 -0.285926 0.000000 
-0.889718 -0.325060 0.000000 
-0.873564 -0.381610 0.000000 
-0.920771 -0.413804 0.000000 
-0.935346 -0.346536 0.000000 
-0.991249 -0.423380 0.000000 
-1.088918 -0.420652 0.000000 
-1.067426 -0.341000 0.000000 
-1.189474 -0.413089 0.000000 
-1.147229 -0.328333 0.000000 
-1.266509 -0.389799 0.000000 
-1.219913 -0.302155 0.000000 
-1.335307 -0.353972 0.000000 
-1.284456 -0.264156 0.000000 
-1.402357 -0.310068 0.000000 
-1.341444 -0.216356 0.000000 
-1.466758 -0.257393 0.000000 
-1.539152 -0.196594 0.000000 
-1.393011 -0.158425 0.000000 
-1.612839 -0.126322 0.000000 
-1.665320 -0.068744 0.000000 
-1.691220 -0.003917 0.000000 
-1.704696 0.081576 0.000000 
-1.850073 0.248446 0.000000 
-1.911042 0.192621 0.000000 
-1.969645 0.135784 0.000000 
-1.726970 0.187987 0.000000 
-0.222881 0.395817 0.000000 
-0.195707 0.368234 0.000000 
-0.164205 0.331287 0.000000 
-0.127520 0.298589 0.000000 
-0.095686 0.269097 0.000000 
-0.059027 0.240619 0.000000 
-0.018954 0.210635 0.000000 
0.030296 0.179365 0.000000 
0.086536 0.158839 0.000000 
0.141893 0.140107 0.000000 
0.202102 0.110828 0.000000 
0.263408 0.070911 0.000000 
0.311661 0.020924 0.000000 
0.333954 -0.038699 0.000000 
0.338621 -0.099149 0.000000 
0.341530 -0.153087 0.000000 
0.353165 -0.203276 0.000000 
0.365710 -0.261699 0.000000 
0.363543 -0.331227 0.000000 
0.357353 -0.393342 0.000000 
0.351188 -0.444084 0.000000 
0.363842 -0.491112 0.000000 
-1.737069 -0.357764 0.000000 
-0.199590 0.448434 0.000000 
-0.156305 0.418518 0.000000 
-0.462327 1.684474 0.000000 
0.741313 2.207049 0.000000 
0.482415 -0.501883 0.000000 
0.446104 -0.509779 0.000000 
0.403556 -0.515434 0.000000 
-0.104001 0.390453 0.000000 
-0.514998 1.616529 0.000000 
-0.059937 0.356048 0.000000 
0.738519 2.181783 0.000000 
0.714572 2.194084 0.000000 
-0.249752 0.475258 0.000000 
-0.036232 0.312250 0.000000 
0.000772 0.284418 0.000000 
0.035161 0.258773 0.000000 
-1.776537 -0.357205 0.000000 
-1.836238 -0.353020 0.000000 
-0.309416 0.489358 0.000000 
-0.378944 0.487094 0.000000 
-2.292732 0.366682 0.000000 
-2.315166 0.316691 0.000000 
-2.314418 0.269134 0.000000 
-2.293418 0.222748 0.000000 
-2.279687 0.172869 0.000000 
-2.253462 0.125603 0.000000 
0.075120 0.231031 0.000000 
0.131113 0.218423 0.000000 
-0.977004 0.420406 0.000000 
-0.860050 0.410241 0.000000 
-1.912142 -0.344964 0.000000 
-1.989966 -0.353744 0.000000 
-2.023752 -0.286202 0.000000 
-2.082175 -0.214941 0.000000 
0.723889 2.150270 0.000000 
0.691466 2.169113 0.000000 
0.665980 2.136467 0.000000 
0.704783 2.109198 0.000000 
0.637970 2.098409 0.000000 
0.681732 2.061990 0.000000 
0.670916 2.015815 0.000000 
0.602858 2.066740 0.000000 
0.659584 1.975391 0.000000 
0.560783 2.040370 0.000000 
0.636111 1.939316 0.000000 
0.607495 1.889525 0.000000 
0.595324 1.826045 0.000000 
0.604052 1.761372 0.000000 
0.514160 2.010966 0.000000 
0.453857 1.983521 0.000000 
0.392525 1.981543 0.000000 
0.334098 1.980014 0.000000 
0.278675 1.961261 0.000000 
0.217273 1.943185 0.000000 
0.149449 1.925830 0.000000 
0.614128 1.709096 0.000000 
0.621313 1.661517 0.000000 
0.624262 1.616637 0.000000 
-2.197766 0.072414 0.000000 
-2.158682 -0.002509 0.000000 
-2.124695 0.131745 0.000000 
-2.150589 -0.168636 0.000000 
-2.141926 -0.091090 0.000000 
-0.393439 -0.507650 0.000000 
-0.412631 -0.463607 0.000000 
-0.436983 -0.423003 0.000000 
-0.445953 -0.379584 0.000000 
-0.458251 -0.346758 0.000000 
-0.479726 -0.311991 0.000000 
-0.496934 -0.263261 0.000000 
-0.509002 -0.208177 0.000000 
-0.517157 -0.153846 0.000000 
-0.545309 -0.102571 0.000000 
-0.442273 -0.505044 0.000000 
-0.496002 -0.495527 0.000000 
-0.557668 -0.497634 0.000000 
-0.618975 -0.482154 0.000000 
-0.334659 2.148865 0.000000 
-0.367985 2.119147 0.000000 
-0.385153 2.082722 0.000000 
-0.396797 2.048855 0.000000 
-0.406285 2.013332 0.000000 
-0.402558 1.974199 0.000000 
-0.406645 1.935756 0.000000 
-0.418378 1.903341 0.000000 
-0.428059 1.874216 0.000000 
-0.435849 1.844669 0.000000 
-0.442335 1.814634 0.000000 
-0.445406 1.781569 0.000000 
-0.444483 1.735852 0.000000 
0.619822 1.570905 0.000000 
-1.077870 0.467470 0.000000 
-1.149036 0.425511 0.000000 
-1.174735 0.350669 0.000000 
-1.192231 0.298945 0.000000 
-1.210811 0.257169 0.000000 
-1.228352 0.217829 0.000000 
-1.238869 0.179849 0.000000 
-1.244643 0.148352 0.000000 
-1.248534 0.123451 0.000000 
-1.252336 0.104163 0.000000 
-1.262323 0.090912 0.000000 
-1.280319 0.079996 0.000000 
-0.451814 0.464433 0.000000 
-0.526928 0.420912 0.000000 
0.194935 0.201431 0.000000 
0.069048 1.911730 0.000000 
-0.574175 0.350227 0.000000 
-0.593607 0.269125 0.000000 
-1.764101 0.308809 0.000000 
-2.210991 0.427666 0.000000 
-0.825996 0.324964 0.000000 
-0.799223 0.253883 0.000000 
-0.760911 0.187450 0.000000 
0.605964 1.519953 0.000000 
0.587834 1.462593 0.000000 
0.576354 1.402745 0.000000 
0.574971 1.347736 0.000000 
0.580375 1.304712 0.000000 
0.545179 1.282328 0.000000 
0.509957 1.250065 0.000000 
0.484198 1.213663 0.000000 
0.468721 1.182509 0.000000 
0.449386 1.163977 0.000000 
0.422962 1.151312 0.000000 
0.391379 1.132161 0.000000 
0.357154 1.108098 0.000000 
0.323730 1.079725 0.000000 
-0.582151 -0.041703 0.000000 
0.265957 0.175001 0.000000 
0.333763 0.128871 0.000000 
0.378371 0.061856 0.000000 
0.400918 -0.012539 0.000000 
0.401084 -0.075528 0.000000 
0.404345 -0.129629 0.000000 
0.432648 -0.180711 0.000000 
0.450030 -0.245152 0.000000 
0.529803 -0.091999 0.000000 
0.491947 -0.140136 0.000000 
0.453243 -0.090253 0.000000 
0.449550 -0.319476 0.000000 
0.498420 -0.046125 0.000000 
0.474171 0.013816 0.000000 
0.457863 0.088389 0.000000 
0.462195 -0.378130 0.000000 
0.478704 -0.424466 0.000000 
0.483460 -0.465432 0.000000 
0.412910 -0.403772 0.000000 
0.398390 -0.442485 0.000000 
0.404290 -0.476773 0.000000 
0.442452 -0.472215 0.000000 
0.436659 -0.437050 0.000000 
-0.727378 0.113317 0.000000 
-0.616071 0.195335 0.000000 
-0.623548 0.121054 0.000000 
-0.605779 0.040047 0.000000 
-0.706340 0.027599 0.000000 
-0.681483 -0.058663 0.000000 
-0.032304 1.906169 0.000000 
-0.128010 1.942319 0.000000 
-0.195732 2.009443 0.000000 
-0.243911 2.063357 0.000000 
-0.287859 2.110760 0.000000 
-0.335518 2.083065 0.000000 
-0.667608 -0.144044 0.000000 
-0.584906 -0.150812 0.000000 
-0.658169 -0.224053 0.000000 
-0.578442 -0.216182 0.000000 
-0.639050 -0.295495 0.000000 
-0.607982 -0.371012 0.000000 
-0.562541 -0.278882 0.000000 
-0.536184 -0.339905 0.000000 
-0.495978 -0.377867 0.000000 
-0.500680 -0.430261 0.000000 
-0.573051 -0.434714 0.000000 
-2.690892 1.679464 0.000000 
-2.684799 1.593451 0.000000 
-2.602920 1.592189 0.000000 
-2.574381 1.677182 0.000000 
-2.518122 1.612056 0.000000 
-2.424460 1.635954 0.000000 
-2.320006 1.627023 0.000000 
-2.229986 1.603405 0.000000 
-2.146342 1.562165 0.000000 
-1.455055 -0.099444 0.000000 
-1.387692 -0.019120 0.000000 
-1.339496 0.034208 0.000000 
-1.304977 0.062768 0.000000 
-1.531301 -0.033951 0.000000 
-1.604385 0.010162 0.000000 
-1.592423 0.110843 0.000000 
-1.608296 0.234805 0.000000 
-1.827918 0.433251 0.000000 
0.477873 0.202054 0.000000 
0.477147 0.236953 0.000000 
0.465631 0.271193 0.000000 
-0.587742 1.715402 0.000000 
-0.593403 1.739506 0.000000 
-0.604579 1.752162 0.000000 
-0.619289 1.757848 0.000000 
-0.639577 1.755674 0.000000 
-0.665912 1.757291 0.000000 
-0.697937 1.764277 0.000000 
-0.595692 1.661914 0.000000 
-0.726123 1.779089 0.000000 
-0.757398 1.789659 0.000000 
-0.794522 1.787084 0.000000 
-0.841416 1.784506 0.000000 
-0.894922 1.785867 0.000000 
-0.956071 1.794283 0.000000 
-1.020951 1.813204 0.000000 
-1.077937 1.840839 0.000000 
-1.120258 1.869567 0.000000 
-1.171769 1.845307 0.000000 
0.332207 0.398698 0.000000 
0.333662 0.356963 0.000000 
0.321472 0.427314 0.000000 
0.302407 0.454127 0.000000 
0.214022 0.468789 0.000000 
0.194081 0.529814 0.000000 
0.186716 0.585327 0.000000 
0.189303 0.638099 0.000000 
0.360023 0.317281 0.000000 
0.405131 0.292148 0.000000 
0.201671 0.687344 0.000000 
0.218038 0.737606 0.000000 
0.236652 0.786539 0.000000 
0.256885 0.828473 0.000000 
0.278373 0.856967 0.000000 
0.284019 0.890365 0.000000 
0.276718 0.937112 0.000000 
0.278735 0.993925 0.000000 
0.296322 1.044193 0.000000 
-1.507867 1.797064 0.000000 
-1.548116 1.772422 0.000000 
-1.598023 1.745043 0.000000 
-1.467251 1.811838 0.000000 
-1.422160 1.819122 0.000000 
-1.373311 1.825838 0.000000 
-1.322903 1.833615 0.000000 
-1.275577 1.842861 0.000000 
-1.225048 1.841461 0.000000 
-1.662214 1.721373 0.000000 
-1.732600 1.701434 0.000000 
-1.794687 1.687058 0.000000 
-1.841773 1.657871 0.000000 
-2.078405 0.725144 0.000000 
-2.079214 0.803733 0.000000 
-2.097651 0.647544 0.000000 
-2.129318 0.575805 0.000000 
-2.096743 0.884295 0.000000 
-2.169699 0.520461 0.000000 
-1.991686 0.447461 0.000000 
-1.642187 0.373017 0.000000 
-1.989898 0.280236 0.000000 
-2.064526 0.208424 0.000000 
-1.914688 0.353771 0.000000 
-2.037969 1.136847 0.000000 
-2.021377 1.021163 0.000000 
-2.055796 1.266009 0.000000 
-2.102728 1.368662 0.000000 
-2.047875 1.510965 0.000000 
0.428030 0.257695 0.000000 
0.375625 0.236459 0.000000 
0.313454 0.249560 0.000000 
0.290352 0.395595 0.000000 
0.238487 1.106512 0.000000 
0.440631 0.219588 0.000000 
0.396678 0.179811 0.000000 
0.460488 0.153890 0.000000 
0.523747 1.330003 0.000000 
-2.262588 0.293257 0.000000 
-2.220468 0.349284 0.000000 
-2.218579 0.239746 0.000000 
-2.146376 0.291596 0.000000 
-2.206503 0.174676 0.000000 
0.473879 1.291390 0.000000 
0.446488 1.239059 0.000000 
0.440978 1.195040 0.000000 
0.409581 1.187185 0.000000 
0.629179 2.016080 0.000000 
0.593839 1.983607 0.000000 
0.550362 1.939403 0.000000 
0.483841 1.898980 0.000000 
0.202470 1.040148 0.000000 
0.241245 0.892373 0.000000 
0.205152 0.867572 0.000000 
0.175878 0.819431 0.000000 
0.153326 0.760925 0.000000 
0.132079 0.700475 0.000000 
0.113278 0.636019 0.000000 
0.106000 0.567696 0.000000 
0.109640 0.498500 0.000000 
0.121648 0.427822 0.000000 
0.032483 0.338207 0.000000 
0.246820 0.420886 0.000000 
0.099619 0.286573 0.000000 
0.373127 1.172303 0.000000 
-0.307911 2.035443 0.000000 
-0.360136 2.016973 0.000000 
-0.343252 1.962628 0.000000 
-0.270247 1.970772 0.000000 
0.168337 0.283091 0.000000 
0.242346 0.272754 0.000000 
0.270369 0.341790 0.000000 
0.505525 1.397764 0.000000 
-0.689828 0.225019 0.000000 
-0.729540 0.282423 0.000000 
-0.746154 0.356895 0.000000 
-0.657668 0.373460 0.000000 
-0.661195 0.289173 0.000000 
-0.924642 0.526135 0.000000 
-1.137284 1.789498 0.000000 
-1.072920 1.744905 0.000000 
-1.248127 1.801796 0.000000 
-1.304069 1.785473 0.000000 
-1.360197 1.777813 0.000000 
-1.411221 1.773673 0.000000 
-1.453165 1.770444 0.000000 
-1.486003 1.752982 0.000000 
-1.510814 1.709513 0.000000 
-1.558800 1.664844 0.000000 
-0.995058 1.718151 0.000000 
-0.919611 1.707675 0.000000 
-0.852227 1.714607 0.000000 
-0.796966 1.731126 0.000000 
-0.752732 1.750294 0.000000 
-1.635591 1.637511 0.000000 
-1.992480 0.912212 0.000000 
-1.965104 0.802433 0.000000 
-1.974377 0.699100 0.000000 
-2.014368 0.605478 0.000000 
-2.065453 0.522292 0.000000 
-2.071492 0.369225 0.000000 
-2.131272 0.452762 0.000000 
-1.712039 1.624188 0.000000 
-1.781280 1.624138 0.000000 
-1.884796 1.594081 0.000000 
0.516332 1.813744 0.000000 
0.538779 1.742616 0.000000 
0.517174 1.472149 0.000000 
0.552532 1.534085 0.000000 
0.576896 1.576012 0.000000 
0.583356 1.613038 0.000000 
0.576083 1.650043 0.000000 
0.562288 1.692403 0.000000 