# vtk DataFile Version 3.0 
vtk output 
ASCII 
DATASET UNSTRUCTURED_GRID 
POINTS 899 float 
-3.648847 2.233028 0.000000 
-3.619410 2.192476 0.000000 
-3.578536 2.156881 0.000000 
-3.540028 2.121230 0.000000 
-3.511690 2.089035 0.000000 
-3.481362 2.059177 0.000000 
-3.451569 2.018503 0.000000 
0.772356 2.135542 0.000000 
0.774615 2.109421 0.000000 
0.769962 2.080667 0.000000 
-3.399514 1.988227 0.000000 
0.413960 -0.656615 0.000000 
0.455573 -0.652312 0.000000 
-1.762619 -0.556510 0.000000 
-1.783389 -0.521114 0.000000 
-1.714437 -0.492325 0.000000 
0.732567 2.129866 0.000000 
0.698438 2.116030 0.000000 
0.491831 -0.638109 0.000000 
0.519501 -0.607704 0.000000 
0.530556 -0.567258 0.000000 
0.532354 -0.521453 0.000000 
0.531774 -0.470947 0.000000 
-3.460923 1.926495 0.000000 
0.663989 2.094084 0.000000 
0.631675 2.066689 0.000000 
0.601833 2.042634 0.000000 
0.569607 2.019376 0.000000 
0.534059 1.997299 0.000000 
0.492599 1.976159 0.000000 
0.444403 1.957494 0.000000 
0.762807 2.039692 0.000000 
-1.708694 -0.457942 0.000000 
-1.726386 -0.417679 0.000000 
-1.761257 -0.393658 0.000000 
-1.812853 -0.385810 0.000000 
-0.690422 -0.638145 0.000000 
-0.624256 -0.656073 0.000000 
-0.561079 -0.664254 0.000000 
-0.500739 -0.665710 0.000000 
-0.445387 -0.665772 0.000000 
0.532260 -0.411863 0.000000 
0.536647 -0.342530 0.000000 
-1.881389 -0.373309 0.000000 
-0.389303 -0.663498 0.000000 
-0.340338 -0.648212 0.000000 
-0.344339 -0.594077 0.000000 
-0.358558 -0.541538 0.000000 
-0.381750 -0.500626 0.000000 
-0.406193 -0.466451 0.000000 
-0.417316 -0.434954 0.000000 
-0.428320 -0.400697 0.000000 
-0.436973 -0.356432 0.000000 
-0.444212 -0.300889 0.000000 
-0.452662 -0.242031 0.000000 
-0.468602 -0.185132 0.000000 
0.553166 -0.277815 0.000000 
0.573193 -0.220144 0.000000 
0.574450 -0.168403 0.000000 
0.561087 -0.118083 0.000000 
0.550432 -0.062760 0.000000 
0.748903 1.986374 0.000000 
0.730940 1.929882 0.000000 
0.715868 1.883723 0.000000 
0.699446 1.847595 0.000000 
0.684888 1.806605 0.000000 
0.675900 1.760401 0.000000 
0.669871 1.710841 0.000000 
0.664455 1.662984 0.000000 
0.668163 1.616565 0.000000 
0.672091 1.566731 0.000000 
0.674558 1.518708 0.000000 
0.673045 1.468628 0.000000 
0.386491 1.947814 0.000000 
0.664855 1.409889 0.000000 
0.652298 1.351812 0.000000 
0.638456 1.298162 0.000000 
0.623121 1.248652 0.000000 
0.616008 1.205625 0.000000 
0.600787 1.170682 0.000000 
0.571289 1.141234 0.000000 
0.539016 1.110072 0.000000 
0.513857 1.081173 0.000000 
0.493343 1.054938 0.000000 
0.469109 1.037126 0.000000 
0.444920 1.020681 0.000000 
0.415324 0.999715 0.000000 
0.383540 0.974963 0.000000 
0.356179 0.945631 0.000000 
0.343879 0.906731 0.000000 
0.337476 0.861211 0.000000 
0.332404 0.815924 0.000000 
0.328512 0.776234 0.000000 
0.319594 0.740155 0.000000 
0.304149 0.706744 0.000000 
0.290502 0.666353 0.000000 
0.275896 0.618491 0.000000 
0.261905 0.576521 0.000000 
0.250150 0.542926 0.000000 
0.250896 0.505121 0.000000 
0.259587 0.462518 0.000000 
0.284617 0.419745 0.000000 
0.315237 0.390084 0.000000 
0.340022 0.370647 0.000000 
0.354380 0.344798 0.000000 
0.368685 0.317655 0.000000 
0.385568 0.291259 0.000000 
0.415372 0.266462 0.000000 
0.447119 0.234750 0.000000 
0.477633 0.206833 0.000000 
0.503078 0.178897 0.000000 
0.518876 0.140843 0.000000 
0.527127 0.104874 0.000000 
0.534187 0.060329 0.000000 
0.543185 -0.000451 0.000000 
0.322519 1.936758 0.000000 
0.263849 1.923641 0.000000 
0.208223 1.918221 0.000000 
0.150441 1.914393 0.000000 
-0.687392 -0.565078 0.000000 
-3.327058 1.961995 0.000000 
-3.276080 1.915574 0.000000 
-3.224941 1.881987 0.000000 
-3.181728 1.852829 0.000000 
-3.135074 1.815899 0.000000 
-3.078123 1.791606 0.000000 
-1.944260 -0.328431 0.000000 
0.083204 1.919549 0.000000 
0.005786 1.914196 0.000000 
-0.071812 1.923434 0.000000 
-0.135705 1.952976 0.000000 
-0.182391 1.994582 0.000000 
-1.999041 -0.257462 0.000000 
-1.843230 -0.531971 0.000000 
-0.491126 -0.121172 0.000000 
-0.512312 -0.047929 0.000000 
-0.526535 0.014903 0.000000 
-0.527935 0.077025 0.000000 
-0.524207 0.144195 0.000000 
-0.505864 0.201327 0.000000 
-0.468875 0.250539 0.000000 
-0.410369 0.279784 0.000000 
-0.354013 0.300901 0.000000 
-0.301050 0.310846 0.000000 
-0.255730 0.311619 0.000000 
-0.695595 -0.486782 0.000000 
-0.726457 -0.409901 0.000000 
-0.747352 -0.340445 0.000000 
-3.396487 1.904860 0.000000 
-3.344056 1.825472 0.000000 
-3.294256 1.782071 0.000000 
-3.248246 1.743747 0.000000 
-3.196818 1.704394 0.000000 
-3.159669 1.653083 0.000000 
-3.113281 1.606379 0.000000 
-3.056061 1.586815 0.000000 
-2.996684 1.564191 0.000000 
-2.933161 1.534574 0.000000 
-2.879064 1.498432 0.000000 
-2.813006 1.473646 0.000000 
-2.751664 1.450596 0.000000 
-2.686782 1.421273 0.000000 
-1.922020 -0.529164 0.000000 
-1.999705 -0.530663 0.000000 
-2.060018 -0.509059 0.000000 
-2.032615 -0.174072 0.000000 
-2.048550 -0.088350 0.000000 
-2.029059 -0.022457 0.000000 
-2.105228 -0.452001 0.000000 
-2.154373 -0.384406 0.000000 
-2.203584 -0.329782 0.000000 
-2.237020 -0.268347 0.000000 
-2.250593 -0.203054 0.000000 
-2.270119 -0.131270 0.000000 
-2.297898 -0.060960 0.000000 
-2.327118 0.000620 0.000000 
-2.346747 0.054590 0.000000 
-2.362840 0.107699 0.000000 
-2.374561 0.158744 0.000000 
-2.373128 0.210719 0.000000 
-2.334174 0.277310 0.000000 
-2.331842 0.317928 0.000000 
-2.284565 0.326687 0.000000 
-0.236368 2.044117 0.000000 
-0.299146 2.087944 0.000000 
-0.346614 2.107869 0.000000 
-0.382877 2.071366 0.000000 
-0.412447 2.042316 0.000000 
-0.433989 2.002028 0.000000 
-0.446472 1.959062 0.000000 
-0.451628 1.919744 0.000000 
-0.451047 1.881281 0.000000 
-0.449242 1.845278 0.000000 
-0.453345 1.813388 0.000000 
-0.460251 1.785695 0.000000 
-0.470304 1.756910 0.000000 
-0.475290 1.727420 0.000000 
-0.478341 1.697634 0.000000 
-0.479442 1.660898 0.000000 
-2.609147 1.407484 0.000000 
-2.517189 1.401985 0.000000 
-2.434013 1.402322 0.000000 
-2.352624 1.392290 0.000000 
-2.274410 1.372919 0.000000 
-2.204499 1.338271 0.000000 
-2.180326 1.269388 0.000000 
-2.178559 1.180852 0.000000 
-2.168273 1.090823 0.000000 
-2.159086 0.992759 0.000000 
-2.144575 0.903600 0.000000 
-2.163040 0.828383 0.000000 
-2.183612 0.754291 0.000000 
-2.172907 0.689734 0.000000 
-2.161614 0.626979 0.000000 
-2.169833 0.566867 0.000000 
-2.188987 0.505114 0.000000 
-2.218663 0.453868 0.000000 
-2.229021 0.397995 0.000000 
-2.997130 1.774809 0.000000 
-3.021908 1.676671 0.000000 
-2.902046 1.743302 0.000000 
-0.770600 -0.257852 0.000000 
-0.790096 -0.166193 0.000000 
-0.811857 -0.085485 0.000000 
-0.835807 -0.006921 0.000000 
-0.859157 0.063207 0.000000 
-0.881226 0.123258 0.000000 
-0.903169 0.182609 0.000000 
-0.928196 0.246653 0.000000 
-2.785442 1.710749 0.000000 
-2.944278 1.650007 0.000000 
-2.855014 1.612861 0.000000 
-2.796189 1.552781 0.000000 
-2.651235 1.696002 0.000000 
-2.517962 1.685655 0.000000 
-2.394240 1.676492 0.000000 
-2.275192 1.668496 0.000000 
-2.180847 1.643935 0.000000 
-2.099904 1.617455 0.000000 
-2.018420 1.586216 0.000000 
-1.945469 1.590513 0.000000 
-1.885190 1.623853 0.000000 
-1.829736 1.644422 0.000000 
-1.760875 1.669653 0.000000 
-1.680504 1.698078 0.000000 
-1.617798 1.716395 0.000000 
-1.570169 1.730918 0.000000 
-1.527149 1.745108 0.000000 
-1.482581 1.757237 0.000000 
-1.433927 1.763778 0.000000 
-1.386311 1.771693 0.000000 
-1.337319 1.780423 0.000000 
-1.286363 1.787503 0.000000 
-1.235962 1.788220 0.000000 
-1.188452 1.793033 0.000000 
-1.140860 1.802484 0.000000 
-1.091558 1.801793 0.000000 
-1.038962 1.790775 0.000000 
-0.982519 1.771777 0.000000 
-0.922315 1.755035 0.000000 
-0.869867 1.744710 0.000000 
-0.827747 1.738220 0.000000 
-0.785371 1.733308 0.000000 
-0.748025 1.723571 0.000000 
-0.712781 1.713304 0.000000 
-0.681690 1.699372 0.000000 
-0.657198 1.688238 0.000000 
-0.633895 1.681575 0.000000 
-0.612002 1.677120 0.000000 
-0.594184 1.669907 0.000000 
-0.577381 1.660457 0.000000 
-0.560109 1.645173 0.000000 
-0.540091 1.612719 0.000000 
-1.243914 -0.026127 0.000000 
-1.232782 -0.012410 0.000000 
-1.257376 -0.040481 0.000000 
-1.224378 0.006290 0.000000 
-1.271472 -0.059826 0.000000 
-1.215702 0.028287 0.000000 
-1.204660 0.054343 0.000000 
-1.290143 -0.087568 0.000000 
-1.314447 -0.132608 0.000000 
-1.190204 0.084650 0.000000 
-1.318041 -0.185962 0.000000 
-1.171655 0.118806 0.000000 
-1.149359 0.155120 0.000000 
-1.123094 0.193369 0.000000 
-1.284246 -0.235942 0.000000 
-1.239750 -0.286668 0.000000 
-1.083297 0.237360 0.000000 
-1.028190 0.269031 0.000000 
-1.181630 -0.329024 0.000000 
-1.112789 -0.360452 0.000000 
-1.040643 -0.372622 0.000000 
-0.978118 -0.375709 0.000000 
-0.927392 -0.388734 0.000000 
-0.889718 -0.427869 0.000000 
-0.873564 -0.484419 0.000000 
-0.920771 -0.516613 0.000000 
-0.935346 -0.449345 0.000000 
-0.991249 -0.526189 0.000000 
-1.088918 -0.523461 0.000000 
-1.067426 -0.443809 0.000000 
-1.189474 -0.515897 0.000000 
-1.147229 -0.431142 0.000000 
-1.266509 -0.492607 0.000000 
-1.219913 -0.404964 0.000000 
-1.335307 -0.456781 0.000000 
-1.284456 -0.366965 0.000000 
-1.402357 -0.412877 0.000000 
-1.341444 -0.319165 0.000000 
-1.466758 -0.360201 0.000000 
-1.539152 -0.299402 0.000000 
-1.393011 -0.261234 0.000000 
-1.612839 -0.229131 0.000000 
-1.665320 -0.171553 0.000000 
-1.691220 -0.106726 0.000000 
-1.704696 -0.021232 0.000000 
-1.850073 0.145637 0.000000 
-1.911042 0.089812 0.000000 
-1.969645 0.032975 0.000000 
-1.726970 0.085178 0.000000 
-0.222881 0.293008 0.000000 
-0.195707 0.265425 0.000000 
-0.164205 0.228478 0.000000 
-0.127520 0.195780 0.000000 
-0.095686 0.166288 0.000000 
-0.059027 0.137810 0.000000 
-0.018954 0.107827 0.000000 
0.030296 0.076556 0.000000 
0.086536 0.056030 0.000000 
0.141893 0.037299 0.000000 
0.202102 0.008019 0.000000 
0.263408 -0.031898 0.000000 
0.311661 -0.081885 0.000000 
0.333954 -0.141507 0.000000 
0.338621 -0.201958 0.000000 
0.341530 -0.255896 0.000000 
0.353165 -0.306085 0.000000 
0.365710 -0.364507 0.000000 
0.363543 -0.434036 0.000000 
[...]
POINT_DATA 899 
VECTORS X_GC float 
-3.648847 2.233028 0.000000 
-3.619410 2.192476 0.000000 
-3.578536 2.156881 0.000000 
-3.540028 2.121230 0.000000 
-3.511690 2.089035 0.000000 
-3.481362 2.059177 0.000000 
-3.451569 2.018503 0.000000 
0.772356 2.135542 0.000000 
0.774615 2.109421 0.000000 
0.769962 2.080667 0.000000 
-3.399514 1.988227 0.000000 
0.413960 -0.656615 0.000000 
0.455573 -0.652312 0.000000 
-1.762619 -0.556510 0.000000 
-1.783389 -0.521114 0.000000 
-1.714437 -0.492325 0.000000 
0.732567 2.129866 0.000000 
0.698438 2.116030 0.000000 
0.491831 -0.638109 0.000000 
0.519501 -0.607704 0.000000 
0.530556 -0.567258 0.000000 
0.532354 -0.521453 0.000000 
0.531774 -0.470947 0.000000 
-3.460923 1.926495 0.000000 
0.663989 2.094084 0.000000 
0.631675 2.066689 0.000000 
0.601833 2.042634 0.000000 
0.569607 2.019376 0.000000 
0.534059 1.997299 0.000000 
0.492599 1.976159 0.000000 
0.444403 1.957494 0.000000 
0.762807 2.039692 0.000000 
-1.708694 -0.457942 0.000000 
-1.726386 -0.417679 0.000000 
-1.761257 -0.393658 0.000000 
-1.812853 -0.385810 0.000000 
-0.690422 -0.638145 0.000000 
-0.624256 -0.656073 0.000000 
-0.561079 -0.664254 0.000000 
-0.500739 -0.665710 0.000000 
-0.445387 -0.665772 0.000000 
0.532260 -0.411863 0.000000 
0.536647 -0.342530 0.000000 
-1.881389 -0.373309 0.000000 
-0.389303 -0.663498 0.000000 
-0.340338 -0.648212 0.000000 
-0.344339 -0.594077 0.000000 
-0.358558 -0.541538 0.000000 
-0.381750 -0.500626 0.000000 
-0.406193 -0.466451 0.000000 
-0.417316 -0.434954 0.000000 
-0.428320 -0.400697 0.000000 
-0.436973 -0.356432 0.000000 
-0.444212 -0.300889 0.000000 
-0.452662 -0.242031 0.000000 
-0.468602 -0.185132 0.000000 
0.553166 -0.277815 0.000000 
0.573193 -0.220144 0.000000 
0.574450 -0.168403 0.000000 
0.561087 -0.118083 0.000000 
0.550432 -0.062760 0.000000 
0.748903 1.986374 0.000000 
0.730940 1.929882 0.000000 
0.715868 1.883723 0.000000 
0.699446 1.847595 0.000000 
0.684888 1.806605 0.000000 
0.675900 1.760401 0.000000 
0.669871 1.710841 0.000000 
0.664455 1.662984 0.000000 
0.668163 1.616565 0.000000 
0.672091 1.566731 0.000000 
0.674558 1.518708 0.000000 
0.673045 1.468628 0.000000 
0.386491 1.947814 0.000000 
0.664855 1.409889 0.000000 
0.652298 1.351812 0.000000 
0.638456 1.298162 0.000000 
0.623121 1.248652 0.000000 
0.616008 1.205625 0.000000 
0.600787 1.170682 0.000000 
0.571289 1.141234 0.000000 
0.539016 1.110072 0.000000 
0.513857 1.081173 0.000000 
0.493343 1.054938 0.000000 
0.469109 1.037126 0.000000 
0.444920 1.020681 0.000000 
0.415324 0.999715 0.000000 
0.383540 0.974963 0.000000 
0.356179 0.945631 0.000000 
0.343879 0.906731 0.000000 
0.337476 0.861211 0.000000 
0.332404 0.815924 0.000000 
0.328512 0.776234 0.000000 
0.319594 0.740155 0.000000 
0.304149 0.706744 0.000000 
0.290502 0.666353 0.000000 
0.275896 0.618491 0.000000 
0.261905 0.576521 0.000000 
0.250150 0.542926 0.000000 
0.250896 0.505121 0.000000 
0.259587 0.462518 0.000000 
0.284617 0.419745 0.000000 
0.315237 0.390084 0.000000 
0.340022 0.370647 0.000000 
0.354380 0.344798 0.000000 
0.368685 0.317655 0.000000 
0.385568 0.291259 0.000000 
0.415372 0.266462 0.000000 
0.447119 0.234750 0.000000 
0.477633 0.206833 0.000000 
0.503078 0.178897 0.000000 
0.518876 0.140843 0.000000 
0.527127 0.104874 0.000000 
0.534187 0.060329 0.000000 
0.543185 -0.000451 0.000000 
0.322519 1.936758 0.000000 
0.263849 1.923641 0.000000 
0.208223 1.918221 0.000000 
0.150441 1.914393 0.000000 
-0.687392 -0.565078 0.000000 
-3.327058 1.961995 0.000000 
-3.276080 1.915574 0.000000 
-3.224941 1.881987 0.000000 
-3.181728 1.852829 0.000000 
-3.135074 1.815899 0.000000 
-3.078123 1.791606 0.000000 
-1.944260 -0.328431 0.000000 
0.083204 1.919549 0.000000 
0.005786 1.914196 0.000000 
-0.071812 1.923434 0.000000 
-0.135705 1.952976 0.000000 
-0.182391 1.994582 0.000000 
-1.999041 -0.257462 0.000000 
-1.843230 -0.531971 0.000000 
-0.491126 -0.121172 0.000000 
-0.512312 -0.047929 0.000000 
-0.526535 0.014903 0.000000 
-0.527935 0.077025 0.000000 
-0.524207 0.144195 0.000000 
-0.505864 0.201327 0.000000 
-0.468875 0.250539 0.000000 
-0.410369 0.279784 0.000000 
-0.354013 0.300901 0.000000 
-0.301050 0.310846 0.000000 
-0.255730 0.311619 0.000000 
-0.695595 -0.486782 0.000000 
-0.726457 -0.409901 0.000000 
-0.747352 -0.340445 0.000000 
-3.396487 1.904860 0.000000 
-3.344056 1.825472 0.000000 
-3.294256 1.782071 0.000000 
-3.248246 1.743747 0.000000 
-3.196818 1.704394 0.000000 
-3.159669 1.653083 0.000000 
-3.113281 1.606379 0.000000 
-3.056061 1.586815 0.000000 
-2.996684 1.564191 0.000000 
-2.933161 1.534574 0.000000 
-2.879064 1.498432 0.000000 
-2.813006 1.473646 0.000000 
-2.751664 1.450596 0.000000 
-2.686782 1.421273 0.000000 
-1.922020 -0.529164 0.000000 
-1.999705 -0.530663 0.000000 
-2.060018 -0.509059 0.000000 
-2.032615 -0.174072 0.000000 
-2.048550 -0.088350 0.000000 
-2.029059 -0.022457 0.000000 
-2.105228 -0.452001 0.000000 
-2.154373 -0.384406 0.000000 
-2.203584 -0.329782 0.000000 
-2.237020 -0.268347 0.000000 
-2.250593 -0.203054 0.000000 
-2.270119 -0.131270 0.000000 
-2.297898 -0.060960 0.000000 
-2.327118 0.000620 0.000000 
-2.346747 0.054590 0.000000 
-2.362840 0.107699 0.000000 
-2.374561 0.158744 0.000000 
-2.373128 0.210719 0.000000 
-2.334174 0.277310 0.000000 
-2.331842 0.317928 0.000000 
-2.284565 0.326687 0.000000 
-0.236368 2.044117 0.000000 
-0.299146 2.087944 0.000000 
-0.346614 2.107869 0.000000 
-0.382877 2.071366 0.000000 
-0.412447 2.042316 0.000000 
-0.433989 2.002028 0.000000 
-0.446472 1.959062 0.000000 
-0.451628 1.919744 0.000000 
-0.451047 1.881281 0.000000 
-0.449242 1.845278 0.000000 
-0.453345 1.813388 0.000000 
-0.460251 1.785695 0.000000 
-0.470304 1.756910 0.000000 
-0.475290 1.727420 0.000000 
-0.478341 1.697634 0.000000 
-0.479442 1.660898 0.000000 
-2.609147 1.407484 0.000000 
-2.517189 1.401985 0.000000 
-2.434013 1.402322 0.000000 
-2.352624 1.392290 0.000000 
-2.274410 1.372919 0.000000 
-2.204499 1.338271 0.000000 
-2.180326 1.269388 0.000000 
-2.178559 1.180852 0.000000 
-2.168273 1.090823 0.000000 
-2.159086 0.992759 0.000000 
-2.144575 0.903600 0.000000 
-2.163040 0.828383 0.000000 
-2.183612 0.754291 0.000000 
-2.172907 0.689734 0.000000 
-2.161614 0.626979 0.000000 
-2.169833 0.566867 0.000000 
-2.188987 0.505114 0.000000 
-2.218663 0.453868 0.000000 
-2.229021 0.397995 0.000000 
-2.997130 1.774809 0.000000 
-3.021908 1.676671 0.000000 
-2.902046 1.743302 0.000000 
-0.770600 -0.257852 0.000000 
-0.790096 -0.166193 0.000000 
-0.811857 -0.085485 0.000000 
-0.835807 -0.006921 0.000000 
-0.859157 0.063207 0.000000 
-0.881226 0.123258 0.000000 
-0.903169 0.182609 0.000000 
-0.928196 0.246653 0.000000 
-2.785442 1.710749 0.000000 
-2.944278 1.650007 0.000000 
-2.855014 1.612861 0.000000 
-2.796189 1.552781 0.000000 
-2.651235 1.696002 0.000000 
-2.517962 1.685655 0.000000 
-2.394240 1.676492 0.000000 
-2.275192 1.668496 0.000000 
-2.180847 1.643935 0.000000 
-2.099904 1.617455 0.000000 
-2.018420 1.586216 0.000000 
-1.945469 1.590513 0.000000 
-1.885190 1.623853 0.000000 
-1.829736 1.644422 0.000000 
-1.760875 1.669653 0.000000 
-1.680504 1.698078 0.000000 
-1.617798 1.716395 0.000000 
-1.570169 1.730918 0.000000 
-1.527149 1.745108 0.000000 
-1.482581 1.757237 0.000000 
-1.433927 1.763778 0.000000 
-1.386311 1.771693 0.000000 
-1.337319 1.780423 0.000000 
-1.286363 1.787503 0.000000 
-1.235962 1.788220 0.000000 
-1.188452 1.793033 0.000000 
-1.140860 1.802484 0.000000 
-1.091558 1.801793 0.000000 
-1.038962 1.790775 0.000000 
-0.982519 1.771777 0.000000 
-0.922315 1.755035 0.000000 
-0.869867 1.744710 0.000000 
-0.827747 1.738220 0.000000 
-0.785371 1.733308 0.000000 
-0.748025 1.723571 0.000000 
-0.712781 1.713304 0.000000 
-0.681690 1.699372 0.000000 
-0.657198 1.688238 0.000000 
-0.633895 1.681575 0.000000 
-0.612002 1.677120 0.000000 
-0.594184 1.669907 0.000000 
-0.577381 1.660457 0.000000 
-0.560109 1.645173 0.000000 
-0.540091 1.612719 0.000000 
-1.243914 -0.026127 0.000000 
-1.232782 -0.012410 0.000000 
-1.257376 -0.040481 0.000000 
-1.224378 0.006290 0.000000 
-1.271472 -0.059826 0.000000 
-1.215702 0.028287 0.000000 
-1.204660 0.054343 0.000000 
-1.290143 -0.087568 0.000000 
-1.314447 -0.132608 0.000000 
-1.190204 0.084650 0.000000 
-1.318041 -0.185962 0.000000 
-1.171655 0.118806 0.000000 
-1.149359 0.155120 0.000000 
-1.123094 0.193369 0.000000 
-1.284246 -0.235942 0.000000 
-1.239750 -0.286668 0.000000 
-1.083297 0.237360 0.000000 
-1.028190 0.269031 0.000000 
-1.181630 -0.329024 0.000000 
-1.112789 -0.360452 0.000000 
-1.040643 -0.372622 0.000000 
-0.978118 -0.375709 0.000000 
-0.927392 -0.388734 0.000000 
-0.889718 -0.427869 0.000000 
-0.873564 -0.484419 0.000000 
-0.920771 -0.516613 0.000000 
-0.935346 -0.449345 0.000000 
-0.991249 -0.526189 0.000000 
-1.088918 -0.523461 0.000000 
-1.067426 -0.443809 0.000000 
-1.189474 -0.515897 0.000000 
-1.147229 -0.431142 0.000000 
-1.266509 -0.492607 0.000000 
-1.219913 -0.404964 0.000000 
-1.335307 -0.456781 0.000000 
-1.284456 -0.366965 0.000000 
-1.402357 -0.412877 0.000000 
-1.341444 -0.319165 0.000000 
-1.466758 -0.360201 0.000000 
-1.539152 -0.299402 0.000000 
-1.393011 -0.261234 0.000000 
-1.612839 -0.229131 0.000000 
-1.665320 -0.171553 0.000000 
-1.691220 -0.106726 0.000000 
-1.704696 -0.021232 0.000000 
-1.850073 0.145637 0.000000 
-1.911042 0.089812 0.000000 
-1.969645 0.032975 0.000000 
-1.726970 0.085178 0.000000 
-0.222881 0.293008 0.000000 
-0.195707 0.265425 0.000000 
-0.164205 0.228478 0.000000 
-0.127520 0.195780 0.000000 
-0.095686 0.166288 0.000000 
-0.059027 0.137810 0.000000 
-0.018954 0.107827 0.000000 
0.030296 0.076556 0.000000 
0.086536 0.056030 0.000000 
0.141893 0.037299 0.000000 
0.202102 0.008019 0.000000 
0.263408 -0.031898 0.000000 
0.311661 -0.081885 0.000000 
0.333954 -0.141507 0.000000 
0.338621 -0.201958 0.000000 
0.341530 -0.255896 0.000000 
0.353165 -0.306085 0.000000 
0.365710 -0.364507 0.000000 
0.363543 -0.434036 0.000000 
0.357353 -0.496151 0.000000 
0.351188 -0.546893 0.000000 
0.363842 -0.593921 0.000000 
-1.737069 -0.460572 0.000000 
-0.199590 0.345626 0.000000 
-0.156305 0.315709 0.000000 
-0.462327 1.581665 0.000000 
0.741313 2.104240 0.000000 
0.482415 -0.604692 0.000000 
0.446104 -0.612588 0.000000 
0.403556 -0.618242 0.000000 
-0.104001 0.287644 0.000000 
-0.514998 1.513720 0.000000 
-0.059937 0.253240 0.000000 
0.738519 2.078975 0.000000 
0.714572 2.091275 0.000000 
-0.249752 0.372449 0.000000 
-0.036232 0.209441 0.000000 
0.000772 0.181609 0.000000 
0.035161 0.155964 0.000000 
-1.776537 -0.460014 0.000000 
-1.836238 -0.455829 0.000000 
-0.309416 0.386549 0.000000 
-0.378944 0.384285 0.000000 
-2.292732 0.263873 0.000000 
-2.315166 0.213882 0.000000 
-2.314418 0.166325 0.000000 
-2.293418 0.119939 0.000000 
-2.279687 0.070060 0.000000 
-2.253462 0.022794 0.000000 
0.075120 0.128222 0.000000 
0.131113 0.115614 0.000000 
-0.977004 0.317597 0.000000 
-0.860050 0.307432 0.000000 
-1.912142 -0.447773 0.000000 
-1.989966 -0.456553 0.000000 
-2.023752 -0.389011 0.000000 
-2.082175 -0.317750 0.000000 
0.723889 2.047462 0.000000 
0.691466 2.066305 0.000000 
0.665980 2.033658 0.000000 
0.704783 2.006390 0.000000 
0.637970 1.995600 0.000000 
0.681732 1.959181 0.000000 
0.670916 1.913006 0.000000 
0.602858 1.963932 0.000000 
0.659584 1.872582 0.000000 
0.560783 1.937561 0.000000 
0.636111 1.836507 0.000000 
0.607495 1.786717 0.000000 
0.595324 1.723236 0.000000 
0.604052 1.658563 0.000000 
0.514160 1.908157 0.000000 
0.453857 1.880712 0.000000 
0.392525 1.878734 0.000000 
0.334098 1.877206 0.000000 
0.278675 1.858452 0.000000 
0.217273 1.840377 0.000000 
0.149449 1.823021 0.000000 
0.614128 1.606287 0.000000 
0.621313 1.558708 0.000000 
0.624262 1.513828 0.000000 
-2.197766 -0.030394 0.000000 
-2.158682 -0.105318 0.000000 
-2.124695 0.028936 0.000000 
-2.150589 -0.271444 0.000000 
-2.141926 -0.193899 0.000000 
-0.393439 -0.610459 0.000000 
-0.412631 -0.566415 0.000000 
-0.436983 -0.525812 0.000000 
-0.445953 -0.482392 0.000000 
-0.458251 -0.449566 0.000000 
-0.479726 -0.414800 0.000000 
-0.496934 -0.366069 0.000000 
-0.509002 -0.310986 0.000000 
-0.517157 -0.256655 0.000000 
-0.545309 -0.205380 0.000000 
-0.442273 -0.607853 0.000000 
-0.496002 -0.598336 0.000000 
-0.557668 -0.600443 0.000000 
-0.618975 -0.584962 0.000000 
-0.334659 2.046056 0.000000 
-0.367985 2.016339 0.000000 
-0.385153 1.979913 0.000000 
-0.396797 1.946046 0.000000 
-0.406285 1.910524 0.000000 
-0.402558 1.871390 0.000000 
-0.406645 1.832947 0.000000 
-0.418378 1.800533 0.000000 
-0.428059 1.771407 0.000000 
-0.435849 1.741860 0.000000 
-0.442335 1.711825 0.000000 
-0.445406 1.678760 0.000000 
-0.444483 1.633044 0.000000 
0.619822 1.468096 0.000000 
-1.077870 0.364661 0.000000 
-1.149036 0.322702 0.000000 
-1.174735 0.247860 0.000000 
-1.192231 0.196137 0.000000 
-1.210811 0.154360 0.000000 
-1.228352 0.115020 0.000000 
-1.238869 0.077040 0.000000 
-1.244643 0.045543 0.000000 
-1.248534 0.020642 0.000000 
-1.252336 0.001354 0.000000 
-1.262323 -0.011897 0.000000 
-1.280319 -0.022813 0.000000 
-0.451814 0.361625 0.000000 
-0.526928 0.318103 0.000000 
0.194935 0.098622 0.000000 
0.069048 1.808921 0.000000 
-0.574175 0.247419 0.000000 
-0.593607 0.166316 0.000000 
-1.764101 0.206001 0.000000 
-2.210991 0.324857 0.000000 
-0.825996 0.222155 0.000000 
-0.799223 0.151074 0.000000 
-0.760911 0.084641 0.000000 
0.605964 1.417145 0.000000 
0.587834 1.359784 0.000000 
0.576354 1.299936 0.000000 
0.574971 1.244927 0.000000 
0.580375 1.201903 0.000000 
0.545179 1.179519 0.000000 
0.509957 1.147256 0.000000 
0.484198 1.110854 0.000000 
0.468721 1.079700 0.000000 
0.449386 1.061168 0.000000 
0.422962 1.048503 0.000000 
0.391379 1.029352 0.000000 
0.357154 1.005289 0.000000 
0.323730 0.976916 0.000000 
-0.582151 -0.144512 0.000000 
0.265957 0.072192 0.000000 
0.333763 0.026063 0.000000 
0.378371 -0.040953 0.000000 
0.400918 -0.115348 0.000000 
0.401084 -0.178337 0.000000 
0.404345 -0.232438 0.000000 
0.432648 -0.283520 0.000000 
0.450030 -0.347961 0.000000 
0.529803 -0.194808 0.000000 
0.491947 -0.242945 0.000000 
0.453243 -0.193061 0.000000 
0.449550 -0.422285 0.000000 
0.498420 -0.148934 0.000000 
0.474171 -0.088993 0.000000 
0.457863 -0.014420 0.000000 
0.462195 -0.480939 0.000000 
0.478704 -0.527275 0.000000 
0.483460 -0.568241 0.000000 
0.412910 -0.506581 0.000000 
0.398390 -0.545294 0.000000 
0.404290 -0.579582 0.000000 
0.442452 -0.575023 0.000000 
0.436659 -0.539859 0.000000 
-0.727378 0.010508 0.000000 
-0.616071 0.092526 0.000000 
-0.623548 0.018246 0.000000 
-0.605779 -0.062762 0.000000 
-0.706340 -0.075210 0.000000 
-0.681483 -0.161472 0.000000 
-0.032304 1.803361 0.000000 
-0.128010 1.839510 0.000000 
-0.195732 1.906634 0.000000 
-0.243911 1.960548 0.000000 
-0.287859 2.007951 0.000000 
-0.335518 1.980256 0.000000 
-0.667608 -0.246853 0.000000 
-0.584906 -0.253621 0.000000 
-0.658169 -0.326861 0.000000 
-0.578442 -0.318991 0.000000 
-0.639050 -0.398304 0.000000 
-0.607982 -0.473821 0.000000 
-0.562541 -0.381691 0.000000 
-0.536184 -0.442714 0.000000 
-0.495978 -0.480676 0.000000 
-0.500680 -0.533070 0.000000 
-0.573051 -0.537523 0.000000 
-2.690892 1.576655 0.000000 
-2.684799 1.490642 0.000000 
-2.602920 1.489380 0.000000 
-2.574381 1.574373 0.000000 
-2.518122 1.509247 0.000000 
-2.424460 1.533145 0.000000 
-2.320006 1.524214 0.000000 
-2.229986 1.500596 0.000000 
-2.146342 1.459356 0.000000 
-1.455055 -0.202252 0.000000 
-1.387692 -0.121929 0.000000 
-1.339496 -0.068601 0.000000 
-1.304977 -0.040041 0.000000 
-1.531301 -0.136759 0.000000 
-1.604385 -0.092647 0.000000 
-1.592423 0.008034 0.000000 
-1.608296 0.131997 0.000000 
-1.827918 0.330442 0.000000 
0.477873 0.099245 0.000000 
0.477147 0.134144 0.000000 
0.465631 0.168384 0.000000 
-0.587742 1.612593 0.000000 
-0.593403 1.636697 0.000000 
-0.604579 1.649353 0.000000 
-0.619289 1.655039 0.000000 
-0.639577 1.652866 0.000000 
-0.665912 1.654482 0.000000 
-0.697937 1.661469 0.000000 
-0.595692 1.559105 0.000000 
-0.726123 1.676280 0.000000 
-0.757398 1.686851 0.000000 
-0.794522 1.684275 0.000000 
-0.841416 1.681697 0.000000 
-0.894922 1.683058 0.000000 
-0.956071 1.691474 0.000000 
-1.020951 1.710395 0.000000 
-1.077937 1.738030 0.000000 
-1.120258 1.766758 0.000000 
-1.171769 1.742498 0.000000 
0.332207 0.295889 0.000000 
0.333662 0.254154 0.000000 
0.321472 0.324506 0.000000 
0.302407 0.351318 0.000000 
0.214022 0.365980 0.000000 
0.194081 0.427005 0.000000 
0.186716 0.482518 0.000000 
0.189303 0.535290 0.000000 
0.360023 0.214472 0.000000 
0.405131 0.189339 0.000000 
0.201671 0.584536 0.000000 
0.218038 0.634797 0.000000 
0.236652 0.683730 0.000000 
0.256885 0.725664 0.000000 
0.278373 0.754158 0.000000 
0.284019 0.787556 0.000000 
0.276718 0.834304 0.000000 
0.278735 0.891117 0.000000 
0.296322 0.941384 0.000000 
-1.507867 1.694256 0.000000 
-1.548116 1.669613 0.000000 
-1.598023 1.642234 0.000000 
-1.467251 1.709029 0.000000 
-1.422160 1.716313 0.000000 
-1.373311 1.723029 0.000000 
-1.322903 1.730806 0.000000 
-1.275577 1.740052 0.000000 
-1.225048 1.738652 0.000000 
-1.662214 1.618565 0.000000 
-1.732600 1.598625 0.000000 
-1.794687 1.584249 0.000000 
-1.841773 1.555062 0.000000 
-2.078405 0.622335 0.000000 
-2.079214 0.700924 0.000000 
-2.097651 0.544735 0.000000 
-2.129318 0.472996 0.000000 
-2.096743 0.781486 0.000000 
-2.169699 0.417652 0.000000 
-1.991686 0.344652 0.000000 
-1.642187 0.270208 0.000000 
-1.989898 0.177427 0.000000 
-2.064526 0.105615 0.000000 
-1.914688 0.250962 0.000000 
-2.037969 1.034039 0.000000 
-2.021377 0.918354 0.000000 
-2.055796 1.163200 0.000000 
-2.102728 1.265853 0.000000 
-2.047875 1.408156 0.000000 
0.428030 0.154887 0.000000 
0.375625 0.133651 0.000000 
0.313454 0.146751 0.000000 
0.290352 0.292786 0.000000 
0.238487 1.003704 0.000000 
0.440631 0.116779 0.000000 
0.396678 0.077002 0.000000 
0.460488 0.051082 0.000000 
0.523747 1.227194 0.000000 
-2.262588 0.190448 0.000000 
-2.220468 0.246476 0.000000 
-2.218579 0.136937 0.000000 
-2.146376 0.188787 0.000000 
-2.206503 0.071867 0.000000 
0.473879 1.188582 0.000000 
0.446488 1.136250 0.000000 
0.440978 1.092231 0.000000 
0.409581 1.084376 0.000000 
0.629179 1.913272 0.000000 
0.593839 1.880798 0.000000 
0.550362 1.836594 0.000000 
0.483841 1.796172 0.000000 
0.202470 0.937340 0.000000 
0.241245 0.789564 0.000000 
0.205152 0.764763 0.000000 
0.175878 0.716623 0.000000 
0.153326 0.658116 0.000000 
0.132079 0.597666 0.000000 
0.113278 0.533210 0.000000 
0.106000 0.464887 0.000000 
0.109640 0.395691 0.000000 
0.121648 0.325013 0.000000 
0.032483 0.235399 0.000000 
0.246820 0.318077 0.000000 
0.099619 0.183764 0.000000 
0.373127 1.069494 0.000000 
-0.307911 1.932634 0.000000 
-0.360136 1.914165 0.000000 
-0.343252 1.859819 0.000000 
-0.270247 1.867963 0.000000 
0.168337 0.180282 0.000000 
0.242346 0.169945 0.000000 
0.270369 0.238982 0.000000 
0.505525 1.294955 0.000000 
-0.689828 0.122210 0.000000 
-0.729540 0.179614 0.000000 
-0.746154 0.254087 0.000000 
-0.657668 0.270651 0.000000 
-0.661195 0.186364 0.000000 
-0.924642 0.423326 0.000000 
-1.137284 1.686690 0.000000 
-1.072920 1.642096 0.000000 
-1.248127 1.698987 0.000000 
-1.304069 1.682664 0.000000 
-1.360197 1.675004 0.000000 
-1.411221 1.670865 0.000000 
-1.453165 1.667635 0.000000 
-1.486003 1.650173 0.000000 
-1.510814 1.606704 0.000000 
-1.558800 1.562035 0.000000 
-0.995058 1.615343 0.000000 
-0.919611 1.604866 0.000000 
-0.852227 1.611799 0.000000 
-0.796966 1.628317 0.000000 
-0.752732 1.647486 0.000000 
-1.635591 1.534702 0.000000 
-1.992480 0.809404 0.000000 
-1.965104 0.699624 0.000000 
-1.974377 0.596291 0.000000 
-2.014368 0.502670 0.000000 
-2.065453 0.419483 0.000000 
-2.071492 0.266416 0.000000 
-2.131272 0.349953 0.000000 
-1.712039 1.521379 0.000000 
-1.781280 1.521329 0.000000 
-1.884796 1.491273 0.000000 
0.516332 1.710935 0.000000 
0.538779 1.639807 0.000000 
0.517174 1.369340 0.000000 
0.552532 1.431277 0.000000 
0.576896 1.473203 0.000000 
0.583356 1.510229 0.000000 
0.576083 1.547234 0.000000 