# vtk DataFile Version 3.0 
vtk output 
ASCII 
DATASET UNSTRUCTURED_GRID 
POINTS 392 float 
-1.000000 1.000000 0.000000 
-1.000000 0.851852 0.000000 
-0.846154 1.000000 0.000000 
-0.846154 0.851852 0.000000 
-1.000000 0.703704 0.000000 
-0.692308 1.000000 0.000000 
-0.846154 0.703704 0.000000 
-0.692308 0.851852 0.000000 
-0.692308 0.703704 0.000000 
-1.000000 0.555556 0.000000 
-0.538462 1.000000 0.000000 
-0.846154 0.555556 0.000000 
-0.538462 0.851852 0.000000 
-0.692308 0.555556 0.000000 
-0.538462 0.703704 0.000000 
-1.000000 0.407407 0.000000 
-0.846154 0.407407 0.000000 
-0.384615 1.000000 0.000000 
-0.384615 0.851852 0.000000 
-0.538462 0.555556 0.000000 
-0.692308 0.407407 0.000000 
-0.384615 0.703704 0.000000 
-1.000000 0.259259 0.000000 
-0.538462 0.407407 0.000000 
-0.846154 0.259259 0.000000 
-0.384615 0.555556 0.000000 
-0.230769 1.000000 0.000000 
-0.230769 0.851852 0.000000 
-0.692308 0.259259 0.000000 
-0.230769 0.703704 0.000000 
-0.384615 0.407407 0.000000 
-0.538462 0.259259 0.000000 
-0.230769 0.555556 0.000000 
-1.000000 0.111111 0.000000 
-0.846154 0.111111 0.000000 
-0.076923 1.000000 0.000000 
-0.076923 0.851852 0.000000 
-0.692308 0.111111 0.000000 
-0.384615 0.259259 0.000000 
-0.076923 0.703704 0.000000 
-0.230769 0.407407 0.000000 
-0.538462 0.111111 0.000000 
-0.076923 0.555556 0.000000 
-1.000000 -0.037037 0.000000 
-0.846154 -0.037037 0.000000 
-0.230769 0.259259 0.000000 
0.076923 1.000000 0.000000 
-0.384615 0.111111 0.000000 
-0.692308 -0.037037 0.000000 
0.076923 0.851852 0.000000 
-0.076923 0.407407 0.000000 
0.076923 0.703704 0.000000 
-0.538462 -0.037037 0.000000 
0.076923 0.555556 0.000000 
-0.230769 0.111111 0.000000 
-0.076923 0.259259 0.000000 
-1.000000 -0.185185 0.000000 
-0.846154 -0.185185 0.000000 
-0.384615 -0.037037 0.000000 
-0.692308 -0.185185 0.000000 
0.076923 0.407407 0.000000 
0.230769 1.000000 0.000000 
0.230769 0.851852 0.000000 
0.230769 0.703704 0.000000 
-0.538462 -0.185185 0.000000 
-0.076923 0.111111 0.000000 
-0.230769 -0.037037 0.000000 
0.076923 0.259259 0.000000 
0.230769 0.555556 0.000000 
-1.000000 -0.333333 0.000000 
-0.384615 -0.185185 0.000000 
-0.846154 -0.333333 0.000000 
0.230769 0.407407 0.000000 
-0.692308 -0.333333 0.000000 
0.384615 1.000000 0.000000 
-0.076923 -0.037037 0.000000 
0.384615 0.851852 0.000000 
0.076923 0.111111 0.000000 
-0.538462 -0.333333 0.000000 
-0.230769 -0.185185 0.000000 
0.384615 0.703704 0.000000 
0.230769 0.259259 0.000000 
0.384615 0.555556 0.000000 
-0.384615 -0.333333 0.000000 
-1.000000 -0.481481 0.000000 
-0.846154 -0.481481 0.000000 
0.076923 -0.037037 0.000000 
-0.076923 -0.185185 0.000000 
0.384615 0.407407 0.000000 
-0.692308 -0.481481 0.000000 
0.230769 0.111111 0.000000 
0.538462 1.000000 0.000000 
-0.230769 -0.333333 0.000000 
0.538462 0.851852 0.000000 
-0.538462 -0.481481 0.000000 
0.538462 0.703704 0.000000 
0.384615 0.259259 0.000000 
0.538462 0.555556 0.000000 
0.076923 -0.185185 0.000000 
-0.384615 -0.481481 0.000000 
0.230769 -0.037037 0.000000 
-0.076923 -0.333333 0.000000 
-1.000000 -0.629630 0.000000 
-0.846154 -0.629630 0.000000 
0.384615 0.111111 0.000000 
0.538462 0.407407 0.000000 
-0.692308 -0.629630 0.000000 
-0.230769 -0.481481 0.000000 
0.692308 1.000000 0.000000 
-0.538462 -0.629630 0.000000 
0.692308 0.851852 0.000000 
0.538462 0.259259 0.000000 
0.230769 -0.185185 0.000000 
0.076923 -0.333333 0.000000 
0.692308 0.703704 0.000000 
0.384615 -0.037037 0.000000 
-0.384615 -0.629630 0.000000 
-0.076923 -0.481481 0.000000 
0.692308 0.555556 0.000000 
0.538462 0.111111 0.000000 
-1.000000 -0.777778 0.000000 
-0.846154 -0.777778 0.000000 
0.692308 0.407407 0.000000 
-0.230769 -0.629630 0.000000 
-0.692308 -0.777778 0.000000 
0.230769 -0.333333 0.000000 
0.384615 -0.185185 0.000000 
0.076923 -0.481481 0.000000 
-0.538462 -0.777778 0.000000 
0.846154 1.000000 0.000000 
0.692308 0.259259 0.000000 
0.846154 0.851852 0.000000 
0.538462 -0.037037 0.000000 
0.846154 0.703704 0.000000 
-0.076923 -0.629630 0.000000 
-0.384615 -0.777778 0.000000 
0.846154 0.555556 0.000000 
0.692308 0.111111 0.000000 
0.384615 -0.333333 0.000000 
-1.000000 -0.925926 0.000000 
0.230769 -0.481481 0.000000 
-0.846154 -0.925926 0.000000 
-0.230769 -0.777778 0.000000 
0.846154 0.407407 0.000000 
0.538462 -0.185185 0.000000 
-0.692308 -0.925926 0.000000 
0.076923 -0.629630 0.000000 
-0.538462 -0.925926 0.000000 
0.692308 -0.037037 0.000000 
0.846154 0.259259 0.000000 
1.000000 1.000000 0.000000 
-0.076923 -0.777778 0.000000 
1.000000 0.851852 0.000000 
1.000000 0.703704 0.000000 
-0.384615 -0.925926 0.000000 
0.384615 -0.481481 0.000000 
0.538462 -0.333333 0.000000 
0.230769 -0.629630 0.000000 
1.000000 0.555556 0.000000 
0.846154 0.111111 0.000000 
0.692308 -0.185185 0.000000 
-0.230769 -0.925926 0.000000 
-1.000000 -1.074074 0.000000 
0.076923 -0.777778 0.000000 
-0.846154 -1.074074 0.000000 
1.000000 0.407407 0.000000 
-0.692308 -1.074074 0.000000 
0.846154 -0.037037 0.000000 
-0.538462 -1.074074 0.000000 
1.000000 0.259259 0.000000 
-0.076923 -0.925926 0.000000 
0.538462 -0.481481 0.000000 
0.384615 -0.629630 0.000000 
0.692308 -0.333333 0.000000 
0.230769 -0.777778 0.000000 
-0.384615 -1.074074 0.000000 
1.000000 0.111111 0.000000 
0.846154 -0.185185 0.000000 
0.076923 -0.925926 0.000000 
-0.230769 -1.074074 0.000000 
-1.000000 -1.222222 0.000000 
-0.846154 -1.222222 0.000000 
0.538462 -0.629630 0.000000 
-0.692308 -1.222222 0.000000 
0.692308 -0.481481 0.000000 
1.000000 -0.037037 0.000000 
0.384615 -0.777778 0.000000 
-0.538462 -1.222222 0.000000 
-0.076923 -1.074074 0.000000 
0.846154 -0.333333 0.000000 
0.230769 -0.925926 0.000000 
-0.384615 -1.222222 0.000000 
1.000000 -0.185185 0.000000 
0.076923 -1.074074 0.000000 
0.692308 -0.629630 0.000000 
0.538462 -0.777778 0.000000 
-0.230769 -1.222222 0.000000 
0.846154 -0.481481 0.000000 
-1.000000 -1.370370 0.000000 
0.384615 -0.925926 0.000000 
-0.846154 -1.370370 0.000000 
-0.692308 -1.370370 0.000000 
1.000000 -0.333333 0.000000 
-0.076923 -1.222222 0.000000 
0.230769 -1.074074 0.000000 
-0.538462 -1.370370 0.000000 
-0.384615 -1.370370 0.000000 
0.692308 -0.777778 0.000000 
0.846154 -0.629630 0.000000 
0.538462 -0.925926 0.000000 
0.076923 -1.222222 0.000000 
1.000000 -0.481481 0.000000 
-0.230769 -1.370370 0.000000 
0.384615 -1.074074 0.000000 
-1.000000 -1.518519 0.000000 
-0.846154 -1.518519 0.000000 
-0.692308 -1.518519 0.000000 
0.230769 -1.222222 0.000000 
-0.076923 -1.370370 0.000000 
-0.538462 -1.518519 0.000000 
0.846154 -0.777778 0.000000 
0.692308 -0.925926 0.000000 
1.000000 -0.629630 0.000000 
0.538462 -1.074074 0.000000 
-0.384615 -1.518519 0.000000 
0.076923 -1.370370 0.000000 
0.384615 -1.222222 0.000000 
-0.230769 -1.518519 0.000000 
-1.000000 -1.666667 0.000000 
0.846154 -0.925926 0.000000 
0.230769 -1.370370 0.000000 
-0.846154 -1.666667 0.000000 
1.000000 -0.777778 0.000000 
0.692308 -1.074074 0.000000 
-0.076923 -1.518519 0.000000 
-0.692308 -1.666667 0.000000 
0.538462 -1.222222 0.000000 
-0.538462 -1.666667 0.000000 
-0.384615 -1.666667 0.000000 
0.076923 -1.518519 0.000000 
0.384615 -1.370370 0.000000 
-0.230769 -1.666667 0.000000 
1.000000 -0.925926 0.000000 
0.846154 -1.074074 0.000000 
0.692308 -1.222222 0.000000 
0.230769 -1.518519 0.000000 
-1.000000 -1.814815 0.000000 
-0.846154 -1.814815 0.000000 
-0.076923 -1.666667 0.000000 
0.538462 -1.370370 0.000000 
-0.692308 -1.814815 0.000000 
-0.538462 -1.814815 0.000000 
0.384615 -1.518519 0.000000 
0.076923 -1.666667 0.000000 
1.000000 -1.074074 0.000000 
-0.384615 -1.814815 0.000000 
0.846154 -1.222222 0.000000 
0.692308 -1.370370 0.000000 
-0.230769 -1.814815 0.000000 
0.230769 -1.666667 0.000000 
0.538462 -1.518519 0.000000 
-0.076923 -1.814815 0.000000 
-1.000000 -1.962963 0.000000 
-0.846154 -1.962963 0.000000 
-0.692308 -1.962963 0.000000 
1.000000 -1.222222 0.000000 
-0.538462 -1.962963 0.000000 
0.846154 -1.370370 0.000000 
0.384615 -1.666667 0.000000 
0.076923 -1.814815 0.000000 
-0.384615 -1.962963 0.000000 
0.692308 -1.518519 0.000000 
-0.230769 -1.962963 0.000000 
0.230769 -1.814815 0.000000 
0.538462 -1.666667 0.000000 
1.000000 -1.370370 0.000000 
-0.076923 -1.962963 0.000000 
-1.000000 -2.111111 0.000000 
-0.846154 -2.111111 0.000000 
0.846154 -1.518519 0.000000 
-0.692308 -2.111111 0.000000 
0.384615 -1.814815 0.000000 
-0.538462 -2.111111 0.000000 
0.076923 -1.962963 0.000000 
0.692308 -1.666667 0.000000 
-0.384615 -2.111111 0.000000 
-0.230769 -2.111111 0.000000 
0.538462 -1.814815 0.000000 
0.230769 -1.962963 0.000000 
1.000000 -1.518519 0.000000 
0.846154 -1.666667 0.000000 
-0.076923 -2.111111 0.000000 
-1.000000 -2.259259 0.000000 
-0.846154 -2.259259 0.000000 
0.384615 -1.962963 0.000000 
-0.692308 -2.259259 0.000000 
0.692308 -1.814815 0.000000 
-0.538462 -2.259259 0.000000 
0.076923 -2.111111 0.000000 
-0.384615 -2.259259 0.000000 
1.000000 -1.666667 0.000000 
0.538462 -1.962963 0.000000 
0.230769 -2.111111 0.000000 
-0.230769 -2.259259 0.000000 
0.846154 -1.814815 0.000000 
-0.076923 -2.259259 0.000000 
0.384615 -2.111111 0.000000 
-1.000000 -2.407407 0.000000 
-0.846154 -2.407407 0.000000 
0.692308 -1.962963 0.000000 
-0.692308 -2.407407 0.000000 
0.076923 -2.259259 0.000000 
-0.538462 -2.407407 0.000000 
1.000000 -1.814815 0.000000 
-0.384615 -2.407407 0.000000 
0.538462 -2.111111 0.000000 
0.230769 -2.259259 0.000000 
0.846154 -1.962963 0.000000 
-0.230769 -2.407407 0.000000 
-0.076923 -2.407407 0.000000 
0.384615 -2.259259 0.000000 
0.692308 -2.111111 0.000000 
-1.000000 -2.555556 0.000000 
-0.846154 -2.555556 0.000000 
-0.692308 -2.555556 0.000000 
0.076923 -2.407407 0.000000 
1.000000 -1.962963 0.000000 
-0.538462 -2.555556 0.000000 
0.538462 -2.259259 0.000000 
-0.384615 -2.555556 0.000000 
0.846154 -2.111111 0.000000 
0.230769 -2.407407 0.000000 
-0.230769 -2.555556 0.000000 
0.692308 -2.259259 0.000000 
-0.076923 -2.555556 0.000000 
0.384615 -2.407407 0.000000 
1.000000 -2.111111 0.000000 
-1.000000 -2.703704 0.000000 
-0.846154 -2.703704 0.000000 
0.076923 -2.555556 0.000000 
-0.692308 -2.703704 0.000000 
-0.538462 -2.703704 0.000000 
0.538462 -2.407407 0.000000 
0.846154 -2.259259 0.000000 
-0.384615 -2.703704 0.000000 
0.230769 -2.555556 0.000000 
-0.230769 -2.703704 0.000000 
0.692308 -2.407407 0.000000 
0.384615 -2.555556 0.000000 
-0.076923 -2.703704 0.000000 
1.000000 -2.259259 0.000000 
-1.000000 -2.851852 0.000000 
-0.846154 -2.851852 0.000000 
0.076923 -2.703704 0.000000 
-0.692308 -2.851852 0.000000 
0.538462 -2.555556 0.000000 
0.846154 -2.407407 0.000000 
-0.538462 -2.851852 0.000000 
-0.384615 -2.851852 0.000000 
0.230769 -2.703704 0.000000 
-0.230769 -2.851852 0.000000 
0.692308 -2.555556 0.000000 
1.000000 -2.407407 0.000000 
0.384615 -2.703704 0.000000 
-0.076923 -2.851852 0.000000 
0.076923 -2.851852 0.000000 
-1.000000 -3.000000 0.000000 
-0.846154 -3.000000 0.000000 
0.846154 -2.555556 0.000000 
0.538462 -2.703704 0.000000 
-0.692308 -3.000000 0.000000 
-0.538462 -3.000000 0.000000 
0.230769 -2.851852 0.000000 
-0.384615 -3.000000 0.000000 
0.692308 -2.703704 0.000000 
-0.230769 -3.000000 0.000000 
1.000000 -2.555556 0.000000 
0.384615 -2.851852 0.000000 
-0.076923 -3.000000 0.000000 
0.846154 -2.703704 0.000000 
0.076923 -3.000000 0.000000 
0.538462 -2.851852 0.000000 
0.230769 -3.000000 0.000000 
0.692308 -2.851852 0.000000 
1.000000 -2.703704 0.000000 
0.384615 -3.000000 0.000000 
0.846154 -2.851852 0.000000 
0.538462 -3.000000 0.000000 
1.000000 -2.851852 0.000000 
0.692308 -3.000000 0.000000 
0.846154 -3.000000 0.000000 
1.000000 -3.000000 0.000000 
CELLS 351 1755 
4 388  386  390  391 
4 384  379  386  388 
4 376  368  379  384 
4 362  356  368  376 
4 350  343  356  362 
4 336  330  343  350 
4 326  317  330  336 
4 313  304  317  326 
4 300  290  304  313 
4 289  279  290  300 
4 275  267  279  289 
4 265  256  267  275 
4 254  243  256  265 
4 242  229  243  254 
4 232  220  229  242 
4 222  208  220  232 
4 211  197  208  222 
4 202  189  197  211 
4 192  177  189  202 
4 185  167  177  192 
4 176  159  167  185 
4 169  149  159  176 
4 165  143  149  169 
4 158  136  143  165 
4 153  133  136  158 
4 152  131  133  153 
4 150  129  131  152 
4 386  383  389  390 
4 379  374  383  386 
4 368  361  374  379 
4 356  347  361  368 
4 343  333  347  356 
4 330  321  333  343 
4 317  309  321  330 
4 304  296  309  317 
4 290  284  296  304 
4 279  271  284  290 
4 267  257  271  279 
4 256  244  257  267 
4 243  233  244  256 
4 229  221  233  243 
4 220  207  221  229 
4 208  194  207  220 
4 197  184  194  208 
4 189  173  184  197 
4 177  160  173  189 
4 167  148  160  177 
4 159  137  148  167 
4 149  130  137  159 
4 143  122  130  149 
4 136  118  122  143 
4 133  114  118  136 
4 131  110  114  133 
4 129  108  110  131 
4 383  381  387  389 
4 374  369  381  383 
4 361  355  369  374 
4 347  342  355  361 
4 333  328  342  347 
4 321  315  328  333 
4 309  301  315  321 
4 296  287  301  309 
4 284  274  287  296 
4 271  260  274  284 
4 257  249  260  271 
4 244  236  249  257 
4 233  223  236  244 
4 221  209  223  233 
4 207  195  209  221 
4 194  182  195  207 
4 184  171  182  194 
4 173  156  171  184 
4 160  144  156  173 
4 148  132  144  160 
4 137  119  132  148 
4 130  111  119  137 
4 122  105  111  130 
4 118  97  105  122 
4 114  95  97  118 
4 110  93  95  114 
4 108  91  93  110 
4 381  377  385  387 
4 369  363  377  381 
4 355  348  363  369 
4 342  335  348  355 
4 328  320  335  342 
4 315  306  320  328 
4 301  294  306  315 
4 287  281  294  301 
4 274  268  281  287 
4 260  252  268  274 
4 249  240  252  260 
4 236  226  240  249 
4 223  213  226  236 
4 209  199  213  223 
4 195  186  199  209 
4 182  172  186  195 
4 171  155  172  182 
4 156  138  155  171 
4 144  126  138  156 
4 132  115  126  144 
4 119  104  115  132 
4 111  96  104  119 
4 105  88  96  111 
4 97  82  88  105 
4 95  80  82  97 
4 93  76  80  95 
4 91  74  76  93 
4 377  372  382  385 
4 363  359  372  377 
4 348  345  359  363 
4 335  331  345  348 
4 320  316  331  335 
4 306  302  316  320 
4 294  288  302  306 
4 281  273  288  294 
4 268  259  273  281 
4 252  245  259  268 
4 240  230  245  252 
4 226  217  230  240 
4 213  204  217  226 
4 199  190  204  213 
4 186  174  190  199 
4 172  157  174  186 
4 155  140  157  172 
4 138  125  140  155 
4 126  112  125  138 
4 115  100  112  126 
4 104  90  100  115 
4 96  81  90  104 
4 88  72  81  96 
4 82  68  72  88 
4 80  63  68  82 
4 76  62  63  80 
4 74  61  62  76 
4 372  365  380  382 
4 359  353  365  372 
4 345  339  353  359 
4 331  325  339  345 
4 316  311  325  331 
4 302  298  311  316 
4 288  283  298  302 
4 273  269  283  288 
4 259  253  269  273 
4 245  239  253  259 
4 230  225  239  245 
4 217  210  225  230 
4 204  193  210  217 
4 190  178  193  204 
4 174  163  178  190 
4 157  146  163  174 
4 140  127  146  157 
4 125  113  127  140 
4 112  98  113  125 
4 100  86  98  112 
4 90  77  86  100 
4 81  67  77  90 
4 72  60  67  81 
4 68  53  60  72 
4 63  51  53  68 
4 62  49  51  63 
4 61  46  49  62 
4 365  364  378  380 
4 353  349  364  365 
4 339  334  349  353 
4 325  319  334  339 
4 311  305  319  325 
4 298  291  305  311 
4 283  276  291  298 
4 269  261  276  283 
4 253  248  261  269 
4 239  234  248  253 
4 225  218  234  239 
4 210  203  218  225 
4 193  188  203  210 
4 178  170  188  193 
4 163  151  170  178 
4 146  134  151  163 
4 127  117  134  146 
4 113  101  117  127 
4 98  87  101  113 
4 86  75  87  98 
4 77  65  75  86 
4 67  55  65  77 
4 60  50  55  67 
4 53  42  50  60 
4 51  39  42  53 
4 49  36  39  51 
4 46  35  36  49 
4 364  360  375  378 
4 349  346  360  364 
4 334  332  346  349 
4 319  318  332  334 
4 305  303  318  319 
4 291  286  303  305 
4 276  272  286  291 
4 261  258  272  276 
4 248  241  258  261 
4 234  227  241  248 
4 218  212  227  234 
4 203  196  212  218 
4 188  179  196  203 
4 170  161  179  188 
4 151  142  161  170 
4 134  123  142  151 
4 117  107  123  134 
4 101  92  107  117 
4 87  79  92  101 
4 75  66  79  87 
4 65  54  66  75 
4 55  45  54  65 
4 50  40  45  55 
4 42  32  40  50 
4 39  29  32  42 
4 36  27  29  39 
4 35  26  27  36 
4 360  358  373  375 
4 346  344  358  360 
4 332  329  344  346 
4 318  314  329  332 
4 303  299  314  318 
4 286  285  299  303 
4 272  270  285  286 
4 258  255  270  272 
4 241  238  255  258 
4 227  224  238  241 
4 212  206  224  227 
4 196  191  206  212 
4 179  175  191  196 
4 161  154  175  179 
4 142  135  154  161 
4 123  116  135  142 
4 107  99  116  123 
4 92  83  99  107 
4 79  70  83  92 
4 66  58  70  79 
4 54  47  58  66 
4 45  38  47  54 
4 40  30  38  45 
4 32  25  30  40 
4 29  21  25  32 
4 27  18  21  29 
4 26  17  18  27 
4 358  357  371  373 
4 344  341  357  358 
4 329  327  341  344 
4 314  312  327  329 
4 299  297  312  314 
4 285  282  297  299 
4 270  266  282  285 
4 255  251  266  270 
4 238  237  251  255 
4 224  219  237  238 
4 206  205  219  224 
4 191  187  205  206 
4 175  168  187  191 
4 154  147  168  175 
4 135  128  147  154 
4 116  109  128  135 
4 99  94  109  116 
4 83  78  94  99 
4 70  64  78  83 
4 58  52  64  70 
4 47  41  52  58 
4 38  31  41  47 
4 30  23  31  38 
4 25  19  23  30 
4 21  14  19  25 
4 18  12  14  21 
4 17  10  12  18 
4 357  354  370  371 
4 341  340  354  357 
4 327  324  340  341 
4 312  310  324  327 
4 297  295  310  312 
4 282  280  295  297 
4 266  264  280  282 
4 251  250  264  266 
4 237  235  250  251 
4 219  216  235  237 
4 205  201  216  219 
4 187  183  201  205 
4 168  166  183  187 
4 147  145  166  168 
4 128  124  145  147 
4 109  106  124  128 
4 94  89  106  109 
4 78  73  89  94 
4 64  59  73  78 
4 52  48  59  64 
4 41  37  48  52 
4 31  28  37  41 
4 23  20  28  31 
4 19  13  20  23 
4 14  8  13  19 
4 12  7  8  14 
4 10  5  7  12 
4 354  352  367  370 
4 340  338  352  354 
4 324  323  338  340 
4 310  308  323  324 
4 295  293  308  310 
4 280  278  293  295 
4 264  263  278  280 
4 250  247  263  264 
4 235  231  247  250 
4 216  215  231  235 
4 201  200  215  216 
4 183  181  200  201 
4 166  164  181  183 
4 145  141  164  166 
4 124  121  141  145 
4 106  103  121  124 
4 89  85  103  106 
4 73  71  85  89 
4 59  57  71  73 
4 48  44  57  59 
4 37  34  44  48 
4 28  24  34  37 
4 20  16  24  28 
4 13  11  16  20 
4 8  6  11  13 
4 7  3  6  8 
4 5  2  3  7 
4 352  351  366  367 
4 338  337  351  352 
4 323  322  337  338 
4 308  307  322  323 
4 293  292  307  308 
4 278  277  292  293 
4 263  262  277  278 
4 247  246  262  263 
4 231  228  246  247 
4 215  214  228  231 
4 200  198  214  215 
4 181  180  198  200 
4 164  162  180  181 
4 141  139  162  164 
4 121  120  139  141 
4 103  102  120  121 
4 85  84  102  103 
4 71  69  84  85 
4 57  56  69  71 
4 44  43  56  57 
4 34  33  43  44 
4 24  22  33  34 
4 16  15  22  24 
4 11  9  15  16 
4 6  4  9  11 
4 3  1  4  6 
4 2  0  1  3 
CELL_TYPES 351 
9 
9 
9 
9 
9 
9 
9 
9 
9 
9 
9 
9 
9 
9 
9 
9 
9 
9 
9 
9 
9 
9 
9 
9 
9 
9 
9 
9 
9 
9 
9 
9 
9 
9 
9 
9 
9 
9 
9 
9 
9 
9 
9 
9 
9 
9 
9 
9 
9 
9 
9 
9 
9 
9 
9 
9 
9 
9 
9 
9 
9 
9 
9 
9 
9 
9 
9 
9 
9 
9 
9 
9 
9 
9 
9 
9 
9 
9 
9 
9 
9 
9 
9 
9 
9 
9 
9 
9 
9 
9 
9 
9 
9 
9 
9 
9 
9 
9 
9 
9 
9 
9 
9 
9 
9 
9 
9 
9 
9 
9 
9 
9 
9 
9 
9 
9 
9 
9 
9 
9 
9 
9 
9 
9 
9 
9 
9 
9 
9 
9 
9 
9 
9 
9 
9 
9 
9 
9 
9 
9 
9 
9 
9 
9 
9 
9 
9 
9 
9 
9 
9 
9 
9 
9 
9 
9 
9 
9 
9 
9 
9 
9 
9 
9 
9 
9 
9 
9 
9 
9 
9 
9 
9 
9 
9 
9 
9 
9 
9 
9 
9 
9 
9 
9 
9 
9 
9 
9 
9 
9 
9 
9 
9 
9 
9 
9 
9 
9 
9 
9 
9 
9 
9 
9 
9 
9 
9 
9 
9 
9 
9 
9 
9 
9 
9 
9 
9 
9 
9 
9 
9 
9 
9 
9 
9 
9 
9 
9 
9 
9 
9 
9 
9 
9 
9 
9 
9 
9 
9 
9 
9 
9 
9 
9 
9 
9 
9 
9 
9 
9 
9 
9 
9 
9 
9 
9 
9 
9 
9 
9 
9 
9 
9 
9 
9 
9 
9 
9 
9 
9 
9 
9 
9 
9 
9 
9 
9 
9 
9 
9 
9 
9 
9 
9 
9 
9 
9 
9 
9 
9 
9 
9 
9 
9 
9 
9 
9 
9 
9 
9 
9 
9 
9 
9 
9 
9 
9 
9 
9 
9 
9 
9 
9 
9 
9 
9 
9 
9 
9 
9 
9 
9 
9 
9 
9 
9 
9 
9 
9 
9 
9 
9 
9 
9 
9 
9 
9 
9 
9 
9 
9 
9 
9 
9 
9 
9 
9 
9 
9 
9 
9 
POINT_DATA 392 
VECTORS X_GC float 
-1.000000 1.000000 0.000000 
-1.000000 0.851852 0.000000 
-0.846154 1.000000 0.000000 
-0.846154 0.851852 0.000000 
-1.000000 0.703704 0.000000 
-0.692308 1.000000 0.000000 
-0.846154 0.703704 0.000000 
-0.692308 0.851852 0.000000 
-0.692308 0.703704 0.000000 
-1.000000 0.555556 0.000000 
-0.538462 1.000000 0.000000 
-0.846154 0.555556 0.000000 
-0.538462 0.851852 0.000000 
-0.692308 0.555556 0.000000 
-0.538462 0.703704 0.000000 
-1.000000 0.407407 0.000000 
-0.846154 0.407407 0.000000 
-0.384615 1.000000 0.000000 
-0.384615 0.851852 0.000000 
-0.538462 0.555556 0.000000 
-0.692308 0.407407 0.000000 
-0.384615 0.703704 0.000000 
-1.000000 0.259259 0.000000 
-0.538462 0.407407 0.000000 
-0.846154 0.259259 0.000000 
-0.384615 0.555556 0.000000 
-0.230769 1.000000 0.000000 
-0.230769 0.851852 0.000000 
-0.692308 0.259259 0.000000 
-0.230769 0.703704 0.000000 
-0.384615 0.407407 0.000000 
-0.538462 0.259259 0.000000 
-0.230769 0.555556 0.000000 
-1.000000 0.111111 0.000000 
-0.846154 0.111111 0.000000 
-0.076923 1.000000 0.000000 
-0.076923 0.851852 0.000000 
-0.692308 0.111111 0.000000 
-0.384615 0.259259 0.000000 
-0.076923 0.703704 0.000000 
-0.230769 0.407407 0.000000 
-0.538462 0.111111 0.000000 
-0.076923 0.555556 0.000000 
-1.000000 -0.037037 0.000000 
-0.846154 -0.037037 0.000000 
-0.230769 0.259259 0.000000 
0.076923 1.000000 0.000000 
-0.384615 0.111111 0.000000 
-0.692308 -0.037037 0.000000 
0.076923 0.851852 0.000000 
-0.076923 0.407407 0.000000 
0.076923 0.703704 0.000000 
-0.538462 -0.037037 0.000000 
0.076923 0.555556 0.000000 
-0.230769 0.111111 0.000000 
-0.076923 0.259259 0.000000 
-1.000000 -0.185185 0.000000 
-0.846154 -0.185185 0.000000 
-0.384615 -0.037037 0.000000 
-0.692308 -0.185185 0.000000 
0.076923 0.407407 0.000000 
0.230769 1.000000 0.000000 
0.230769 0.851852 0.000000 
0.230769 0.703704 0.000000 
-0.538462 -0.185185 0.000000 
-0.076923 0.111111 0.000000 
-0.230769 -0.037037 0.000000 
0.076923 0.259259 0.000000 
0.230769 0.555556 0.000000 
-1.000000 -0.333333 0.000000 
-0.384615 -0.185185 0.000000 
-0.846154 -0.333333 0.000000 
0.230769 0.407407 0.000000 
-0.692308 -0.333333 0.000000 
0.384615 1.000000 0.000000 
-0.076923 -0.037037 0.000000 
0.384615 0.851852 0.000000 
0.076923 0.111111 0.000000 
-0.538462 -0.333333 0.000000 
-0.230769 -0.185185 0.000000 
0.384615 0.703704 0.000000 
0.230769 0.259259 0.000000 
0.384615 0.555556 0.000000 
-0.384615 -0.333333 0.000000 
-1.000000 -0.481481 0.000000 
-0.846154 -0.481481 0.000000 
0.076923 -0.037037 0.000000 
-0.076923 -0.185185 0.000000 
0.384615 0.407407 0.000000 
-0.692308 -0.481481 0.000000 
0.230769 0.111111 0.000000 
0.538462 1.000000 0.000000 
-0.230769 -0.333333 0.000000 
0.538462 0.851852 0.000000 
-0.538462 -0.481481 0.000000 
0.538462 0.703704 0.000000 
0.384615 0.259259 0.000000 
0.538462 0.555556 0.000000 
0.076923 -0.185185 0.000000 
-0.384615 -0.481481 0.000000 
0.230769 -0.037037 0.000000 
-0.076923 -0.333333 0.000000 
-1.000000 -0.629630 0.000000 
-0.846154 -0.629630 0.000000 
0.384615 0.111111 0.000000 
0.538462 0.407407 0.000000 
-0.692308 -0.629630 0.000000 
-0.230769 -0.481481 0.000000 
0.692308 1.000000 0.000000 
-0.538462 -0.629630 0.000000 
0.692308 0.851852 0.000000 
0.538462 0.259259 0.000000 
0.230769 -0.185185 0.000000 
0.076923 -0.333333 0.000000 
0.692308 0.703704 0.000000 
0.384615 -0.037037 0.000000 
-0.384615 -0.629630 0.000000 
-0.076923 -0.481481 0.000000 
0.692308 0.555556 0.000000 
0.538462 0.111111 0.000000 
-1.000000 -0.777778 0.000000 
-0.846154 -0.777778 0.000000 
0.692308 0.407407 0.000000 
-0.230769 -0.629630 0.000000 
-0.692308 -0.777778 0.000000 
0.230769 -0.333333 0.000000 
0.384615 -0.185185 0.000000 
0.076923 -0.481481 0.000000 
-0.538462 -0.777778 0.000000 
0.846154 1.000000 0.000000 
0.692308 0.259259 0.000000 
0.846154 0.851852 0.000000 
0.538462 -0.037037 0.000000 
0.846154 0.703704 0.000000 
-0.076923 -0.629630 0.000000 
-0.384615 -0.777778 0.000000 
0.846154 0.555556 0.000000 
0.692308 0.111111 0.000000 
0.384615 -0.333333 0.000000 
-1.000000 -0.925926 0.000000 
0.230769 -0.481481 0.000000 
-0.846154 -0.925926 0.000000 
-0.230769 -0.777778 0.000000 
0.846154 0.407407 0.000000 
0.538462 -0.185185 0.000000 
-0.692308 -0.925926 0.000000 
0.076923 -0.629630 0.000000 
-0.538462 -0.925926 0.000000 
0.692308 -0.037037 0.000000 
0.846154 0.259259 0.000000 
1.000000 1.000000 0.000000 
-0.076923 -0.777778 0.000000 
1.000000 0.851852 0.000000 
1.000000 0.703704 0.000000 
-0.384615 -0.925926 0.000000 
0.384615 -0.481481 0.000000 
0.538462 -0.333333 0.000000 
0.230769 -0.629630 0.000000 
1.000000 0.555556 0.000000 
0.846154 0.111111 0.000000 
0.692308 -0.185185 0.000000 
-0.230769 -0.925926 0.000000 
-1.000000 -1.074074 0.000000 
0.076923 -0.777778 0.000000 
-0.846154 -1.074074 0.000000 
1.000000 0.407407 0.000000 
-0.692308 -1.074074 0.000000 
0.846154 -0.037037 0.000000 
-0.538462 -1.074074 0.000000 
1.000000 0.259259 0.000000 
-0.076923 -0.925926 0.000000 
0.538462 -0.481481 0.000000 
0.384615 -0.629630 0.000000 
0.692308 -0.333333 0.000000 
0.230769 -0.777778 0.000000 
-0.384615 -1.074074 0.000000 
1.000000 0.111111 0.000000 
0.846154 -0.185185 0.000000 
0.076923 -0.925926 0.000000 
-0.230769 -1.074074 0.000000 
-1.000000 -1.222222 0.000000 
-0.846154 -1.222222 0.000000 
0.538462 -0.629630 0.000000 
-0.692308 -1.222222 0.000000 
0.692308 -0.481481 0.000000 
1.000000 -0.037037 0.000000 
0.384615 -0.777778 0.000000 
-0.538462 -1.222222 0.000000 
-0.076923 -1.074074 0.000000 
0.846154 -0.333333 0.000000 
0.230769 -0.925926 0.000000 
-0.384615 -1.222222 0.000000 
1.000000 -0.185185 0.000000 
0.076923 -1.074074 0.000000 
0.692308 -0.629630 0.000000 
0.538462 -0.777778 0.000000 
-0.230769 -1.222222 0.000000 
0.846154 -0.481481 0.000000 
-1.000000 -1.370370 0.000000 
0.384615 -0.925926 0.000000 
-0.846154 -1.370370 0.000000 
-0.692308 -1.370370 0.000000 
1.000000 -0.333333 0.000000 
-0.076923 -1.222222 0.000000 
0.230769 -1.074074 0.000000 
-0.538462 -1.370370 0.000000 
-0.384615 -1.370370 0.000000 
0.692308 -0.777778 0.000000 
0.846154 -0.629630 0.000000 
0.538462 -0.925926 0.000000 
0.076923 -1.222222 0.000000 
1.000000 -0.481481 0.000000 
-0.230769 -1.370370 0.000000 
0.384615 -1.074074 0.000000 
-1.000000 -1.518519 0.000000 
-0.846154 -1.518519 0.000000 
-0.692308 -1.518519 0.000000 
0.230769 -1.222222 0.000000 
-0.076923 -1.370370 0.000000 
-0.538462 -1.518519 0.000000 
0.846154 -0.777778 0.000000 
0.692308 -0.925926 0.000000 
1.000000 -0.629630 0.000000 
0.538462 -1.074074 0.000000 
-0.384615 -1.518519 0.000000 
0.076923 -1.370370 0.000000 
0.384615 -1.222222 0.000000 
-0.230769 -1.518519 0.000000 
-1.000000 -1.666667 0.000000 
0.846154 -0.925926 0.000000 
0.230769 -1.370370 0.000000 
-0.846154 -1.666667 0.000000 
1.000000 -0.777778 0.000000 
0.692308 -1.074074 0.000000 
-0.076923 -1.518519 0.000000 
-0.692308 -1.666667 0.000000 
0.538462 -1.222222 0.000000 
-0.538462 -1.666667 0.000000 
-0.384615 -1.666667 0.000000 
0.076923 -1.518519 0.000000 
0.384615 -1.370370 0.000000 
-0.230769 -1.666667 0.000000 
1.000000 -0.925926 0.000000 
0.846154 -1.074074 0.000000 
0.692308 -1.222222 0.000000 
0.230769 -1.518519 0.000000 
-1.000000 -1.814815 0.000000 
-0.846154 -1.814815 0.000000 
-0.076923 -1.666667 0.000000 
0.538462 -1.370370 0.000000 
-0.692308 -1.814815 0.000000 
-0.538462 -1.814815 0.000000 
0.384615 -1.518519 0.000000 
0.076923 -1.666667 0.000000 
1.000000 -1.074074 0.000000 
-0.384615 -1.814815 0.000000 
0.846154 -1.222222 0.000000 
0.692308 -1.370370 0.000000 
-0.230769 -1.814815 0.000000 
0.230769 -1.666667 0.000000 
0.538462 -1.518519 0.000000 
-0.076923 -1.814815 0.000000 
-1.000000 -1.962963 0.000000 
-0.846154 -1.962963 0.000000 
-0.692308 -1.962963 0.000000 
1.000000 -1.222222 0.000000 
-0.538462 -1.962963 0.000000 
0.846154 -1.370370 0.000000 
0.384615 -1.666667 0.000000 
0.076923 -1.814815 0.000000 
-0.384615 -1.962963 0.000000 
0.692308 -1.518519 0.000000 
-0.230769 -1.962963 0.000000 
0.230769 -1.814815 0.000000 
0.538462 -1.666667 0.000000 
1.000000 -1.370370 0.000000 
-0.076923 -1.962963 0.000000 
-1.000000 -2.111111 0.000000 
-0.846154 -2.111111 0.000000 
0.846154 -1.518519 0.000000 
-0.692308 -2.111111 0.000000 
0.384615 -1.814815 0.000000 
-0.538462 -2.111111 0.000000 
0.076923 -1.962963 0.000000 
0.692308 -1.666667 0.000000 
-0.384615 -2.111111 0.000000 
-0.230769 -2.111111 0.000000 
0.538462 -1.814815 0.000000 
0.230769 -1.962963 0.000000 
1.000000 -1.518519 0.000000 
0.846154 -1.666667 0.000000 
-0.076923 -2.111111 0.000000 
-1.000000 -2.259259 0.000000 
-0.846154 -2.259259 0.000000 
0.384615 -1.962963 0.000000 
-0.692308 -2.259259 0.000000 
0.692308 -1.814815 0.000000 
-0.538462 -2.259259 0.000000 
0.076923 -2.111111 0.000000 
-0.384615 -2.259259 0.000000 
1.000000 -1.666667 0.000000 
0.538462 -1.962963 0.000000 
0.230769 -2.111111 0.000000 
-0.230769 -2.259259 0.000000 
0.846154 -1.814815 0.000000 
-0.076923 -2.259259 0.000000 
0.384615 -2.111111 0.000000 
-1.000000 -2.407407 0.000000 
-0.846154 -2.407407 0.000000 
0.692308 -1.962963 0.000000 
-0.692308 -2.407407 0.000000 
0.076923 -2.259259 0.000000 
-0.538462 -2.407407 0.000000 
1.000000 -1.814815 0.000000 
-0.384615 -2.407407 0.000000 
0.538462 -2.111111 0.000000 
0.230769 -2.259259 0.000000 
0.846154 -1.962963 0.000000 
-0.230769 -2.407407 0.000000 
-0.076923 -2.407407 0.000000 
0.384615 -2.259259 0.000000 
0.692308 -2.111111 0.000000 
-1.000000 -2.555556 0.000000 
-0.846154 -2.555556 0.000000 
-0.692308 -2.555556 0.000000 
0.076923 -2.407407 0.000000 
1.000000 -1.962963 0.000000 
-0.538462 -2.555556 0.000000 
0.538462 -2.259259 0.000000 
-0.384615 -2.555556 0.000000 
0.846154 -2.111111 0.000000 
0.230769 -2.407407 0.000000 
-0.230769 -2.555556 0.000000 
0.692308 -2.259259 0.000000 
-0.076923 -2.555556 0.000000 
0.384615 -2.407407 0.000000 
1.000000 -2.111111 0.000000 
-1.000000 -2.703704 0.000000 
-0.846154 -2.703704 0.000000 
0.076923 -2.555556 0.000000 
-0.692308 -2.703704 0.000000 