# vtk DataFile Version 3.0 
vtk output 
ASCII 
DATASET UNSTRUCTURED_GRID 
POINTS 175 float 
-0.026061 -1.109198 0.000000 
-0.106992 -1.041142 0.000000 
-0.054870 -1.049375 0.000000 
-0.028809 -1.003491 0.000000 
-0.186430 -0.977067 0.000000 
-0.137056 -0.979593 0.000000 
-0.114311 -0.925946 0.000000 
-0.058186 -0.941611 0.000000 
-0.029377 -0.901434 0.000000 
-0.265318 -0.913911 0.000000 
-0.217198 -0.914711 0.000000 
-0.196633 -0.857414 0.000000 
-0.143120 -0.866123 0.000000 
-0.116563 -0.818854 0.000000 
-0.058945 -0.838500 0.000000 
-0.029568 -0.800380 0.000000 
-0.344206 -0.850755 0.000000 
-0.296791 -0.850748 0.000000 
-0.278030 -0.790805 0.000000 
-0.225992 -0.796671 0.000000 
-0.201664 -0.744554 0.000000 
-0.145749 -0.758028 0.000000 
-0.117890 -0.713686 0.000000 
-0.059328 -0.736392 0.000000 
-0.029759 -0.699326 0.000000 
-0.058559 -1.149948 0.000000 
-0.162226 -1.170791 0.000000 
-0.123292 -1.135173 0.000000 
-0.142917 -1.086190 0.000000 
-0.261851 -1.192947 0.000000 
-0.229092 -1.155920 0.000000 
-0.256854 -1.104689 0.000000 
-0.209613 -1.070576 0.000000 
-0.223062 -1.023002 0.000000 
-0.360414 -1.215248 0.000000 
-0.329787 -1.178125 0.000000 
-0.361761 -1.126323 0.000000 
-0.321587 -1.089914 0.000000 
-0.341985 -1.039680 0.000000 
-0.290702 -1.006881 0.000000 
-0.302189 -0.960146 0.000000 
-0.458977 -1.237548 0.000000 
-0.429420 -1.200473 0.000000 
-0.464588 -1.148431 0.000000 
-0.427556 -1.111404 0.000000 
-0.453135 -1.059889 0.000000 
-0.407738 -1.024574 0.000000 
-0.425037 -0.975146 0.000000 
-0.370772 -0.943516 0.000000 
-0.381315 -0.897289 0.000000 
-0.046960 -1.200764 0.000000 
-0.095301 -1.294809 0.000000 
-0.098873 -1.242162 0.000000 
-0.149405 -1.226965 0.000000 
-0.140093 -1.386513 0.000000 
-0.148617 -1.337815 0.000000 
-0.205981 -1.327578 0.000000 
-0.203197 -1.269375 0.000000 
-0.248777 -1.250228 0.000000 
-0.184111 -1.477477 0.000000 
-0.194039 -1.430386 0.000000 
-0.254475 -1.423086 0.000000 
-0.257893 -1.368977 0.000000 
-0.309886 -1.353604 0.000000 
-0.303554 -1.293059 0.000000 
-0.347255 -1.272901 0.000000 
-0.228129 -1.568441 0.000000 
-0.238687 -1.522216 0.000000 
-0.301302 -1.517264 0.000000 
-0.307162 -1.465225 0.000000 
-0.363386 -1.453105 0.000000 
-0.362692 -1.395593 0.000000 
-0.412122 -1.378300 0.000000 
-0.403017 -1.316153 0.000000 
-0.445733 -1.295574 0.000000 
-0.000000 -1.223379 0.000000 
0.043388 -1.319809 0.000000 
-0.000000 -1.289777 0.000000 
-0.043388 -1.319809 0.000000 
0.087158 -1.412006 0.000000 
0.043769 -1.388307 0.000000 
-0.000000 -1.426773 0.000000 
-0.043769 -1.388307 0.000000 
-0.087158 -1.412006 0.000000 
0.130831 -1.503135 0.000000 
0.087824 -1.481537 0.000000 
0.044436 -1.524236 0.000000 
-0.000000 -1.493171 0.000000 
-0.044436 -1.524236 0.000000 
-0.087824 -1.481537 0.000000 
-0.130831 -1.503135 0.000000 
0.174505 -1.594265 0.000000 
0.131782 -1.573699 0.000000 
0.088871 -1.619566 0.000000 
0.044532 -1.591702 0.000000 
-0.000000 -1.628102 0.000000 
-0.044532 -1.591702 0.000000 
-0.088871 -1.619566 0.000000 
-0.131782 -1.573699 0.000000 
-0.174505 -1.594265 0.000000 
0.046960 -1.200764 0.000000 
0.149405 -1.226965 0.000000 
0.098873 -1.242162 0.000000 
0.095301 -1.294809 0.000000 
0.248777 -1.250228 0.000000 
0.203197 -1.269375 0.000000 
0.205981 -1.327578 0.000000 
0.148617 -1.337815 0.000000 
0.140093 -1.386513 0.000000 
0.347255 -1.272901 0.000000 
0.303554 -1.293059 0.000000 
0.309886 -1.353604 0.000000 
0.257893 -1.368977 0.000000 
0.254475 -1.423086 0.000000 
0.194039 -1.430386 0.000000 
0.184111 -1.477477 0.000000 
0.445733 -1.295574 0.000000 
0.403017 -1.316153 0.000000 
0.412122 -1.378300 0.000000 
0.362692 -1.395593 0.000000 
0.363386 -1.453105 0.000000 
0.307162 -1.465225 0.000000 
0.301302 -1.517264 0.000000 
0.238687 -1.522216 0.000000 
0.228129 -1.568441 0.000000 
0.058559 -1.149948 0.000000 
0.142917 -1.086190 0.000000 
0.123292 -1.135173 0.000000 
0.162226 -1.170791 0.000000 
0.223062 -1.023002 0.000000 
0.209613 -1.070576 0.000000 
0.256854 -1.104689 0.000000 
0.229092 -1.155920 0.000000 
0.261851 -1.192947 0.000000 
0.302189 -0.960146 0.000000 
0.290702 -1.006881 0.000000 
0.341985 -1.039680 0.000000 
0.321587 -1.089914 0.000000 
0.361761 -1.126323 0.000000 
0.329787 -1.178125 0.000000 
0.360414 -1.215248 0.000000 
0.381315 -0.897289 0.000000 
0.370772 -0.943516 0.000000 
0.425037 -0.975146 0.000000 
0.407738 -1.024574 0.000000 
0.453135 -1.059889 0.000000 
0.427556 -1.111404 0.000000 
0.464588 -1.148431 0.000000 
0.429420 -1.200473 0.000000 
0.458977 -1.237548 0.000000 
0.026061 -1.109198 0.000000 
0.028809 -1.003491 0.000000 
0.054870 -1.049375 0.000000 
0.106992 -1.041142 0.000000 
0.029377 -0.901434 0.000000 
0.058186 -0.941611 0.000000 
0.114311 -0.925946 0.000000 
0.137056 -0.979593 0.000000 
0.186430 -0.977067 0.000000 
0.029568 -0.800380 0.000000 
0.058945 -0.838500 0.000000 
0.116563 -0.818854 0.000000 
0.143120 -0.866123 0.000000 
0.196633 -0.857414 0.000000 
0.217198 -0.914711 0.000000 
0.265318 -0.913911 0.000000 
0.029759 -0.699326 0.000000 
0.059328 -0.736392 0.000000 
0.117890 -0.713686 0.000000 
0.145749 -0.758028 0.000000 
0.201664 -0.744554 0.000000 
0.225992 -0.796671 0.000000 
0.278030 -0.790805 0.000000 
0.296791 -0.850748 0.000000 
0.344206 -0.850755 0.000000 
CELLS 175 350 
1 0 
1 1 
1 2 
1 3 
1 4 
1 5 
1 6 
1 7 
1 8 
1 9 
1 10 
1 11 
1 12 
1 13 
1 14 
1 15 
1 16 
1 17 
1 18 
1 19 
1 20 
1 21 
1 22 
1 23 
1 24 
1 25 
1 26 
1 27 
1 28 
1 29 
1 30 
1 31 
1 32 
1 33 
1 34 
1 35 
1 36 
1 37 
1 38 
1 39 
1 40 
1 41 
1 42 
1 43 
1 44 
1 45 
1 46 
1 47 
1 48 
1 49 
1 50 
1 51 
1 52 
1 53 
1 54 
1 55 
1 56 
1 57 
1 58 
1 59 
1 60 
1 61 
1 62 
1 63 
1 64 
1 65 
1 66 
1 67 
1 68 
1 69 
1 70 
1 71 
1 72 
1 73 
1 74 
1 75 
1 76 
1 77 
1 78 
1 79 
1 80 
1 81 
1 82 
1 83 
1 84 
1 85 
1 86 
1 87 
1 88 
1 89 
1 90 
1 91 
1 92 
1 93 
1 94 
1 95 
1 96 
1 97 
1 98 
1 99 
1 100 
1 101 
1 102 
1 103 
1 104 
1 105 
1 106 
1 107 
1 108 
1 109 
1 110 
1 111 
1 112 
1 113 
1 114 
1 115 
1 116 
1 117 
1 118 
1 119 
1 120 
1 121 
1 122 
1 123 
1 124 
1 125 
1 126 
1 127 
1 128 
1 129 
1 130 
1 131 
1 132 
1 133 
1 134 
1 135 
1 136 
1 137 
1 138 
1 139 
1 140 
1 141 
1 142 
1 143 
1 144 
1 145 
1 146 
1 147 
1 148 
1 149 
1 150 
1 151 
1 152 
1 153 
1 154 
1 155 
1 156 
1 157 
1 158 
1 159 
1 160 
1 161 
1 162 
1 163 
1 164 
1 165 
1 166 
1 167 
1 168 
1 169 
1 170 
1 171 
1 172 
1 173 
1 174 
CELL_TYPES 175 
1 
1 
1 
1 
1 
1 
1 
1 
1 
1 
1 
1 
1 
1 
1 
1 
1 
1 
1 
1 
1 
1 
1 
1 
1 
1 
1 
1 
1 
1 
1 
1 
1 
1 
1 
1 
1 
1 
1 
1 
1 
1 
1 
1 
1 
1 
1 
1 
1 
1 
1 
1 
1 
1 
1 
1 
1 
1 
1 
1 
1 
1 
1 
1 
1 
1 
1 
1 
1 
1 
1 
1 
1 
1 
1 
1 
1 
1 
1 
1 
1 
1 
1 
1 
1 
1 
1 
1 
1 
1 
1 
1 
1 
1 
1 
1 
1 
1 
1 
1 
1 
1 
1 
1 
1 
1 
1 
1 
1 
1 
1 
1 
1 
1 
1 
1 
1 
1 
1 
1 
1 
1 
1 
1 
1 
1 
1 
1 
1 
1 
1 
1 
1 
1 
1 
1 
1 
1 
1 
1 
1 
1 
1 
1 
1 
1 
1 
1 
1 
1 
1 
1 
1 
1 
1 
1 
1 
1 
1 
1 
1 
1 
1 
1 
1 
1 
1 
1 
1 
1 
1 
1 
1 
1 
1 
POINT_DATA 175 
VECTORS X_GC float 
-0.026061 -1.109198 0.000000 
-0.106992 -1.041142 0.000000 
-0.054870 -1.049375 0.000000 
-0.028809 -1.003491 0.000000 
-0.186430 -0.977067 0.000000 
-0.137056 -0.979593 0.000000 
-0.114311 -0.925946 0.000000 
-0.058186 -0.941611 0.000000 
-0.029377 -0.901434 0.000000 
-0.265318 -0.913911 0.000000 
-0.217198 -0.914711 0.000000 
-0.196633 -0.857414 0.000000 
-0.143120 -0.866123 0.000000 
-0.116563 -0.818854 0.000000 
-0.058945 -0.838500 0.000000 
-0.029568 -0.800380 0.000000 
-0.344206 -0.850755 0.000000 
-0.296791 -0.850748 0.000000 
-0.278030 -0.790805 0.000000 
-0.225992 -0.796671 0.000000 
-0.201664 -0.744554 0.000000 
-0.145749 -0.758028 0.000000 
-0.117890 -0.713686 0.000000 
-0.059328 -0.736392 0.000000 
-0.029759 -0.699326 0.000000 
-0.058559 -1.149948 0.000000 
-0.162226 -1.170791 0.000000 
-0.123292 -1.135173 0.000000 
-0.142917 -1.086190 0.000000 
-0.261851 -1.192947 0.000000 
-0.229092 -1.155920 0.000000 
-0.256854 -1.104689 0.000000 
-0.209613 -1.070576 0.000000 
-0.223062 -1.023002 0.000000 
-0.360414 -1.215248 0.000000 
-0.329787 -1.178125 0.000000 
-0.361761 -1.126323 0.000000 
-0.321587 -1.089914 0.000000 
-0.341985 -1.039680 0.000000 
-0.290702 -1.006881 0.000000 
-0.302189 -0.960146 0.000000 
-0.458977 -1.237548 0.000000 
-0.429420 -1.200473 0.000000 
-0.464588 -1.148431 0.000000 
-0.427556 -1.111404 0.000000 
-0.453135 -1.059889 0.000000 
-0.407738 -1.024574 0.000000 
-0.425037 -0.975146 0.000000 
-0.370772 -0.943516 0.000000 
-0.381315 -0.897289 0.000000 
-0.046960 -1.200764 0.000000 
-0.095301 -1.294809 0.000000 
-0.098873 -1.242162 0.000000 
-0.149405 -1.226965 0.000000 
-0.140093 -1.386513 0.000000 
-0.148617 -1.337815 0.000000 
-0.205981 -1.327578 0.000000 
-0.203197 -1.269375 0.000000 
-0.248777 -1.250228 0.000000 
-0.184111 -1.477477 0.000000 
-0.194039 -1.430386 0.000000 
-0.254475 -1.423086 0.000000 
-0.257893 -1.368977 0.000000 
-0.309886 -1.353604 0.000000 
-0.303554 -1.293059 0.000000 
-0.347255 -1.272901 0.000000 
-0.228129 -1.568441 0.000000 
-0.238687 -1.522216 0.000000 
-0.301302 -1.517264 0.000000 
-0.307162 -1.465225 0.000000 
-0.363386 -1.453105 0.000000 
-0.362692 -1.395593 0.000000 
-0.412122 -1.378300 0.000000 
-0.403017 -1.316153 0.000000 
-0.445733 -1.295574 0.000000 
-0.000000 -1.223379 0.000000 
0.043388 -1.319809 0.000000 
-0.000000 -1.289777 0.000000 
-0.043388 -1.319809 0.000000 
0.087158 -1.412006 0.000000 
0.043769 -1.388307 0.000000 
-0.000000 -1.426773 0.000000 
-0.043769 -1.388307 0.000000 
-0.087158 -1.412006 0.000000 
0.130831 -1.503135 0.000000 
0.087824 -1.481537 0.000000 
0.044436 -1.524236 0.000000 
-0.000000 -1.493171 0.000000 
-0.044436 -1.524236 0.000000 
-0.087824 -1.481537 0.000000 
-0.130831 -1.503135 0.000000 
0.174505 -1.594265 0.000000 
0.131782 -1.573699 0.000000 
0.088871 -1.619566 0.000000 
0.044532 -1.591702 0.000000 
-0.000000 -1.628102 0.000000 
-0.044532 -1.591702 0.000000 
-0.088871 -1.619566 0.000000 
-0.131782 -1.573699 0.000000 
-0.174505 -1.594265 0.000000 
0.046960 -1.200764 0.000000 
0.149405 -1.226965 0.000000 
0.098873 -1.242162 0.000000 
0.095301 -1.294809 0.000000 
0.248777 -1.250228 0.000000 
0.203197 -1.269375 0.000000 
0.205981 -1.327578 0.000000 
0.148617 -1.337815 0.000000 
0.140093 -1.386513 0.000000 
0.347255 -1.272901 0.000000 
0.303554 -1.293059 0.000000 
0.309886 -1.353604 0.000000 
0.257893 -1.368977 0.000000 
0.254475 -1.423086 0.000000 
0.194039 -1.430386 0.000000 
0.184111 -1.477477 0.000000 
0.445733 -1.295574 0.000000 
0.403017 -1.316153 0.000000 
0.412122 -1.378300 0.000000 
0.362692 -1.395593 0.000000 
0.363386 -1.453105 0.000000 
0.307162 -1.465225 0.000000 
0.301302 -1.517264 0.000000 
0.238687 -1.522216 0.000000 
0.228129 -1.568441 0.000000 
0.058559 -1.149948 0.000000 
0.142917 -1.086190 0.000000 
0.123292 -1.135173 0.000000 
0.162226 -1.170791 0.000000 
0.223062 -1.023002 0.000000 
0.209613 -1.070576 0.000000 
0.256854 -1.104689 0.000000 
0.229092 -1.155920 0.000000 
0.261851 -1.192947 0.000000 
0.302189 -0.960146 0.000000 
0.290702 -1.006881 0.000000 
0.341985 -1.039680 0.000000 
0.321587 -1.089914 0.000000 
0.361761 -1.126323 0.000000 
0.329787 -1.178125 0.000000 
0.360414 -1.215248 0.000000 
0.381315 -0.897289 0.000000 
0.370772 -0.943516 0.000000 
0.425037 -0.975146 0.000000 
0.407738 -1.024574 0.000000 
0.453135 -1.059889 0.000000 
0.427556 -1.111404 0.000000 
0.464588 -1.148431 0.000000 
0.429420 -1.200473 0.000000 
0.458977 -1.237548 0.000000 
0.026061 -1.109198 0.000000 
0.028809 -1.003491 0.000000 
0.054870 -1.049375 0.000000 
0.106992 -1.041142 0.000000 
0.029377 -0.901434 0.000000 
0.058186 -0.941611 0.000000 
0.114311 -0.925946 0.000000 
0.137056 -0.979593 0.000000 
0.186430 -0.977067 0.000000 
0.029568 -0.800380 0.000000 
0.058945 -0.838500 0.000000 
0.116563 -0.818854 0.000000 
0.143120 -0.866123 0.000000 
0.196633 -0.857414 0.000000 
0.217198 -0.914711 0.000000 
0.265318 -0.913911 0.000000 
0.029759 -0.699326 0.000000 
0.059328 -0.736392 0.000000 
0.117890 -0.713686 0.000000 
0.145749 -0.758028 0.000000 
0.201664 -0.744554 0.000000 
0.225992 -0.796671 0.000000 
0.278030 -0.790805 0.000000 
0.296791 -0.850748 0.000000 
0.344206 -0.850755 0.000000 
VECTORS X_EC float 
0.338794 -0.525832 0.000000 
-0.609100 0.555419 0.000000 
0.713312 0.666560 0.000000 
0.374519 0.047131 0.000000 
0.423588 -0.309600 0.000000 
-0.218274 -0.275496 0.000000 
-0.513962 -0.999735 0.000000 
0.756418 -0.788249 0.000000 
0.381900 0.669358 0.000000 
-0.550868 0.837797 0.000000 
0.823577 0.848592 0.000000 
0.556234 0.075088 0.000000 
-0.139443 0.192657 0.000000 
-0.484677 -0.445467 0.000000 
0.766286 -0.180252 0.000000 
0.384386 -0.694872 0.000000 
0.474677 -0.014806 0.000000 
-0.141715 -0.014903 0.000000 
-0.385608 -0.824131 0.000000 
0.937896 -0.744935 0.000000 
0.621631 0.551485 0.000000 
-0.105264 0.733384 0.000000 
-0.467428 0.134757 0.000000 
0.771260 0.441286 0.000000 
0.386873 -0.059103 0.000000 
0.761262 0.024302 0.000000 
0.108942 0.305679 0.000000 
-0.397202 -0.175160 0.000000 
-0.142083 -0.836436 0.000000 
-0.595936 0.604790 0.000000 
0.978194 0.104924 0.000000 
-0.660903 -0.586701 0.000000 
0.724964 0.952779 0.000000 
0.899809 0.310530 0.000000 
0.685384 0.905842 0.000000 
0.287229 0.404683 0.000000 
0.702895 -0.294645 0.000000 
0.180633 -0.786164 0.000000 
0.445811 0.535676 0.000000 
-0.220880 0.092890 0.000000 
-0.071546 -0.538035 0.000000 
-0.033296 -0.793106 0.000000 
-0.417537 0.706384 0.000000 
0.039645 0.003822 0.000000 
-0.441768 -0.496049 0.000000 
-0.109248 0.808500 0.000000 
-0.699407 0.331744 0.000000 
-0.474522 -0.335535 0.000000 
0.820030 -0.762528 0.000000 
0.957100 0.613400 0.000000 
0.610485 0.710309 0.000000 
-0.761092 -0.020072 0.000000 
-0.714655 -0.730810 0.000000 
-0.057734 -0.935977 0.000000 
-0.178789 -0.782068 0.000000 
-0.067979 0.560506 0.000000 
0.677748 0.422303 0.000000 
0.641556 -0.363443 0.000000 
-0.765897 -0.621921 0.000000 
0.393446 0.445941 0.000000 
0.522510 -0.189789 0.000000 
-0.691820 -0.288333 0.000000 
-0.647393 0.981184 0.000000 
0.028512 0.773658 0.000000 
-0.053800 -0.043703 0.000000 
0.514316 -0.315833 0.000000 
0.965681 -0.326050 0.000000 
-0.897068 -0.950079 0.000000 
-0.083078 0.983068 0.000000 
-0.006893 0.280544 0.000000 
0.724017 0.116911 0.000000 
0.714996 -0.659493 0.000000 
-0.642413 -0.892950 0.000000 
-0.760780 0.268070 0.000000 
-0.205471 -0.009746 0.000000 
0.000000 -0.984390 0.000000 
-0.564049 0.317423 0.000000 
0.000000 -0.088013 0.000000 
0.564049 0.317423 0.000000 
0.866949 -0.437922 0.000000 
-0.569003 -0.757853 0.000000 
0.000000 -0.238565 0.000000 
0.569003 -0.757853 0.000000 
-0.866949 -0.437922 0.000000 
0.299194 0.792328 0.000000 
0.858290 0.500745 0.000000 
-0.577662 -0.922810 0.000000 
0.000000 0.657812 0.000000 
0.577662 -0.922810 0.000000 
-0.858290 0.500745 0.000000 
-0.299194 0.792328 0.000000 
-0.268560 0.022578 0.000000 
0.286830 -0.255063 0.000000 
0.844677 0.364135 0.000000 
-0.578910 -0.012028 0.000000 
0.000000 0.479376 0.000000 
0.578910 -0.012028 0.000000 
-0.844677 0.364135 0.000000 
-0.286830 -0.255063 0.000000 
0.268560 0.022578 0.000000 
-0.610485 0.710309 0.000000 
0.057734 -0.935977 0.000000 
0.714655 -0.730810 0.000000 
0.761092 -0.020072 0.000000 
0.765897 -0.621921 0.000000 
-0.641556 -0.363443 0.000000 
-0.677748 0.422303 0.000000 
0.067979 0.560506 0.000000 
0.178789 -0.782068 0.000000 
-0.514316 -0.315833 0.000000 
0.053800 -0.043703 0.000000 
-0.028512 0.773658 0.000000 
0.647393 0.981184 0.000000 
0.691820 -0.288333 0.000000 
-0.522510 -0.189789 0.000000 
-0.393446 0.445941 0.000000 
0.205471 -0.009746 0.000000 
0.760780 0.268070 0.000000 
0.642413 -0.892950 0.000000 
-0.714996 -0.659493 0.000000 
-0.724017 0.116911 0.000000 
0.006894 0.280544 0.000000 
0.083078 0.983068 0.000000 
0.897068 -0.950079 0.000000 
-0.965681 -0.326050 0.000000 
-0.761262 0.024302 0.000000 
0.142083 -0.836436 0.000000 
0.397202 -0.175160 0.000000 
-0.108942 0.305679 0.000000 
-0.899809 0.310530 0.000000 
-0.724964 0.952779 0.000000 
0.660903 -0.586701 0.000000 
-0.978194 0.104924 0.000000 
0.595936 0.604790 0.000000 
0.071546 -0.538035 0.000000 
0.220880 0.092890 0.000000 
-0.445811 0.535676 0.000000 
-0.180633 -0.786164 0.000000 
-0.702895 -0.294645 0.000000 
-0.287229 0.404683 0.000000 
-0.685384 0.905842 0.000000 
-0.957100 0.613400 0.000000 
-0.820030 -0.762528 0.000000 
0.474522 -0.335535 0.000000 
0.699407 0.331744 0.000000 
0.109248 0.808500 0.000000 
0.441768 -0.496049 0.000000 
-0.039645 0.003822 0.000000 
0.417537 0.706384 0.000000 
0.033296 -0.793106 0.000000 
-0.338794 -0.525832 0.000000 
-0.374519 0.047131 0.000000 
-0.713312 0.666560 0.000000 
0.609100 0.555419 0.000000 
-0.381900 0.669358 0.000000 
-0.756418 -0.788249 0.000000 
0.513962 -0.999735 0.000000 
0.218274 -0.275496 0.000000 
-0.423588 -0.309600 0.000000 
-0.384386 -0.694872 0.000000 
-0.766286 -0.180252 0.000000 
0.484677 -0.445467 0.000000 
0.139443 0.192657 0.000000 
-0.556234 0.075088 0.000000 
-0.823577 0.848592 0.000000 
0.550868 0.837797 0.000000 
-0.386873 -0.059103 0.000000 
-0.771260 0.441286 0.000000 
0.467428 0.134757 0.000000 
0.105264 0.733384 0.000000 
-0.621631 0.551485 0.000000 
-0.937896 -0.744935 0.000000 
0.385608 -0.824131 0.000000 
0.141715 -0.014903 0.000000 
-0.474677 -0.014806 0.000000 
CELL_DATA 175 
SCALARS MASS float 
LOOKUP_TABLE default 
0.078183 
0.086427 
0.094672 
0.086427 
0.088131 
0.092111 
0.085854 
0.092111 
0.088131 
0.088705 
0.091000 
0.086983 
0.091556 
0.086983 
0.091000 
0.088705 
0.089278 
0.091574 
0.089278 
0.092722 
0.089278 
0.092722 
0.089278 
0.091574 
0.089278 
0.078183 
0.086427 
0.094672 
0.086427 
0.088131 
0.092111 
0.085854 
0.092111 
0.088131 
0.088705 
0.091000 
0.086983 
0.091556 
0.086983 
0.091000 
0.088705 
0.089278 
0.091574 
0.089278 
0.092722 
0.089278 
0.092722 
0.089278 
0.091574 
0.089278 
0.078183 
0.086427 
0.094672 
0.086427 
0.088131 
0.092111 
0.085854 
0.092111 
0.088131 
0.088705 
0.091000 
0.086983 
0.091556 
0.086983 
0.091000 
0.088705 
0.089278 
0.091574 
0.089278 
0.092722 
0.089278 
0.092722 
0.089278 
0.091574 
0.089278 
0.078183 
0.086427 
0.094672 
0.086427 
0.088131 
0.092111 
0.085854 
0.092111 
0.088131 
0.088705 
0.091000 
0.086983 
0.091556 
0.086983 
0.091000 
0.088705 
0.089278 
0.091574 
0.089278 
0.092722 
0.089278 
0.092722 
0.089278 
0.091574 
0.089278 
0.078183 
0.086427 
0.094672 
0.086427 
0.088131 
0.092111 
0.085854 
0.092111 
0.088131 
0.088705 
0.091000 
0.086983 
0.091556 
0.086983 
0.091000 
0.088705 
0.089278 
0.091574 
0.089278 
0.092722 
0.089278 
0.092722 
0.089278 
0.091574 
0.089278 
0.078183 
0.086427 
0.094672 
0.086427 
0.088131 
0.092111 
0.085854 
0.092111 
0.088131 
0.088705 
0.091000 
0.086983 
0.091556 
0.086983 
0.091000 
0.088705 
0.089278 
0.091574 
0.089278 
0.092722 
0.089278 
0.092722 
0.089278 
0.091574 
0.089278 
0.078183 
0.086427 
0.094672 
0.086427 
0.088131 
0.092111 
0.085854 
0.092111 
0.088131 
0.088705 
0.091000 
0.086983 
0.091556 
0.086983 
0.091000 
0.088705 
0.089278 
0.091574 
0.089278 
0.092722 
0.089278 
0.092722 
0.089278 
0.091574 
0.089278 
SCALARS MASS float 
LOOKUP_TABLE default 
0.078183 
0.086427 
0.094672 
0.086427 
0.088131 
0.092111 
0.085854 
0.092111 
0.088131 
0.088705 
0.091000 
0.086983 
0.091556 
0.086983 
0.091000 
0.088705 
0.089278 
0.091574 
0.089278 
0.092722 
0.089278 
0.092722 
0.089278 
0.091574 
0.089278 
0.078183 
0.086427 
0.094672 
0.086427 
0.088131 
0.092111 
0.085854 
0.092111 
0.088131 
0.088705 
0.091000 
0.086983 
0.091556 
0.086983 
0.091000 
0.088705 
0.089278 
0.091574 
0.089278 
0.092722 
0.089278 
0.092722 
0.089278 
0.091574 
0.089278 
0.078183 
0.086427 
0.094672 
0.086427 
0.088131 
0.092111 
0.085854 
0.092111 
0.088131 
0.088705 
0.091000 
0.086983 
0.091556 
0.086983 
0.091000 
0.088705 
0.089278 
0.091574 
0.089278 
0.092722 
0.089278 
0.092722 
0.089278 
0.091574 
0.089278 
0.078183 
0.086427 
0.094672 
0.086427 
0.088131 
0.092111 
0.085854 
0.092111 
0.088131 
0.088705 
0.091000 
0.086983 
0.091556 
0.086983 
0.091000 
0.088705 
0.089278 
0.091574 
0.089278 
0.092722 
0.089278 
0.092722 
0.089278 
0.091574 
0.089278 
0.078183 
0.086427 
0.094672 
0.086427 
0.088131 
0.092111 
0.085854 
0.092111 
0.088131 
0.088705 
0.091000 
0.086983 
0.091556 
0.086983 
0.091000 
0.088705 
0.089278 
0.091574 
0.089278 
0.092722 
0.089278 
0.092722 
0.089278 
0.091574 
0.089278 
0.078183 
0.086427 
0.094672 
0.086427 
0.088131 
0.092111 
0.085854 
0.092111 
0.088131 
0.088705 
0.091000 
0.086983 
0.091556 
0.086983 
0.091000 
0.088705 
0.089278 
0.091574 
0.089278 
0.092722 
0.089278 
0.092722 
0.089278 
0.091574 
0.089278 
0.078183 
0.086427 
0.094672 
0.086427 
0.088131 
0.092111 
0.085854 
0.092111 
0.088131 
0.088705 
0.091000 
0.086983 
0.091556 
0.086983 
0.091000 
0.088705 
0.089278 
0.091574 
0.089278 
0.092722 
0.089278 
0.092722 
0.089278 
0.091574 
0.089278 
SCALARS DENSITY float 
LOOKUP_TABLE default 
20.000000 
20.000000 
20.000000 
20.000000 
20.000000 
20.000000 
20.000000 
20.000000 
20.000000 
20.000000 
20.000000 
20.000000 
20.000000 
20.000000 
20.000000 
20.000000 
20.000000 
20.000000 
20.000000 
20.000000 
20.000000 
20.000000 
20.000000 
20.000000 
20.000000 
20.000000 
20.000000 
20.000000 
20.000000 
20.000000 
20.000000 
20.000000 
20.000000 
20.000000 
20.000000 
20.000000 
20.000000 
20.000000 
20.000000 
20.000000 
20.000000 
20.000000 
20.000000 
20.000000 
20.000000 
20.000000 
20.000000 
20.000000 
20.000000 
20.000000 
20.000000 
20.000000 
20.000000 
20.000000 
20.000000 
20.000000 
20.000000 
20.000000 
20.000000 
20.000000 
20.000000 
20.000000 
20.000000 
20.000000 
20.000000 
20.000000 
20.000000 
20.000000 
20.000000 
20.000000 
20.000000 
20.000000 
20.000000 
20.000000 
20.000000 
20.000000 
20.000000 
20.000000 
20.000000 
20.000000 
20.000000 
20.000000 
20.000000 
20.000000 
20.000000 
20.000000 
20.000000 
20.000000 
20.000000 
20.000000 
20.000000 
20.000000 
20.000000 
20.000000 
20.000000 
20.000000 
20.000000 
20.000000 
20.000000 
20.000000 
20.000000 
20.000000 
20.000000 
20.000000 
20.000000 
20.000000 
20.000000 
20.000000 
20.000000 
20.000000 
20.000000 
20.000000 
20.000000 
20.000000 
20.000000 
20.000000 
20.000000 
20.000000 
20.000000 
20.000000 
20.000000 
20.000000 
20.000000 
20.000000 
20.000000 
20.000000 
20.000000 
20.000000 
20.000000 
20.000000 
20.000000 
20.000000 
20.000000 
20.000000 
20.000000 
20.000000 
20.000000 
20.000000 
20.000000 
20.000000 
20.000000 
20.000000 
20.000000 
20.000000 
20.000000 
20.000000 
20.000000 
20.000000 
20.000000 
20.000000 
20.000000 
20.000000 
20.000000 
20.000000 
20.000000 
20.000000 
20.000000 
20.000000 
20.000000 
20.000000 
20.000000 
20.000000 
20.000000 
20.000000 
20.000000 
20.000000 
20.000000 
20.000000 
20.000000 
20.000000 
20.000000 
20.000000 
20.000000 
20.000000 
20.000000 
SCALARS ELEM_i float 
LOOKUP_TABLE default 
174 
202 
175 
175 
202 
202 
202 
175 
176 
230 
203 
203 
203 
203 
176 
176 
230 
230 
230 
203 
204 
204 
204 
177 
177 
174 
201 
201 
201 
228 
201 
228 
202 
202 
228 
228 
228 
228 
229 
229 
229 
254 
255 
255 
255 
256 
256 
256 
229 
230 
174 
200 
200 
200 
199 
200 
200 
200 
227 
199 
199 
226 
227 
227 
227 
227 
198 
225 
226 
226 
226 
226 
253 
254 
254 
173 
173 
173 
173 
145 
172 
172 
172 
199 
145 
145 
171 
172 
171 
199 
199 
144 
144 
144 
171 
171 
171 
198 
198 
198 
174 
146 
146 
146 
119 
146 
146 
146 
145 
119 
119 
119 
119 
118 
145 
145 
92 
92 
91 
118 
118 
118 
118 
117 
144 
174 
147 
147 
147 
148 
148 
120 
147 
120 
121 
121 
121 
120 
120 
120 
120 
122 
121 
94 
94 
94 
93 
93 
93 
92 
174 
175 
175 
148 
176 
175 
148 
148 
148 
176 
176 
149 
149 
149 
149 
122 
177 
177 
150 
150 
150 
149 
122 
122 
122 
VECTORS VELOCITY float 
-0.000000 -4.777078 0.000000 
-0.000000 -4.777078 0.000000 
-0.000000 -4.777078 0.000000 
-0.000000 -4.777078 0.000000 
-0.000000 -4.777078 0.000000 
-0.000000 -4.777078 0.000000 
0.000000 -4.777078 0.000000 
0.000000 -4.777078 0.000000 
0.000000 -4.777078 0.000000 
-0.000000 -4.777078 0.000000 
-0.000000 -4.777078 0.000000 
0.000000 -4.777078 0.000000 
0.000000 -4.777078 0.000000 
0.000000 -4.777078 0.000000 
0.000000 -4.777078 0.000000 
0.000000 -4.777078 0.000000 
0.000000 -4.777078 0.000000 
0.000000 -4.777078 0.000000 
-0.000000 -4.777078 0.000000 
0.000000 -4.777078 0.000000 
0.000000 -4.777078 0.000000 
0.000000 -4.777078 0.000000 
-0.000000 -4.777078 0.000000 
0.000000 -4.777078 0.000000 
-0.000000 -4.777078 0.000000 
0.000000 -4.777078 0.000000 
-0.000000 -4.777078 0.000000 
-0.000000 -4.777078 0.000000 
-0.000000 -4.777078 0.000000 
0.000000 -4.777078 0.000000 
0.000000 -4.777078 0.000000 
0.000000 -4.777078 0.000000 
0.000000 -4.777078 0.000000 
0.000000 -4.777078 0.000000 
0.000000 -4.777078 0.000000 
0.000000 -4.777078 0.000000 
0.000000 -4.777078 0.000000 
0.000000 -4.777078 0.000000 
0.000000 -4.777078 0.000000 
0.000000 -4.777078 0.000000 
-0.000000 -4.777078 0.000000 
0.000000 -4.777078 0.000000 
0.000000 -4.777078 0.000000 
0.000000 -4.777078 0.000000 
0.000000 -4.777078 0.000000 
0.000000 -4.777078 0.000000 
0.000000 -4.777078 0.000000 
0.000000 -4.777078 0.000000 
-0.000000 -4.777078 0.000000 
-0.000000 -4.777078 0.000000 
-0.000000 -4.777078 0.000000 
-0.000000 -4.777078 0.000000 
-0.000000 -4.777078 0.000000 
-0.000000 -4.777078 0.000000 
-0.000000 -4.777078 0.000000 
-0.000000 -4.777078 0.000000 
-0.000000 -4.777078 0.000000 
0.000000 -4.777078 0.000000 
0.000000 -4.777078 0.000000 
-0.000000 -4.777078 0.000000 
-0.000000 -4.777078 0.000000 
-0.000000 -4.777078 0.000000 
-0.000000 -4.777078 0.000000 
0.000000 -4.777078 0.000000 
0.000000 -4.777078 0.000000 
0.000000 -4.777078 0.000000 
-0.000000 -4.777078 0.000000 
-0.000000 -4.777078 0.000000 
-0.000000 -4.777078 0.000000 
-0.000000 -4.777078 0.000000 
-0.000000 -4.777078 0.000000 
0.000000 -4.777078 0.000000 
-0.000000 -4.777078 0.000000 
0.000000 -4.777078 0.000000 
0.000000 -4.777078 0.000000 
0.000000 -4.777078 0.000000 
0.000000 -4.777078 0.000000 
-0.000000 -4.777078 0.000000 
0.000000 -4.777078 0.000000 
-0.000000 -4.777078 0.000000 
-0.000000 -4.777078 0.000000 
0.000000 -4.777078 0.000000 
-0.000000 -4.777078 0.000000 
-0.000000 -4.777078 0.000000 
0.000000 -4.777078 0.000000 
0.000000 -4.777078 0.000000 
0.000000 -4.777078 0.000000 
-0.000000 -4.777078 0.000000 
0.000000 -4.777078 0.000000 
-0.000000 -4.777078 0.000000 
-0.000000 -4.777078 0.000000 
0.000000 -4.777078 0.000000 
0.000000 -4.777078 0.000000 
-0.000000 -4.777078 0.000000 
0.000000 -4.777078 0.000000 
-0.000000 -4.777078 0.000000 
0.000000 -4.777078 0.000000 
0.000000 -4.777078 0.000000 
-0.000000 -4.777078 0.000000 
0.000000 -4.777078 0.000000 
0.000000 -4.777078 0.000000 
0.000000 -4.777078 0.000000 
0.000000 -4.777078 0.000000 
-0.000000 -4.777078 0.000000 
-0.000000 -4.777078 0.000000 
-0.000000 -4.777078 0.000000 
-0.000000 -4.777078 0.000000 
-0.000000 -4.777078 0.000000 
-0.000000 -4.777078 0.000000 
0.000000 -4.777078 0.000000 
-0.000000 -4.777078 0.000000 
-0.000000 -4.777078 0.000000 
-0.000000 -4.777078 0.000000 
-0.000000 -4.777078 0.000000 
0.000000 -4.777078 0.000000 
0.000000 -4.777078 0.000000 
0.000000 -4.777078 0.000000 
0.000000 -4.777078 0.000000 
-0.000000 -4.777078 0.000000 
-0.000000 -4.777078 0.000000 
-0.000000 -4.777078 0.000000 
0.000000 -4.777078 0.000000 
-0.000000 -4.777078 0.000000 
0.000000 -4.777078 0.000000 
-0.000000 -4.777078 0.000000 
0.000000 -4.777078 0.000000 
-0.000000 -4.777078 0.000000 
0.000000 -4.777078 0.000000 
0.000000 -4.777078 0.000000 
-0.000000 -4.777078 0.000000 
-0.000000 -4.777078 0.000000 
-0.000000 -4.777078 0.000000 
0.000000 -4.777078 0.000000 
0.000000 -4.777078 0.000000 
0.000000 -4.777078 0.000000 
-0.000000 -4.777078 0.000000 
-0.000000 -4.777078 0.000000 
-0.000000 -4.777078 0.000000 
-0.000000 -4.777078 0.000000 
-0.000000 -4.777078 0.000000 
-0.000000 -4.777078 0.000000 
0.000000 -4.777078 0.000000 
0.000000 -4.777078 0.000000 
0.000000 -4.777078 0.000000 
0.000000 -4.777078 0.000000 
0.000000 -4.777078 0.000000 
-0.000000 -4.777078 0.000000 
-0.000000 -4.777078 0.000000 
-0.000000 -4.777078 0.000000 
-0.000000 -4.777078 0.000000 
0.000000 -4.777078 0.000000 
-0.000000 -4.777078 0.000000 
-0.000000 -4.777078 0.000000 
-0.000000 -4.777078 0.000000 
0.000000 -4.777078 0.000000 
-0.000000 -4.777078 0.000000 
0.000000 -4.777078 0.000000 
-0.000000 -4.777078 0.000000 
-0.000000 -4.777078 0.000000 
-0.000000 -4.777078 0.000000 
0.000000 -4.777078 0.000000 
-0.000000 -4.777078 0.000000 
-0.000000 -4.777078 0.000000 
-0.000000 -4.777078 0.000000 
-0.000000 -4.777078 0.000000 
-0.000000 -4.777078 0.000000 
-0.000000 -4.777078 0.000000 
0.000000 -4.777078 0.000000 
-0.000000 -4.777078 0.000000 
-0.000000 -4.777078 0.000000 
0.000000 -4.777078 0.000000 
-0.000000 -4.777078 0.000000 
-0.000000 -4.777078 0.000000 
0.000000 -4.777078 0.000000 
0.000000 -4.777078 0.000000 
TENSORS STRESS float 
0.000000 0.000000 0.000000 
0.000000 -0.000000 0.000000 
0.000000 0.000000 0.000000 

0.000000 -0.000000 0.000000 
0.000000 0.000000 0.000000 
0.000000 0.000000 0.000000 

0.000000 -0.000000 0.000000 
0.000000 -0.000000 0.000000 
0.000000 0.000000 0.000000 

0.000000 -0.000000 0.000000 
0.000000 0.000000 0.000000 
0.000000 0.000000 0.000000 

-0.000000 0.000000 0.000000 
0.000000 -0.000000 0.000000 
0.000000 0.000000 0.000000 

0.000000 -0.000000 0.000000 
0.000000 0.000000 0.000000 
0.000000 0.000000 0.000000 

-0.000000 0.000000 0.000000 
0.000000 0.000000 0.000000 
0.000000 0.000000 0.000000 

0.000000 0.000000 0.000000 
0.000000 0.000000 0.000000 
0.000000 0.000000 0.000000 

-0.000000 0.000000 0.000000 
0.000000 -0.000000 0.000000 
0.000000 0.000000 0.000000 

-0.000000 0.000000 0.000000 
0.000000 0.000000 0.000000 
0.000000 0.000000 0.000000 

-0.000000 -0.000000 0.000000 
0.000000 -0.000000 0.000000 
0.000000 0.000000 0.000000 

0.000000 0.000000 0.000000 
0.000000 0.000000 0.000000 
0.000000 0.000000 0.000000 

0.000000 0.000000 0.000000 