# vtk DataFile Version 3.0 
vtk output 
ASCII 
DATASET UNSTRUCTURED_GRID 
POINTS 175 float 
-0.026061 -0.571021 0.000000 
-0.106992 -0.502966 0.000000 
-0.054870 -0.511198 0.000000 
-0.028809 -0.465315 0.000000 
-0.186430 -0.438890 0.000000 
-0.137056 -0.441416 0.000000 
-0.114311 -0.387769 0.000000 
-0.058186 -0.403435 0.000000 
-0.029377 -0.363257 0.000000 
-0.265318 -0.375734 0.000000 
-0.217198 -0.376534 0.000000 
-0.196633 -0.319237 0.000000 
-0.143120 -0.327946 0.000000 
-0.116563 -0.280678 0.000000 
-0.058945 -0.300323 0.000000 
-0.029568 -0.262203 0.000000 
-0.344206 -0.312578 0.000000 
-0.296791 -0.312571 0.000000 
-0.278030 -0.252629 0.000000 
-0.225992 -0.258495 0.000000 
-0.201664 -0.206378 0.000000 
-0.145749 -0.219852 0.000000 
-0.117890 -0.175509 0.000000 
-0.059328 -0.198215 0.000000 
-0.029759 -0.161149 0.000000 
-0.058559 -0.611772 0.000000 
-0.162226 -0.632614 0.000000 
-0.123292 -0.596997 0.000000 
-0.142917 -0.548013 0.000000 
-0.261851 -0.654771 0.000000 
-0.229092 -0.617744 0.000000 
-0.256854 -0.566512 0.000000 
-0.209613 -0.532400 0.000000 
-0.223062 -0.484826 0.000000 
-0.360414 -0.677071 0.000000 
-0.329787 -0.639948 0.000000 
-0.361761 -0.588146 0.000000 
-0.321587 -0.551737 0.000000 
-0.341985 -0.501503 0.000000 
-0.290702 -0.468704 0.000000 
-0.302189 -0.421969 0.000000 
-0.458977 -0.699371 0.000000 
-0.429420 -0.662296 0.000000 
-0.464588 -0.610255 0.000000 
-0.427556 -0.573227 0.000000 
-0.453135 -0.521712 0.000000 
-0.407738 -0.486397 0.000000 
-0.425037 -0.436969 0.000000 
-0.370772 -0.405340 0.000000 
-0.381315 -0.359112 0.000000 
-0.046960 -0.662587 0.000000 
-0.095301 -0.756633 0.000000 
-0.098873 -0.703986 0.000000 
-0.149405 -0.688788 0.000000 
-0.140093 -0.848337 0.000000 
-0.148617 -0.799639 0.000000 
-0.205981 -0.789401 0.000000 
-0.203197 -0.731198 0.000000 
-0.248777 -0.712051 0.000000 
-0.184111 -0.939301 0.000000 
-0.194039 -0.892209 0.000000 
-0.254475 -0.884910 0.000000 
-0.257893 -0.830800 0.000000 
-0.309886 -0.815428 0.000000 
-0.303554 -0.754882 0.000000 
-0.347255 -0.734725 0.000000 
-0.228129 -1.030264 0.000000 
-0.238687 -0.984040 0.000000 
-0.301302 -0.979088 0.000000 
-0.307162 -0.927049 0.000000 
-0.363386 -0.914928 0.000000 
-0.362692 -0.857417 0.000000 
-0.412122 -0.840123 0.000000 
-0.403017 -0.777977 0.000000 
-0.445733 -0.757398 0.000000 
-0.000000 -0.685202 0.000000 
0.043388 -0.781633 0.000000 
-0.000000 -0.751600 0.000000 
-0.043388 -0.781633 0.000000 
0.087158 -0.873829 0.000000 
0.043769 -0.850131 0.000000 
-0.000000 -0.888596 0.000000 
-0.043769 -0.850131 0.000000 
-0.087158 -0.873829 0.000000 
0.130831 -0.964959 0.000000 
0.087824 -0.943360 0.000000 
0.044436 -0.986060 0.000000 
-0.000000 -0.954995 0.000000 
-0.044436 -0.986060 0.000000 
-0.087824 -0.943360 0.000000 
-0.130831 -0.964959 0.000000 
0.174505 -1.056088 0.000000 
0.131782 -1.035522 0.000000 
0.088871 -1.081389 0.000000 
0.044532 -1.053525 0.000000 
-0.000000 -1.089925 0.000000 
-0.044532 -1.053525 0.000000 
-0.088871 -1.081389 0.000000 
-0.131782 -1.035522 0.000000 
-0.174505 -1.056088 0.000000 
0.046960 -0.662587 0.000000 
0.149405 -0.688788 0.000000 
0.098873 -0.703986 0.000000 
0.095301 -0.756633 0.000000 
0.248777 -0.712051 0.000000 
0.203197 -0.731198 0.000000 
0.205981 -0.789401 0.000000 
0.148617 -0.799639 0.000000 
0.140093 -0.848337 0.000000 
0.347255 -0.734725 0.000000 
0.303554 -0.754882 0.000000 
0.309886 -0.815428 0.000000 
0.257893 -0.830800 0.000000 
0.254475 -0.884910 0.000000 
0.194039 -0.892209 0.000000 
0.184111 -0.939301 0.000000 
0.445733 -0.757398 0.000000 
0.403017 -0.777977 0.000000 
0.412122 -0.840123 0.000000 
0.362692 -0.857417 0.000000 
0.363386 -0.914928 0.000000 
0.307162 -0.927049 0.000000 
0.301302 -0.979088 0.000000 
0.238687 -0.984040 0.000000 
0.228129 -1.030264 0.000000 
0.058559 -0.611772 0.000000 
0.142917 -0.548013 0.000000 
0.123292 -0.596997 0.000000 
0.162226 -0.632614 0.000000 
0.223062 -0.484826 0.000000 
0.209613 -0.532400 0.000000 
0.256854 -0.566512 0.000000 
0.229092 -0.617744 0.000000 
0.261851 -0.654771 0.000000 
0.302189 -0.421969 0.000000 
0.290702 -0.468704 0.000000 
0.341985 -0.501503 0.000000 
0.321587 -0.551737 0.000000 
0.361761 -0.588146 0.000000 
0.329787 -0.639948 0.000000 
0.360414 -0.677071 0.000000 
0.381315 -0.359112 0.000000 
0.370772 -0.405340 0.000000 
0.425037 -0.436969 0.000000 
0.407738 -0.486397 0.000000 
0.453135 -0.521712 0.000000 
0.427556 -0.573227 0.000000 
0.464588 -0.610255 0.000000 
0.429420 -0.662296 0.000000 
0.458977 -0.699371 0.000000 
0.026061 -0.571021 0.000000 
0.028809 -0.465315 0.000000 
0.054870 -0.511198 0.000000 
0.106992 -0.502966 0.000000 
0.029377 -0.363257 0.000000 
0.058186 -0.403435 0.000000 
0.114311 -0.387769 0.000000 
0.137056 -0.441416 0.000000 
0.186430 -0.438890 0.000000 
0.029568 -0.262203 0.000000 
0.058945 -0.300323 0.000000 
0.116563 -0.280678 0.000000 
0.143120 -0.327946 0.000000 
0.196633 -0.319237 0.000000 
0.217198 -0.376534 0.000000 
0.265318 -0.375734 0.000000 
0.029759 -0.161149 0.000000 
0.059328 -0.198215 0.000000 
0.117890 -0.175509 0.000000 
0.145749 -0.219852 0.000000 
0.201664 -0.206378 0.000000 
0.225992 -0.258495 0.000000 
0.278030 -0.252629 0.000000 
0.296791 -0.312571 0.000000 
0.344206 -0.312578 0.000000 
CELLS 175 350 
1 0 
1 1 
1 2 
1 3 
1 4 
1 5 
1 6 
1 7 
1 8 
1 9 
1 10 
1 11 
1 12 
1 13 
1 14 
1 15 
1 16 
1 17 
1 18 
1 19 
1 20 
1 21 
1 22 
1 23 
1 24 
1 25 
1 26 
1 27 
1 28 
1 29 
1 30 
1 31 
1 32 
1 33 
1 34 
1 35 
1 36 
1 37 
1 38 
1 39 
1 40 
1 41 
1 42 
1 43 
1 44 
1 45 
1 46 
1 47 
1 48 
1 49 
1 50 
1 51 
1 52 
1 53 
1 54 
1 55 
1 56 
1 57 
1 58 
1 59 
1 60 
1 61 
1 62 
1 63 
1 64 
1 65 
1 66 
1 67 
1 68 
1 69 
1 70 
1 71 
1 72 
1 73 
1 74 
1 75 
1 76 
1 77 
1 78 
1 79 
1 80 
1 81 
1 82 
1 83 
1 84 
1 85 
1 86 
1 87 
1 88 
1 89 
1 90 
1 91 
1 92 
1 93 
1 94 
1 95 
1 96 
1 97 
1 98 
1 99 
1 100 
1 101 
1 102 
1 103 
1 104 
1 105 
1 106 
1 107 
1 108 
1 109 
1 110 
1 111 
1 112 
1 113 
1 114 
1 115 
1 116 
1 117 
1 118 
1 119 
1 120 
1 121 
1 122 
1 123 
1 124 
1 125 
1 126 
1 127 
1 128 
1 129 
1 130 
1 131 
1 132 
1 133 
1 134 
1 135 
1 136 
1 137 
1 138 
1 139 
1 140 
1 141 
1 142 
1 143 
1 144 
1 145 
1 146 
1 147 
1 148 
1 149 
1 150 
1 151 
1 152 
1 153 
1 154 
1 155 
1 156 
1 157 
1 158 
1 159 
1 160 
1 161 
1 162 
1 163 
1 164 
1 165 
1 166 
1 167 
1 168 
1 169 
1 170 
1 171 
1 172 
1 173 
1 174 
CELL_TYPES 175 
1 
1 
1 
1 
1 
1 
1 
1 
1 
1 
1 
1 
1 
1 
1 
1 
1 
1 
1 
1 
1 
1 
1 
1 
1 
1 
1 
1 
1 
1 
1 
1 
1 
1 
1 
1 
1 
1 
1 
1 
1 
1 
1 
1 
1 
1 
1 
1 
1 
1 
1 
1 
1 
1 
1 
1 
1 
1 
1 
1 
1 
1 
1 
1 
1 
1 
1 
1 
1 
1 
1 
1 
1 
1 
1 
1 
1 
1 
1 
1 
1 
1 
1 
1 
1 
1 
1 
1 
1 
1 
1 
1 
1 
1 
1 
1 
1 
1 
1 
1 
1 
1 
1 
1 
1 
1 
1 
1 
1 
1 
1 
1 
1 
1 
1 
1 
1 
1 
1 
1 
1 
1 
1 
1 
1 
1 
1 
1 
1 
1 
1 
1 
1 
1 
1 
1 
1 
1 
1 
1 
1 
1 
1 
1 
1 
1 
1 
1 
1 
1 
1 
1 
1 
1 
1 
1 
1 
1 
1 
1 
1 
1 
1 
1 
1 
1 
1 
1 
1 
1 
1 
1 
1 
1 
1 
POINT_DATA 175 
VECTORS X_GC float 
-0.026061 -0.571021 0.000000 
-0.106992 -0.502966 0.000000 
-0.054870 -0.511198 0.000000 
-0.028809 -0.465315 0.000000 
-0.186430 -0.438890 0.000000 
-0.137056 -0.441416 0.000000 
-0.114311 -0.387769 0.000000 
-0.058186 -0.403435 0.000000 
-0.029377 -0.363257 0.000000 
-0.265318 -0.375734 0.000000 
-0.217198 -0.376534 0.000000 
-0.196633 -0.319237 0.000000 
-0.143120 -0.327946 0.000000 
-0.116563 -0.280678 0.000000 
-0.058945 -0.300323 0.000000 
-0.029568 -0.262203 0.000000 
-0.344206 -0.312578 0.000000 
-0.296791 -0.312571 0.000000 
-0.278030 -0.252629 0.000000 
-0.225992 -0.258495 0.000000 
-0.201664 -0.206378 0.000000 
-0.145749 -0.219852 0.000000 
-0.117890 -0.175509 0.000000 
-0.059328 -0.198215 0.000000 
-0.029759 -0.161149 0.000000 
-0.058559 -0.611772 0.000000 
-0.162226 -0.632614 0.000000 
-0.123292 -0.596997 0.000000 
-0.142917 -0.548013 0.000000 
-0.261851 -0.654771 0.000000 
-0.229092 -0.617744 0.000000 
-0.256854 -0.566512 0.000000 
-0.209613 -0.532400 0.000000 
-0.223062 -0.484826 0.000000 
-0.360414 -0.677071 0.000000 
-0.329787 -0.639948 0.000000 
-0.361761 -0.588146 0.000000 
-0.321587 -0.551737 0.000000 
-0.341985 -0.501503 0.000000 
-0.290702 -0.468704 0.000000 
-0.302189 -0.421969 0.000000 
-0.458977 -0.699371 0.000000 
-0.429420 -0.662296 0.000000 
-0.464588 -0.610255 0.000000 
-0.427556 -0.573227 0.000000 
-0.453135 -0.521712 0.000000 
-0.407738 -0.486397 0.000000 
-0.425037 -0.436969 0.000000 
-0.370772 -0.405340 0.000000 
-0.381315 -0.359112 0.000000 
-0.046960 -0.662587 0.000000 
-0.095301 -0.756633 0.000000 
-0.098873 -0.703986 0.000000 
-0.149405 -0.688788 0.000000 
-0.140093 -0.848337 0.000000 
-0.148617 -0.799639 0.000000 
-0.205981 -0.789401 0.000000 
-0.203197 -0.731198 0.000000 
-0.248777 -0.712051 0.000000 
-0.184111 -0.939301 0.000000 
-0.194039 -0.892209 0.000000 
-0.254475 -0.884910 0.000000 
-0.257893 -0.830800 0.000000 
-0.309886 -0.815428 0.000000 
-0.303554 -0.754882 0.000000 
-0.347255 -0.734725 0.000000 
-0.228129 -1.030264 0.000000 
-0.238687 -0.984040 0.000000 
-0.301302 -0.979088 0.000000 
-0.307162 -0.927049 0.000000 
-0.363386 -0.914928 0.000000 
-0.362692 -0.857417 0.000000 
-0.412122 -0.840123 0.000000 
-0.403017 -0.777977 0.000000 
-0.445733 -0.757398 0.000000 
-0.000000 -0.685202 0.000000 
0.043388 -0.781633 0.000000 
-0.000000 -0.751600 0.000000 
-0.043388 -0.781633 0.000000 
0.087158 -0.873829 0.000000 
0.043769 -0.850131 0.000000 
-0.000000 -0.888596 0.000000 
-0.043769 -0.850131 0.000000 
-0.087158 -0.873829 0.000000 
0.130831 -0.964959 0.000000 
0.087824 -0.943360 0.000000 
0.044436 -0.986060 0.000000 
-0.000000 -0.954995 0.000000 
-0.044436 -0.986060 0.000000 
-0.087824 -0.943360 0.000000 
-0.130831 -0.964959 0.000000 
0.174505 -1.056088 0.000000 
0.131782 -1.035522 0.000000 
0.088871 -1.081389 0.000000 
0.044532 -1.053525 0.000000 
-0.000000 -1.089925 0.000000 
-0.044532 -1.053525 0.000000 
-0.088871 -1.081389 0.000000 
-0.131782 -1.035522 0.000000 
-0.174505 -1.056088 0.000000 
0.046960 -0.662587 0.000000 
0.149405 -0.688788 0.000000 
0.098873 -0.703986 0.000000 
0.095301 -0.756633 0.000000 
0.248777 -0.712051 0.000000 
0.203197 -0.731198 0.000000 
0.205981 -0.789401 0.000000 
0.148617 -0.799639 0.000000 
0.140093 -0.848337 0.000000 
0.347255 -0.734725 0.000000 
0.303554 -0.754882 0.000000 
0.309886 -0.815428 0.000000 
0.257893 -0.830800 0.000000 
0.254475 -0.884910 0.000000 
0.194039 -0.892209 0.000000 
0.184111 -0.939301 0.000000 
0.445733 -0.757398 0.000000 
0.403017 -0.777977 0.000000 
0.412122 -0.840123 0.000000 
0.362692 -0.857417 0.000000 
0.363386 -0.914928 0.000000 
0.307162 -0.927049 0.000000 
0.301302 -0.979088 0.000000 
0.238687 -0.984040 0.000000 
0.228129 -1.030264 0.000000 
0.058559 -0.611772 0.000000 
0.142917 -0.548013 0.000000 
0.123292 -0.596997 0.000000 
0.162226 -0.632614 0.000000 
0.223062 -0.484826 0.000000 
0.209613 -0.532400 0.000000 
0.256854 -0.566512 0.000000 
0.229092 -0.617744 0.000000 
0.261851 -0.654771 0.000000 
0.302189 -0.421969 0.000000 
0.290702 -0.468704 0.000000 
0.341985 -0.501503 0.000000 
0.321587 -0.551737 0.000000 
0.361761 -0.588146 0.000000 
0.329787 -0.639948 0.000000 
0.360414 -0.677071 0.000000 
0.381315 -0.359112 0.000000 
0.370772 -0.405340 0.000000 
0.425037 -0.436969 0.000000 
0.407738 -0.486397 0.000000 
0.453135 -0.521712 0.000000 
0.427556 -0.573227 0.000000 
0.464588 -0.610255 0.000000 
0.429420 -0.662296 0.000000 
0.458977 -0.699371 0.000000 
0.026061 -0.571021 0.000000 
0.028809 -0.465315 0.000000 
0.054870 -0.511198 0.000000 
0.106992 -0.502966 0.000000 
0.029377 -0.363257 0.000000 
0.058186 -0.403435 0.000000 
0.114311 -0.387769 0.000000 
0.137056 -0.441416 0.000000 
0.186430 -0.438890 0.000000 
0.029568 -0.262203 0.000000 
0.058945 -0.300323 0.000000 
0.116563 -0.280678 0.000000 
0.143120 -0.327946 0.000000 
0.196633 -0.319237 0.000000 
0.217198 -0.376534 0.000000 
0.265318 -0.375734 0.000000 
0.029759 -0.161149 0.000000 
0.059328 -0.198215 0.000000 
0.117890 -0.175509 0.000000 
0.145749 -0.219852 0.000000 
0.201664 -0.206378 0.000000 
0.225992 -0.258495 0.000000 
0.278030 -0.252629 0.000000 
0.296791 -0.312571 0.000000 
0.344206 -0.312578 0.000000 
VECTORS X_EC float 
0.338794 0.208784 0.000000 
-0.609100 -0.709965 0.000000 
0.713312 -0.598824 0.000000 
0.374519 0.781746 0.000000 
0.423588 0.425016 0.000000 
-0.218274 0.459120 0.000000 
-0.513962 -0.265119 0.000000 
0.756418 -0.053633 0.000000 
0.381900 -0.596026 0.000000 
-0.550868 -0.427587 0.000000 
0.823577 -0.416792 0.000000 
0.556234 0.809704 0.000000 
-0.139443 0.927273 0.000000 
-0.484677 0.289148 0.000000 
0.766286 0.554364 0.000000 
0.384386 0.039743 0.000000 
0.474677 0.719810 0.000000 
-0.141715 0.719713 0.000000 
-0.385608 -0.089515 0.000000 
0.937896 -0.010319 0.000000 
0.621631 -0.713899 0.000000 
-0.105264 -0.532000 0.000000 
-0.467428 0.869373 0.000000 
0.771260 -0.824098 0.000000 
0.386873 0.675512 0.000000 
0.761262 0.758918 0.000000 
0.108942 -0.959705 0.000000 
-0.397202 0.559455 0.000000 
-0.142083 -0.101820 0.000000 
-0.595936 -0.660595 0.000000 
0.978194 0.839540 0.000000 
-0.660903 0.147914 0.000000 
0.724964 -0.312606 0.000000 
0.899809 -0.954854 0.000000 
0.685384 -0.359542 0.000000 
0.287229 -0.860701 0.000000 
0.702895 0.439971 0.000000 
0.180633 -0.051548 0.000000 
0.445811 -0.729708 0.000000 
-0.220880 0.827506 0.000000 
-0.071546 0.196581 0.000000 
-0.033296 -0.058490 0.000000 
-0.417537 -0.559000 0.000000 
0.039645 0.738438 0.000000 
-0.441768 0.238567 0.000000 
-0.109248 -0.456884 0.000000 
-0.699407 -0.933640 0.000000 
-0.474522 0.399081 0.000000 
0.820030 -0.027912 0.000000 
0.957100 -0.651984 0.000000 
0.610485 -0.555076 0.000000 
-0.761092 0.714544 0.000000 
-0.714655 0.003806 0.000000 
-0.057734 -0.201361 0.000000 
-0.178789 -0.047452 0.000000 
-0.067979 -0.704878 0.000000 
0.677748 -0.843082 0.000000 
0.641556 0.371173 0.000000 
-0.765897 0.112695 0.000000 
0.393446 -0.819443 0.000000 
0.522510 0.544827 0.000000 
-0.691820 0.446283 0.000000 
-0.647393 -0.284200 0.000000 
0.028512 -0.491726 0.000000 
-0.053800 0.690913 0.000000 
0.514316 0.418782 0.000000 
0.965681 0.408566 0.000000 
-0.897068 -0.215463 0.000000 
-0.083078 -0.282316 0.000000 
-0.006893 -0.984840 0.000000 
0.724017 0.851527 0.000000 
0.714996 0.075123 0.000000 
-0.642413 -0.158334 0.000000 
-0.760780 -0.997315 0.000000 
-0.205471 0.724870 0.000000 
0.000000 -0.249774 0.000000 
-0.564049 -0.947961 0.000000 
0.000000 0.646603 0.000000 
0.564049 -0.947961 0.000000 
0.866949 0.296694 0.000000 
-0.569003 -0.023237 0.000000 
0.000000 0.496051 0.000000 
0.569003 -0.023237 0.000000 
-0.866949 0.296694 0.000000 
0.299194 -0.473056 0.000000 
0.858290 -0.764640 0.000000 
-0.577662 -0.188194 0.000000 
0.000000 -0.607572 0.000000 
0.577662 -0.188194 0.000000 
-0.858290 -0.764640 0.000000 
-0.299194 -0.473056 0.000000 
-0.268560 0.757194 0.000000 
0.286830 0.479553 0.000000 
0.844677 -0.901249 0.000000 
-0.578910 0.722588 0.000000 
0.000000 -0.786008 0.000000 
0.578910 0.722588 0.000000 
-0.844677 -0.901249 0.000000 
-0.286830 0.479553 0.000000 
0.268560 0.757194 0.000000 
-0.610485 -0.555076 0.000000 
0.057734 -0.201361 0.000000 
0.714655 0.003806 0.000000 
0.761092 0.714544 0.000000 
0.765897 0.112695 0.000000 
-0.641556 0.371173 0.000000 
-0.677748 -0.843082 0.000000 
0.067979 -0.704878 0.000000 
0.178789 -0.047452 0.000000 
-0.514316 0.418782 0.000000 
0.053800 0.690913 0.000000 
-0.028512 -0.491726 0.000000 
0.647393 -0.284200 0.000000 
0.691820 0.446283 0.000000 
-0.522510 0.544827 0.000000 
-0.393446 -0.819443 0.000000 
0.205471 0.724870 0.000000 
0.760780 -0.997315 0.000000 
0.642413 -0.158334 0.000000 
-0.714996 0.075123 0.000000 
-0.724017 0.851527 0.000000 
0.006894 -0.984840 0.000000 
0.083078 -0.282316 0.000000 
0.897068 -0.215463 0.000000 
-0.965681 0.408566 0.000000 
-0.761262 0.758918 0.000000 
0.142083 -0.101820 0.000000 
0.397202 0.559455 0.000000 
-0.108942 -0.959705 0.000000 
-0.899809 -0.954854 0.000000 
-0.724964 -0.312606 0.000000 
0.660903 0.147914 0.000000 
-0.978194 0.839540 0.000000 
0.595936 -0.660595 0.000000 
0.071546 0.196581 0.000000 
0.220880 0.827506 0.000000 
-0.445811 -0.729708 0.000000 
-0.180633 -0.051548 0.000000 
-0.702895 0.439971 0.000000 
-0.287229 -0.860701 0.000000 
-0.685384 -0.359542 0.000000 
-0.957100 -0.651984 0.000000 
-0.820030 -0.027912 0.000000 
0.474522 0.399081 0.000000 
0.699407 -0.933640 0.000000 
0.109248 -0.456884 0.000000 
0.441768 0.238567 0.000000 
-0.039645 0.738438 0.000000 
0.417537 -0.559000 0.000000 
0.033296 -0.058490 0.000000 
-0.338794 0.208784 0.000000 
-0.374519 0.781746 0.000000 
-0.713312 -0.598824 0.000000 
0.609100 -0.709965 0.000000 
-0.381900 -0.596026 0.000000 
-0.756418 -0.053633 0.000000 
0.513962 -0.265119 0.000000 
0.218274 0.459120 0.000000 
-0.423588 0.425016 0.000000 
-0.384386 0.039743 0.000000 
-0.766286 0.554364 0.000000 
0.484677 0.289148 0.000000 
0.139443 0.927273 0.000000 
-0.556234 0.809704 0.000000 
-0.823577 -0.416792 0.000000 
0.550868 -0.427587 0.000000 
-0.386873 0.675512 0.000000 
-0.771260 -0.824098 0.000000 
0.467428 0.869373 0.000000 
0.105264 -0.532000 0.000000 
-0.621631 -0.713899 0.000000 
-0.937896 -0.010319 0.000000 
0.385608 -0.089515 0.000000 
0.141715 0.719713 0.000000 
-0.474677 0.719810 0.000000 
CELL_DATA 175 
SCALARS MASS float 
LOOKUP_TABLE default 
0.078183 
0.086427 
0.094672 
0.086427 
0.088131 
0.092111 
0.085854 
0.092111 
0.088131 
0.088705 
0.091000 
0.086983 
0.091556 
0.086983 
0.091000 
0.088705 
0.089278 
0.091574 
0.089278 
0.092722 
0.089278 
0.092722 
0.089278 
0.091574 
0.089278 
0.078183 
0.086427 
0.094672 
0.086427 
0.088131 
0.092111 
0.085854 
0.092111 
0.088131 
0.088705 
0.091000 
0.086983 
0.091556 
0.086983 
0.091000 
0.088705 
0.089278 
0.091574 
0.089278 
0.092722 
0.089278 
0.092722 
0.089278 
0.091574 
0.089278 
0.078183 
0.086427 
0.094672 
0.086427 
0.088131 
0.092111 
0.085854 
0.092111 
0.088131 
0.088705 
0.091000 
0.086983 
0.091556 
0.086983 
0.091000 
0.088705 
0.089278 
0.091574 
0.089278 
0.092722 
0.089278 
0.092722 
0.089278 
0.091574 
0.089278 
0.078183 
0.086427 
0.094672 
0.086427 
0.088131 
0.092111 
0.085854 
0.092111 
0.088131 
0.088705 
0.091000 
0.086983 
0.091556 
0.086983 
0.091000 
0.088705 
0.089278 
0.091574 
0.089278 
0.092722 
0.089278 
0.092722 
0.089278 
0.091574 
0.089278 
0.078183 
0.086427 
0.094672 
0.086427 
0.088131 
0.092111 
0.085854 
0.092111 
0.088131 
0.088705 
0.091000 
0.086983 
0.091556 
0.086983 
0.091000 
0.088705 
0.089278 
0.091574 
0.089278 
0.092722 
0.089278 
0.092722 
0.089278 
0.091574 
0.089278 
0.078183 
0.086427 
0.094672 
0.086427 
0.088131 
0.092111 
0.085854 
0.092111 
0.088131 
0.088705 
0.091000 
0.086983 
0.091556 
0.086983 
0.091000 
0.088705 
0.089278 
0.091574 
0.089278 
0.092722 
0.089278 
0.092722 
0.089278 
0.091574 
0.089278 
0.078183 
0.086427 
0.094672 
0.086427 
0.088131 
0.092111 
0.085854 
0.092111 
0.088131 
0.088705 
0.091000 
0.086983 
0.091556 
0.086983 
0.091000 
0.088705 
0.089278 
0.091574 
0.089278 
0.092722 
0.089278 
0.092722 
0.089278 
0.091574 
0.089278 
SCALARS MASS float 
LOOKUP_TABLE default 
0.078183 
0.086427 
0.094672 
0.086427 
0.088131 
0.092111 
0.085854 
0.092111 
0.088131 
0.088705 
0.091000 
0.086983 
0.091556 
0.086983 
0.091000 
0.088705 
0.089278 
0.091574 
0.089278 
0.092722 
0.089278 
0.092722 
0.089278 
0.091574 
0.089278 
0.078183 
0.086427 
0.094672 
0.086427 
0.088131 
0.092111 
0.085854 
0.092111 
0.088131 
0.088705 
0.091000 
0.086983 
0.091556 
0.086983 
0.091000 
0.088705 
0.089278 
0.091574 
0.089278 
0.092722 
0.089278 
0.092722 
0.089278 
0.091574 
0.089278 
0.078183 
0.086427 
0.094672 
0.086427 
0.088131 
0.092111 
0.085854 
0.092111 
0.088131 
0.088705 
0.091000 
0.086983 
0.091556 
0.086983 
0.091000 
0.088705 
0.089278 
0.091574 
0.089278 
0.092722 
0.089278 
0.092722 
0.089278 
0.091574 
0.089278 
0.078183 
0.086427 
0.094672 
0.086427 
0.088131 
0.092111 
0.085854 
0.092111 
0.088131 
0.088705 
0.091000 
0.086983 
0.091556 
0.086983 
0.091000 
0.088705 
0.089278 
0.091574 
0.089278 
0.092722 
0.089278 
0.092722 
0.089278 
0.091574 
0.089278 
0.078183 
0.086427 
0.094672 
0.086427 
0.088131 
0.092111 
0.085854 
0.092111 
0.088131 
0.088705 
0.091000 
0.086983 
0.091556 
0.086983 
0.091000 
0.088705 
0.089278 
0.091574 
0.089278 
0.092722 
0.089278 
0.092722 
0.089278 
0.091574 
0.089278 
0.078183 
0.086427 
0.094672 
0.086427 
0.088131 
0.092111 
0.085854 
0.092111 
0.088131 
0.088705 
0.091000 
0.086983 
0.091556 
0.086983 
0.091000 
0.088705 
0.089278 
0.091574 
0.089278 
0.092722 
0.089278 
0.092722 
0.089278 
0.091574 
0.089278 
0.078183 
0.086427 
0.094672 
0.086427 
0.088131 
0.092111 
0.085854 
0.092111 
0.088131 
0.088705 
0.091000 
0.086983 
0.091556 
0.086983 
0.091000 
0.088705 
0.089278 
0.091574 
0.089278 
0.092722 
0.089278 
0.092722 
0.089278 
0.091574 
0.089278 
SCALARS DENSITY float 
LOOKUP_TABLE default 
20.000000 
20.000000 
20.000000 
20.000000 
20.000000 
20.000000 
20.000000 
20.000000 
20.000000 
20.000000 
20.000000 
20.000000 
20.000000 
20.000000 
20.000000 
20.000000 
20.000000 
20.000000 
20.000000 
20.000000 
20.000000 
20.000000 
20.000000 
20.000000 
20.000000 
20.000000 
20.000000 
20.000000 
20.000000 
20.000000 
20.000000 
20.000000 
20.000000 
20.000000 
20.000000 
20.000000 
20.000000 
20.000000 
20.000000 
20.000000 
20.000000 
20.000000 
20.000000 
20.000000 
20.000000 
20.000000 
20.000000 
20.000000 
20.000000 
20.000000 
20.000000 
20.000000 
20.000000 
20.000000 
20.000000 
20.000000 
20.000000 
20.000000 
20.000000 
20.000000 
20.000000 
20.000000 
20.000000 
20.000000 
20.000000 
20.000000 
20.000000 
20.000000 
20.000000 
20.000000 
20.000000 
20.000000 
20.000000 
20.000000 
20.000000 
20.000000 
20.000000 
20.000000 
20.000000 
20.000000 
20.000000 
20.000000 
20.000000 
20.000000 
20.000000 
20.000000 
20.000000 
20.000000 
20.000000 
20.000000 
20.000000 
20.000000 
20.000000 
20.000000 
20.000000 
20.000000 
20.000000 
20.000000 
20.000000 
20.000000 
20.000000 
20.000000 
20.000000 
20.000000 
20.000000 
20.000000 
20.000000 
20.000000 
20.000000 
20.000000 
20.000000 
20.000000 
20.000000 
20.000000 
20.000000 
20.000000 
20.000000 
20.000000 
20.000000 
20.000000 
20.000000 
20.000000 
20.000000 
20.000000 
20.000000 
20.000000 
20.000000 
20.000000 
20.000000 
20.000000 
20.000000 
20.000000 
20.000000 
20.000000 
20.000000 
20.000000 
20.000000 
20.000000 
20.000000 
20.000000 
20.000000 
20.000000 
20.000000 
20.000000 
20.000000 
20.000000 
20.000000 
20.000000 
20.000000 
20.000000 
20.000000 
20.000000 
20.000000 
20.000000 
20.000000 
20.000000 
20.000000 
20.000000 
20.000000 
20.000000 
20.000000 
20.000000 
20.000000 
20.000000 
20.000000 
20.000000 
20.000000 
20.000000 
20.000000 
20.000000 
20.000000 
20.000000 
20.000000 
20.000000 
20.000000 
SCALARS ELEM_i float 
LOOKUP_TABLE default 
178 
205 
178 
179 
206 
206 
206 
179 
179 
233 
206 
207 
207 
207 
180 
180 
234 
234 
234 
207 
207 
207 
208 
180 
181 
178 
204 
205 
205 
231 
205 
232 
205 
205 
231 
231 
232 
232 
232 
233 
233 
258 
258 
259 
259 
259 
259 
260 
233 
233 
177 
204 
204 
204 
203 
203 
203 
204 
231 
202 
203 
230 
230 
230 
231 
231 
202 
229 
229 
229 
230 
230 
257 
257 
258 
177 
176 
177 
176 
149 
176 
176 
176 
203 
148 
148 
175 
175 
175 
202 
202 
148 
148 
147 
175 
174 
175 
201 
202 
202 
177 
150 
150 
150 
123 
150 
149 
149 
149 
123 
123 
122 
122 
122 
149 
148 
96 
95 
95 
122 
122 
121 
121 
121 
148 
178 
151 
151 
150 
151 
151 
124 
151 
123 
125 
125 
124 
124 
124 
123 
123 
125 
125 
98 
97 
97 
97 
97 
96 
96 
178 
179 
178 
151 
179 
179 
152 
152 
152 
180 
180 
153 
153 
153 
152 
125 
181 
180 
154 
153 
153 
153 
126 
126 
126 
VECTORS VELOCITY float 
-0.000000 -3.501778 0.000000 
0.000000 -3.501778 0.000000 
0.000000 -3.501778 0.000000 
0.000000 -3.501778 0.000000 
0.000000 -3.501778 0.000000 
0.000000 -3.501778 0.000000 
-0.000000 -3.501778 0.000000 
0.000000 -3.501778 0.000000 
-0.000000 -3.501778 0.000000 
-0.000000 -3.501778 0.000000 
-0.000000 -3.501778 0.000000 
-0.000000 -3.501778 0.000000 
-0.000000 -3.501778 0.000000 
-0.000000 -3.501778 0.000000 
0.000000 -3.501778 0.000000 
-0.000000 -3.501778 0.000000 
-0.000000 -3.501778 0.000000 
-0.000000 -3.501778 0.000000 
0.000000 -3.501778 0.000000 
0.000000 -3.501778 0.000000 
-0.000000 -3.501778 0.000000 
-0.000000 -3.501778 0.000000 
-0.000000 -3.501778 0.000000 
-0.000000 -3.501778 0.000000 
0.000000 -3.501778 0.000000 
0.000000 -3.501778 0.000000 
-0.000000 -3.501778 0.000000 
0.000000 -3.501778 0.000000 
-0.000000 -3.501778 0.000000 
0.000000 -3.501778 0.000000 
-0.000000 -3.501778 0.000000 
-0.000000 -3.501778 0.000000 
-0.000000 -3.501778 0.000000 
0.000000 -3.501778 0.000000 
-0.000000 -3.501778 0.000000 
-0.000000 -3.501778 0.000000 
-0.000000 -3.501778 0.000000 
-0.000000 -3.501778 0.000000 
-0.000000 -3.501778 0.000000 
0.000000 -3.501778 0.000000 
0.000000 -3.501778 0.000000 
0.000000 -3.501778 0.000000 
0.000000 -3.501778 0.000000 
0.000000 -3.501778 0.000000 
-0.000000 -3.501778 0.000000 
-0.000000 -3.501778 0.000000 
-0.000000 -3.501778 0.000000 
0.000000 -3.501778 0.000000 
0.000000 -3.501778 0.000000 
0.000000 -3.501778 0.000000 
0.000000 -3.501778 0.000000 
0.000000 -3.501778 0.000000 
0.000000 -3.501778 0.000000 
0.000000 -3.501778 0.000000 
0.000000 -3.501778 0.000000 
0.000000 -3.501778 0.000000 
0.000000 -3.501778 0.000000 
-0.000000 -3.501778 0.000000 
0.000000 -3.501778 0.000000 
-0.000000 -3.501778 0.000000 
0.000000 -3.501778 0.000000 
0.000000 -3.501778 0.000000 
0.000000 -3.501778 0.000000 
-0.000000 -3.501778 0.000000 
-0.000000 -3.501778 0.000000 
0.000000 -3.501778 0.000000 
0.000000 -3.501778 0.000000 
-0.000000 -3.501778 0.000000 
-0.000000 -3.501778 0.000000 
-0.000000 -3.501778 0.000000 
-0.000000 -3.501778 0.000000 
-0.000000 -3.501778 0.000000 
-0.000000 -3.501778 0.000000 
-0.000000 -3.501778 0.000000 
-0.000000 -3.501778 0.000000 
0.000000 -3.501778 0.000000 
0.000000 -3.501778 0.000000 
0.000000 -3.501778 0.000000 
0.000000 -3.501778 0.000000 
0.000000 -3.501778 0.000000 
0.000000 -3.501778 0.000000 
0.000000 -3.501778 0.000000 
0.000000 -3.501778 0.000000 
-0.000000 -3.501778 0.000000 
-0.000000 -3.501778 0.000000 
0.000000 -3.501778 0.000000 
-0.000000 -3.501778 0.000000 
-0.000000 -3.501778 0.000000 
-0.000000 -3.501778 0.000000 
-0.000000 -3.501778 0.000000 
-0.000000 -3.501778 0.000000 
-0.000000 -3.501778 0.000000 
0.000000 -3.501778 0.000000 
-0.000000 -3.501778 0.000000 
-0.000000 -3.501778 0.000000 
0.000000 -3.501778 0.000000 
-0.000000 -3.501778 0.000000 
-0.000000 -3.501778 0.000000 
-0.000000 -3.501778 0.000000 
0.000000 -3.501778 0.000000 
0.000000 -3.501778 0.000000 
0.000000 -3.501778 0.000000 
0.000000 -3.501778 0.000000 
0.000000 -3.501778 0.000000 
-0.000000 -3.501778 0.000000 
-0.000000 -3.501778 0.000000 
-0.000000 -3.501778 0.000000 
-0.000000 -3.501778 0.000000 
0.000000 -3.501778 0.000000 
0.000000 -3.501778 0.000000 
-0.000000 -3.501778 0.000000 
-0.000000 -3.501778 0.000000 
-0.000000 -3.501778 0.000000 
-0.000000 -3.501778 0.000000 
-0.000000 -3.501778 0.000000 
-0.000000 -3.501778 0.000000 
-0.000000 -3.501778 0.000000 
0.000000 -3.501778 0.000000 
-0.000000 -3.501778 0.000000 
0.000000 -3.501778 0.000000 
0.000000 -3.501778 0.000000 
-0.000000 -3.501778 0.000000 
0.000000 -3.501778 0.000000 
0.000000 -3.501778 0.000000 
0.000000 -3.501778 0.000000 
0.000000 -3.501778 0.000000 
0.000000 -3.501778 0.000000 
0.000000 -3.501778 0.000000 
0.000000 -3.501778 0.000000 
0.000000 -3.501778 0.000000 
0.000000 -3.501778 0.000000 
0.000000 -3.501778 0.000000 
0.000000 -3.501778 0.000000 
0.000000 -3.501778 0.000000 
0.000000 -3.501778 0.000000 
-0.000000 -3.501778 0.000000 
-0.000000 -3.501778 0.000000 
0.000000 -3.501778 0.000000 
-0.000000 -3.501778 0.000000 
-0.000000 -3.501778 0.000000 
-0.000000 -3.501778 0.000000 
0.000000 -3.501778 0.000000 
0.000000 -3.501778 0.000000 
-0.000000 -3.501778 0.000000 
-0.000000 -3.501778 0.000000 
0.000000 -3.501778 0.000000 
-0.000000 -3.501778 0.000000 
-0.000000 -3.501778 0.000000 
-0.000000 -3.501778 0.000000 
-0.000000 -3.501778 0.000000 
0.000000 -3.501778 0.000000 
-0.000000 -3.501778 0.000000 
-0.000000 -3.501778 0.000000 
-0.000000 -3.501778 0.000000 
-0.000000 -3.501778 0.000000 
-0.000000 -3.501778 0.000000 
0.000000 -3.501778 0.000000 
-0.000000 -3.501778 0.000000 
-0.000000 -3.501778 0.000000 
0.000000 -3.501778 0.000000 
0.000000 -3.501778 0.000000 
-0.000000 -3.501778 0.000000 
-0.000000 -3.501778 0.000000 
0.000000 -3.501778 0.000000 
0.000000 -3.501778 0.000000 
0.000000 -3.501778 0.000000 
0.000000 -3.501778 0.000000 
-0.000000 -3.501778 0.000000 
0.000000 -3.501778 0.000000 
-0.000000 -3.501778 0.000000 
0.000000 -3.501778 0.000000 
-0.000000 -3.501778 0.000000 
0.000000 -3.501778 0.000000 
0.000000 -3.501778 0.000000 
0.000000 -3.501778 0.000000 
TENSORS STRESS float 
0.000000 -0.000000 0.000000 
0.000000 0.000000 0.000000 
0.000000 0.000000 0.000000 

0.000000 0.000000 0.000000 
0.000000 0.000000 0.000000 
0.000000 0.000000 0.000000 

0.000000 -0.000000 0.000000 
0.000000 0.000000 0.000000 
0.000000 0.000000 0.000000 

-0.000000 0.000000 0.000000 
0.000000 -0.000000 0.000000 
0.000000 0.000000 0.000000 

-0.000000 -0.000000 0.000000 
0.000000 -0.000000 0.000000 
0.000000 0.000000 0.000000 

0.000000 0.000000 0.000000 
0.000000 0.000000 0.000000 
0.000000 0.000000 0.000000 

-0.000000 0.000000 0.000000 
0.000000 -0.000000 0.000000 
0.000000 0.000000 0.000000 

-0.000000 -0.000000 0.000000 
0.000000 -0.000000 0.000000 
0.000000 0.000000 0.000000 

-0.000000 -0.000000 0.000000 
0.000000 -0.000000 0.000000 
0.000000 0.000000 0.000000 

-0.000000 0.000000 0.000000 
0.000000 0.000000 0.000000 
0.000000 0.000000 0.000000 

-0.000000 -0.000000 0.000000 
0.000000 0.000000 0.000000 
0.000000 0.000000 0.000000 

-0.000000 -0.000000 0.000000 
0.000000 -0.000000 0.000000 
0.000000 0.000000 0.000000 

0.000000 -0.000000 0.000000 