# vtk DataFile Version 3.0 
vtk output 
ASCII 
DATASET UNSTRUCTURED_GRID 
POINTS 175 float 
-0.026061 -0.683845 0.000000 
-0.106992 -0.615790 0.000000 
-0.054870 -0.624023 0.000000 
-0.028809 -0.578139 0.000000 
-0.186430 -0.551714 0.000000 
-0.137056 -0.554241 0.000000 
-0.114311 -0.500593 0.000000 
-0.058186 -0.516259 0.000000 
-0.029377 -0.476082 0.000000 
-0.265318 -0.488559 0.000000 
-0.217198 -0.489358 0.000000 
-0.196633 -0.432062 0.000000 
-0.143120 -0.440770 0.000000 
-0.116563 -0.393502 0.000000 
-0.058945 -0.413148 0.000000 
-0.029568 -0.375028 0.000000 
-0.344206 -0.425403 0.000000 
-0.296791 -0.425396 0.000000 
-0.278030 -0.365453 0.000000 
-0.225992 -0.371319 0.000000 
-0.201664 -0.319202 0.000000 
-0.145749 -0.332676 0.000000 
-0.117890 -0.288333 0.000000 
-0.059328 -0.311039 0.000000 
-0.029759 -0.273973 0.000000 
-0.058559 -0.724596 0.000000 
-0.162226 -0.745439 0.000000 
-0.123292 -0.709821 0.000000 
-0.142917 -0.660838 0.000000 
-0.261851 -0.767595 0.000000 
-0.229092 -0.730568 0.000000 
-0.256854 -0.679336 0.000000 
-0.209613 -0.645224 0.000000 
-0.223062 -0.597650 0.000000 
-0.360414 -0.789895 0.000000 
-0.329787 -0.752772 0.000000 
-0.361761 -0.700970 0.000000 
-0.321587 -0.664561 0.000000 
-0.341985 -0.614327 0.000000 
-0.290702 -0.581528 0.000000 
-0.302189 -0.534793 0.000000 
-0.458977 -0.812195 0.000000 
-0.429420 -0.775121 0.000000 
-0.464588 -0.723079 0.000000 
-0.427556 -0.686051 0.000000 
-0.453135 -0.634537 0.000000 
-0.407738 -0.599221 0.000000 
-0.425037 -0.549793 0.000000 
-0.370772 -0.518164 0.000000 
-0.381315 -0.471937 0.000000 
-0.046960 -0.775411 0.000000 
-0.095301 -0.869457 0.000000 
-0.098873 -0.816810 0.000000 
-0.149405 -0.801612 0.000000 
-0.140093 -0.961161 0.000000 
-0.148617 -0.912463 0.000000 
-0.205981 -0.902226 0.000000 
-0.203197 -0.844022 0.000000 
-0.248777 -0.824876 0.000000 
-0.184111 -1.052125 0.000000 
-0.194039 -1.005034 0.000000 
-0.254475 -0.997734 0.000000 
-0.257893 -0.943624 0.000000 
-0.309886 -0.928252 0.000000 
-0.303554 -0.867707 0.000000 
-0.347255 -0.847549 0.000000 
-0.228129 -1.143088 0.000000 
-0.238687 -1.096864 0.000000 
-0.301302 -1.091912 0.000000 
-0.307162 -1.039873 0.000000 
-0.363386 -1.027752 0.000000 
-0.362692 -0.970241 0.000000 
-0.412122 -0.952948 0.000000 
-0.403017 -0.890801 0.000000 
-0.445733 -0.870222 0.000000 
-0.000000 -0.798026 0.000000 
0.043388 -0.894457 0.000000 
-0.000000 -0.864425 0.000000 
-0.043388 -0.894457 0.000000 
0.087158 -0.986653 0.000000 
0.043769 -0.962955 0.000000 
-0.000000 -1.001421 0.000000 
-0.043769 -0.962955 0.000000 
-0.087158 -0.986653 0.000000 
0.130831 -1.077783 0.000000 
0.087824 -1.056184 0.000000 
0.044436 -1.098884 0.000000 
-0.000000 -1.067819 0.000000 
-0.044436 -1.098884 0.000000 
-0.087824 -1.056184 0.000000 
-0.130831 -1.077783 0.000000 
0.174505 -1.168913 0.000000 
0.131782 -1.148347 0.000000 
0.088871 -1.194213 0.000000 
0.044532 -1.166349 0.000000 
-0.000000 -1.202750 0.000000 
-0.044532 -1.166349 0.000000 
-0.088871 -1.194213 0.000000 
-0.131782 -1.148347 0.000000 
-0.174505 -1.168913 0.000000 
0.046960 -0.775411 0.000000 
0.149405 -0.801612 0.000000 
0.098873 -0.816810 0.000000 
0.095301 -0.869457 0.000000 
0.248777 -0.824876 0.000000 
0.203197 -0.844022 0.000000 
0.205981 -0.902226 0.000000 
0.148617 -0.912463 0.000000 
0.140093 -0.961161 0.000000 
0.347255 -0.847549 0.000000 
0.303554 -0.867707 0.000000 
0.309886 -0.928252 0.000000 
0.257893 -0.943624 0.000000 
0.254475 -0.997734 0.000000 
0.194039 -1.005034 0.000000 
0.184111 -1.052125 0.000000 
0.445733 -0.870222 0.000000 
0.403017 -0.890801 0.000000 
0.412122 -0.952948 0.000000 
0.362692 -0.970241 0.000000 
0.363386 -1.027752 0.000000 
0.307162 -1.039873 0.000000 
0.301302 -1.091912 0.000000 
0.238687 -1.096864 0.000000 
0.228129 -1.143088 0.000000 
0.058559 -0.724596 0.000000 
0.142917 -0.660838 0.000000 
0.123292 -0.709821 0.000000 
0.162226 -0.745439 0.000000 
0.223062 -0.597650 0.000000 
0.209613 -0.645224 0.000000 
0.256854 -0.679336 0.000000 
0.229092 -0.730568 0.000000 
0.261851 -0.767595 0.000000 
0.302189 -0.534793 0.000000 
0.290702 -0.581528 0.000000 
0.341985 -0.614327 0.000000 
0.321587 -0.664561 0.000000 
0.361761 -0.700970 0.000000 
0.329787 -0.752772 0.000000 
0.360414 -0.789895 0.000000 
0.381315 -0.471937 0.000000 
0.370772 -0.518164 0.000000 
0.425037 -0.549793 0.000000 
0.407738 -0.599221 0.000000 
0.453135 -0.634537 0.000000 
0.427556 -0.686051 0.000000 
0.464588 -0.723079 0.000000 
0.429420 -0.775121 0.000000 
0.458977 -0.812195 0.000000 
0.026061 -0.683845 0.000000 
0.028809 -0.578139 0.000000 
0.054870 -0.624023 0.000000 
0.106992 -0.615790 0.000000 
0.029377 -0.476082 0.000000 
0.058186 -0.516259 0.000000 
0.114311 -0.500593 0.000000 
0.137056 -0.554241 0.000000 
0.186430 -0.551714 0.000000 
0.029568 -0.375028 0.000000 
0.058945 -0.413148 0.000000 
0.116563 -0.393502 0.000000 
0.143120 -0.440770 0.000000 
0.196633 -0.432062 0.000000 
0.217198 -0.489358 0.000000 
0.265318 -0.488559 0.000000 
0.029759 -0.273973 0.000000 
0.059328 -0.311039 0.000000 
0.117890 -0.288333 0.000000 
0.145749 -0.332676 0.000000 
0.201664 -0.319202 0.000000 
0.225992 -0.371319 0.000000 
0.278030 -0.365453 0.000000 
0.296791 -0.425396 0.000000 
0.344206 -0.425403 0.000000 
CELLS 175 350 
1 0 
1 1 
1 2 
1 3 
1 4 
1 5 
1 6 
1 7 
1 8 
1 9 
1 10 
1 11 
1 12 
1 13 
1 14 
1 15 
1 16 
1 17 
1 18 
1 19 
1 20 
1 21 
1 22 
1 23 
1 24 
1 25 
1 26 
1 27 
1 28 
1 29 
1 30 
1 31 
1 32 
1 33 
1 34 
1 35 
1 36 
1 37 
1 38 
1 39 
1 40 
1 41 
1 42 
1 43 
1 44 
1 45 
1 46 
1 47 
1 48 
1 49 
1 50 
1 51 
1 52 
1 53 
1 54 
1 55 
1 56 
1 57 
1 58 
1 59 
1 60 
1 61 
1 62 
1 63 
1 64 
1 65 
1 66 
1 67 
1 68 
1 69 
1 70 
1 71 
1 72 
1 73 
1 74 
1 75 
1 76 
1 77 
1 78 
1 79 
1 80 
1 81 
1 82 
1 83 
1 84 
1 85 
1 86 
1 87 
1 88 
1 89 
1 90 
1 91 
1 92 
1 93 
1 94 
1 95 
1 96 
1 97 
1 98 
1 99 
1 100 
1 101 
1 102 
1 103 
1 104 
1 105 
1 106 
1 107 
1 108 
1 109 
1 110 
1 111 
1 112 
1 113 
1 114 
1 115 
1 116 
1 117 
1 118 
1 119 
1 120 
1 121 
1 122 
1 123 
1 124 
1 125 
1 126 
1 127 
1 128 
1 129 
1 130 
1 131 
1 132 
1 133 
1 134 
1 135 
1 136 
1 137 
1 138 
1 139 
1 140 
1 141 
1 142 
1 143 
1 144 
1 145 
1 146 
1 147 
1 148 
1 149 
1 150 
1 151 
1 152 
1 153 
1 154 
1 155 
1 156 
1 157 
1 158 
1 159 
1 160 
1 161 
1 162 
1 163 
1 164 
1 165 
1 166 
1 167 
1 168 
1 169 
1 170 
1 171 
1 172 
1 173 
1 174 
CELL_TYPES 175 
1 
1 
1 
1 
1 
1 
1 
1 
1 
1 
1 
1 
1 
1 
1 
1 
1 
1 
1 
1 
1 
1 
1 
1 
1 
1 
1 
1 
1 
1 
1 
1 
1 
1 
1 
1 
1 
1 
1 
1 
1 
1 
1 
1 
1 
1 
1 
1 
1 
1 
1 
1 
1 
1 
1 
1 
1 
1 
1 
1 
1 
1 
1 
1 
1 
1 
1 
1 
1 
1 
1 
1 
1 
1 
1 
1 
1 
1 
1 
1 
1 
1 
1 
1 
1 
1 
1 
1 
1 
1 
1 
1 
1 
1 
1 
1 
1 
1 
1 
1 
1 
1 
1 
1 
1 
1 
1 
1 
1 
1 
1 
1 
1 
1 
1 
1 
1 
1 
1 
1 
1 
1 
1 
1 
1 
1 
1 
1 
1 
1 
1 
1 
1 
1 
1 
1 
1 
1 
1 
1 
1 
1 
1 
1 
1 
1 
1 
1 
1 
1 
1 
1 
1 
1 
1 
1 
1 
1 
1 
1 
1 
1 
1 
1 
1 
1 
1 
1 
1 
1 
1 
1 
1 
1 
1 
POINT_DATA 175 
VECTORS X_GC float 
-0.026061 -0.683845 0.000000 
-0.106992 -0.615790 0.000000 
-0.054870 -0.624023 0.000000 
-0.028809 -0.578139 0.000000 
-0.186430 -0.551714 0.000000 
-0.137056 -0.554241 0.000000 
-0.114311 -0.500593 0.000000 
-0.058186 -0.516259 0.000000 
-0.029377 -0.476082 0.000000 
-0.265318 -0.488559 0.000000 
-0.217198 -0.489358 0.000000 
-0.196633 -0.432062 0.000000 
-0.143120 -0.440770 0.000000 
-0.116563 -0.393502 0.000000 
-0.058945 -0.413148 0.000000 
-0.029568 -0.375028 0.000000 
-0.344206 -0.425403 0.000000 
-0.296791 -0.425396 0.000000 
-0.278030 -0.365453 0.000000 
-0.225992 -0.371319 0.000000 
-0.201664 -0.319202 0.000000 
-0.145749 -0.332676 0.000000 
-0.117890 -0.288333 0.000000 
-0.059328 -0.311039 0.000000 
-0.029759 -0.273973 0.000000 
-0.058559 -0.724596 0.000000 
-0.162226 -0.745439 0.000000 
-0.123292 -0.709821 0.000000 
-0.142917 -0.660838 0.000000 
-0.261851 -0.767595 0.000000 
-0.229092 -0.730568 0.000000 
-0.256854 -0.679336 0.000000 
-0.209613 -0.645224 0.000000 
-0.223062 -0.597650 0.000000 
-0.360414 -0.789895 0.000000 
-0.329787 -0.752772 0.000000 
-0.361761 -0.700970 0.000000 
-0.321587 -0.664561 0.000000 
-0.341985 -0.614327 0.000000 
-0.290702 -0.581528 0.000000 
-0.302189 -0.534793 0.000000 
-0.458977 -0.812195 0.000000 
-0.429420 -0.775121 0.000000 
-0.464588 -0.723079 0.000000 
-0.427556 -0.686051 0.000000 
-0.453135 -0.634537 0.000000 
-0.407738 -0.599221 0.000000 
-0.425037 -0.549793 0.000000 
-0.370772 -0.518164 0.000000 
-0.381315 -0.471937 0.000000 
-0.046960 -0.775411 0.000000 
-0.095301 -0.869457 0.000000 
-0.098873 -0.816810 0.000000 
-0.149405 -0.801612 0.000000 
-0.140093 -0.961161 0.000000 
-0.148617 -0.912463 0.000000 
-0.205981 -0.902226 0.000000 
-0.203197 -0.844022 0.000000 
-0.248777 -0.824876 0.000000 
-0.184111 -1.052125 0.000000 
-0.194039 -1.005034 0.000000 
-0.254475 -0.997734 0.000000 
-0.257893 -0.943624 0.000000 
-0.309886 -0.928252 0.000000 
-0.303554 -0.867707 0.000000 
-0.347255 -0.847549 0.000000 
-0.228129 -1.143088 0.000000 
-0.238687 -1.096864 0.000000 
-0.301302 -1.091912 0.000000 
-0.307162 -1.039873 0.000000 
-0.363386 -1.027752 0.000000 
-0.362692 -0.970241 0.000000 
-0.412122 -0.952948 0.000000 
-0.403017 -0.890801 0.000000 
-0.445733 -0.870222 0.000000 
-0.000000 -0.798026 0.000000 
0.043388 -0.894457 0.000000 
-0.000000 -0.864425 0.000000 
-0.043388 -0.894457 0.000000 
0.087158 -0.986653 0.000000 
0.043769 -0.962955 0.000000 
-0.000000 -1.001421 0.000000 
-0.043769 -0.962955 0.000000 
-0.087158 -0.986653 0.000000 
0.130831 -1.077783 0.000000 
0.087824 -1.056184 0.000000 
0.044436 -1.098884 0.000000 
-0.000000 -1.067819 0.000000 
-0.044436 -1.098884 0.000000 
-0.087824 -1.056184 0.000000 
-0.130831 -1.077783 0.000000 
0.174505 -1.168913 0.000000 
0.131782 -1.148347 0.000000 
0.088871 -1.194213 0.000000 
0.044532 -1.166349 0.000000 
-0.000000 -1.202750 0.000000 
-0.044532 -1.166349 0.000000 
-0.088871 -1.194213 0.000000 
-0.131782 -1.148347 0.000000 
-0.174505 -1.168913 0.000000 
0.046960 -0.775411 0.000000 
0.149405 -0.801612 0.000000 
0.098873 -0.816810 0.000000 
0.095301 -0.869457 0.000000 
0.248777 -0.824876 0.000000 
0.203197 -0.844022 0.000000 
0.205981 -0.902226 0.000000 
0.148617 -0.912463 0.000000 
0.140093 -0.961161 0.000000 
0.347255 -0.847549 0.000000 
0.303554 -0.867707 0.000000 
0.309886 -0.928252 0.000000 
0.257893 -0.943624 0.000000 
0.254475 -0.997734 0.000000 
0.194039 -1.005034 0.000000 
0.184111 -1.052125 0.000000 
0.445733 -0.870222 0.000000 
0.403017 -0.890801 0.000000 
0.412122 -0.952948 0.000000 
0.362692 -0.970241 0.000000 
0.363386 -1.027752 0.000000 
0.307162 -1.039873 0.000000 
0.301302 -1.091912 0.000000 
0.238687 -1.096864 0.000000 
0.228129 -1.143088 0.000000 
0.058559 -0.724596 0.000000 
0.142917 -0.660838 0.000000 
0.123292 -0.709821 0.000000 
0.162226 -0.745439 0.000000 
0.223062 -0.597650 0.000000 
0.209613 -0.645224 0.000000 
0.256854 -0.679336 0.000000 
0.229092 -0.730568 0.000000 
0.261851 -0.767595 0.000000 
0.302189 -0.534793 0.000000 
0.290702 -0.581528 0.000000 
0.341985 -0.614327 0.000000 
0.321587 -0.664561 0.000000 
0.361761 -0.700970 0.000000 
0.329787 -0.752772 0.000000 
0.360414 -0.789895 0.000000 
0.381315 -0.471937 0.000000 
0.370772 -0.518164 0.000000 
0.425037 -0.549793 0.000000 
0.407738 -0.599221 0.000000 
0.453135 -0.634537 0.000000 
0.427556 -0.686051 0.000000 
0.464588 -0.723079 0.000000 
0.429420 -0.775121 0.000000 
0.458977 -0.812195 0.000000 
0.026061 -0.683845 0.000000 
0.028809 -0.578139 0.000000 
0.054870 -0.624023 0.000000 
0.106992 -0.615790 0.000000 
0.029377 -0.476082 0.000000 
0.058186 -0.516259 0.000000 
0.114311 -0.500593 0.000000 
0.137056 -0.554241 0.000000 
0.186430 -0.551714 0.000000 
0.029568 -0.375028 0.000000 
0.058945 -0.413148 0.000000 
0.116563 -0.393502 0.000000 
0.143120 -0.440770 0.000000 
0.196633 -0.432062 0.000000 
0.217198 -0.489358 0.000000 
0.265318 -0.488559 0.000000 
0.029759 -0.273973 0.000000 
0.059328 -0.311039 0.000000 
0.117890 -0.288333 0.000000 
0.145749 -0.332676 0.000000 
0.201664 -0.319202 0.000000 
0.225992 -0.371319 0.000000 
0.278030 -0.365453 0.000000 
0.296791 -0.425396 0.000000 
0.344206 -0.425403 0.000000 
VECTORS X_EC float 
0.338794 -0.268088 0.000000 
-0.609100 0.813163 0.000000 
0.713312 0.924304 0.000000 
0.374519 0.304874 0.000000 
0.423588 -0.051856 0.000000 
-0.218274 -0.017753 0.000000 
-0.513962 -0.741991 0.000000 
0.756418 -0.530505 0.000000 
0.381900 0.927102 0.000000 
-0.550868 -0.904459 0.000000 
0.823577 -0.893664 0.000000 
0.556234 0.332832 0.000000 
-0.139443 0.450401 0.000000 
-0.484677 -0.187724 0.000000 
0.766286 0.077492 0.000000 
0.384386 -0.437129 0.000000 
0.474677 0.242938 0.000000 
-0.141715 0.242841 0.000000 
-0.385608 -0.566387 0.000000 
0.937896 -0.487192 0.000000 
0.621631 0.809228 0.000000 
-0.105264 0.991128 0.000000 
-0.467428 0.392501 0.000000 
0.771260 0.699030 0.000000 
0.386873 0.198640 0.000000 
0.761262 0.282046 0.000000 
0.108942 0.563423 0.000000 
-0.397202 0.082583 0.000000 
-0.142083 -0.578692 0.000000 
-0.595936 0.862533 0.000000 
0.978194 0.362667 0.000000 
-0.660903 -0.328958 0.000000 
0.724964 -0.789478 0.000000 
0.899809 0.568274 0.000000 
0.685384 -0.836415 0.000000 
0.287229 0.662427 0.000000 
0.702895 -0.036901 0.000000 
0.180633 -0.528420 0.000000 
0.445811 0.793420 0.000000 
-0.220880 0.350634 0.000000 
-0.071546 -0.280291 0.000000 
-0.033296 -0.535362 0.000000 
-0.417537 0.964128 0.000000 
0.039645 0.261566 0.000000 
-0.441768 -0.238306 0.000000 
-0.109248 -0.933756 0.000000 
-0.699407 0.589488 0.000000 
-0.474522 -0.077791 0.000000 
0.820030 -0.504784 0.000000 
0.957100 0.871144 0.000000 
0.610485 0.968052 0.000000 
-0.761092 0.237672 0.000000 
-0.714655 -0.473066 0.000000 
-0.057734 -0.678233 0.000000 
-0.178789 -0.524324 0.000000 
-0.067979 0.818250 0.000000 
0.677748 0.680046 0.000000 
0.641556 -0.105699 0.000000 
-0.765897 -0.364177 0.000000 
0.393446 0.703685 0.000000 
0.522510 0.067955 0.000000 
-0.691820 -0.030589 0.000000 
-0.647393 -0.761072 0.000000 
0.028512 -0.968598 0.000000 
-0.053800 0.214041 0.000000 
0.514316 -0.058090 0.000000 
0.965681 -0.068306 0.000000 
-0.897068 -0.692335 0.000000 
-0.083078 -0.759188 0.000000 
-0.006893 0.538288 0.000000 
0.724017 0.374655 0.000000 
0.714996 -0.401749 0.000000 
-0.642413 -0.635206 0.000000 
-0.760780 0.525813 0.000000 
-0.205471 0.247998 0.000000 
0.000000 -0.726646 0.000000 
-0.564049 0.575167 0.000000 
0.000000 0.169731 0.000000 
0.564049 0.575167 0.000000 
0.866949 -0.180178 0.000000 
-0.569003 -0.500109 0.000000 
0.000000 0.019179 0.000000 
0.569003 -0.500109 0.000000 
-0.866949 -0.180178 0.000000 
0.299194 -0.949928 0.000000 
0.858290 0.758488 0.000000 
-0.577662 -0.665066 0.000000 
0.000000 0.915556 0.000000 
0.577662 -0.665066 0.000000 
-0.858290 0.758488 0.000000 
-0.299194 -0.949928 0.000000 
-0.268560 0.280322 0.000000 
0.286830 0.002681 0.000000 
0.844677 0.621879 0.000000 
-0.578910 0.245716 0.000000 
0.000000 0.737120 0.000000 
0.578910 0.245716 0.000000 
-0.844677 0.621879 0.000000 
-0.286830 0.002681 0.000000 
0.268560 0.280322 0.000000 
-0.610485 0.968052 0.000000 
0.057734 -0.678233 0.000000 
0.714655 -0.473066 0.000000 
0.761092 0.237672 0.000000 
0.765897 -0.364177 0.000000 
-0.641556 -0.105699 0.000000 
-0.677748 0.680046 0.000000 
0.067979 0.818250 0.000000 
0.178789 -0.524324 0.000000 
-0.514316 -0.058090 0.000000 
0.053800 0.214041 0.000000 
-0.028512 -0.968598 0.000000 
0.647393 -0.761072 0.000000 
0.691820 -0.030589 0.000000 
-0.522510 0.067955 0.000000 
-0.393446 0.703685 0.000000 
0.205471 0.247998 0.000000 
0.760780 0.525813 0.000000 
0.642413 -0.635206 0.000000 
-0.714996 -0.401749 0.000000 
-0.724017 0.374655 0.000000 
0.006894 0.538288 0.000000 
0.083078 -0.759188 0.000000 
0.897068 -0.692335 0.000000 
-0.965681 -0.068306 0.000000 
-0.761262 0.282046 0.000000 
0.142083 -0.578692 0.000000 
0.397202 0.082583 0.000000 
-0.108942 0.563423 0.000000 
-0.899809 0.568274 0.000000 
-0.724964 -0.789478 0.000000 
0.660903 -0.328958 0.000000 
-0.978194 0.362667 0.000000 
0.595936 0.862533 0.000000 
0.071546 -0.280291 0.000000 
0.220880 0.350634 0.000000 
-0.445811 0.793420 0.000000 
-0.180633 -0.528420 0.000000 
-0.702895 -0.036901 0.000000 
-0.287229 0.662427 0.000000 
-0.685384 -0.836415 0.000000 
-0.957100 0.871144 0.000000 
-0.820030 -0.504784 0.000000 
0.474522 -0.077791 0.000000 
0.699407 0.589488 0.000000 
0.109248 -0.933756 0.000000 
0.441768 -0.238306 0.000000 
-0.039645 0.261566 0.000000 
0.417537 0.964128 0.000000 
0.033296 -0.535362 0.000000 
-0.338794 -0.268088 0.000000 
-0.374519 0.304874 0.000000 
-0.713312 0.924304 0.000000 
0.609100 0.813163 0.000000 
-0.381900 0.927102 0.000000 
-0.756418 -0.530505 0.000000 
0.513962 -0.741991 0.000000 
0.218274 -0.017753 0.000000 
-0.423588 -0.051856 0.000000 
-0.384386 -0.437129 0.000000 
-0.766286 0.077492 0.000000 
0.484677 -0.187724 0.000000 
0.139443 0.450401 0.000000 
-0.556234 0.332832 0.000000 
-0.823577 -0.893664 0.000000 
0.550868 -0.904459 0.000000 
-0.386873 0.198640 0.000000 
-0.771260 0.699030 0.000000 
0.467428 0.392501 0.000000 
0.105264 0.991128 0.000000 
-0.621631 0.809228 0.000000 
-0.937896 -0.487192 0.000000 
0.385608 -0.566387 0.000000 
0.141715 0.242841 0.000000 
-0.474677 0.242938 0.000000 
CELL_DATA 175 
SCALARS MASS float 
LOOKUP_TABLE default 
0.078183 
0.086427 
0.094672 
0.086427 
0.088131 
0.092111 
0.085854 
0.092111 
0.088131 
0.088705 
0.091000 
0.086983 
0.091556 
0.086983 
0.091000 
0.088705 
0.089278 
0.091574 
0.089278 
0.092722 
0.089278 
0.092722 
0.089278 
0.091574 
0.089278 
0.078183 
0.086427 
0.094672 
0.086427 
0.088131 
0.092111 
0.085854 
0.092111 
0.088131 
0.088705 
0.091000 
0.086983 
0.091556 
0.086983 
0.091000 
0.088705 
0.089278 
0.091574 
0.089278 
0.092722 
0.089278 
0.092722 
0.089278 
0.091574 
0.089278 
0.078183 
0.086427 
0.094672 
0.086427 
0.088131 
0.092111 
0.085854 
0.092111 
0.088131 
0.088705 
0.091000 
0.086983 
0.091556 
0.086983 
0.091000 
0.088705 
0.089278 
0.091574 
0.089278 
0.092722 
0.089278 
0.092722 
0.089278 
0.091574 
0.089278 
0.078183 
0.086427 
0.094672 
0.086427 
0.088131 
0.092111 
0.085854 
0.092111 
0.088131 
0.088705 
0.091000 
0.086983 
0.091556 
0.086983 
0.091000 
0.088705 
0.089278 
0.091574 
0.089278 
0.092722 
0.089278 
0.092722 
0.089278 
0.091574 
0.089278 
0.078183 
0.086427 
0.094672 
0.086427 
0.088131 
0.092111 
0.085854 
0.092111 
0.088131 
0.088705 
0.091000 
0.086983 
0.091556 
0.086983 
0.091000 
0.088705 
0.089278 
0.091574 
0.089278 
0.092722 
0.089278 
0.092722 
0.089278 
0.091574 
0.089278 
0.078183 
0.086427 
0.094672 
0.086427 
0.088131 
0.092111 
0.085854 
0.092111 
0.088131 
0.088705 
0.091000 
0.086983 
0.091556 
0.086983 
0.091000 
0.088705 
0.089278 
0.091574 
0.089278 
0.092722 
0.089278 
0.092722 
0.089278 
0.091574 
0.089278 
0.078183 
0.086427 
0.094672 
0.086427 
0.088131 
0.092111 
0.085854 
0.092111 
0.088131 
0.088705 
0.091000 
0.086983 
0.091556 
0.086983 
0.091000 
0.088705 
0.089278 
0.091574 
0.089278 
0.092722 
0.089278 
0.092722 
0.089278 
0.091574 
0.089278 
SCALARS MASS float 
LOOKUP_TABLE default 
0.078183 
0.086427 
0.094672 
0.086427 
0.088131 
0.092111 
0.085854 
0.092111 
0.088131 
0.088705 
0.091000 
0.086983 
0.091556 
0.086983 
0.091000 
0.088705 
0.089278 
0.091574 
0.089278 
0.092722 
0.089278 
0.092722 
0.089278 
0.091574 
0.089278 
0.078183 
0.086427 
0.094672 
0.086427 
0.088131 
0.092111 
0.085854 
0.092111 
0.088131 
0.088705 
0.091000 
0.086983 
0.091556 
0.086983 
0.091000 
0.088705 
0.089278 
0.091574 
0.089278 
0.092722 
0.089278 
0.092722 
0.089278 
0.091574 
0.089278 
0.078183 
0.086427 
0.094672 
0.086427 
0.088131 
0.092111 
0.085854 
0.092111 
0.088131 
0.088705 
0.091000 
0.086983 
0.091556 
0.086983 
0.091000 
0.088705 
0.089278 
0.091574 
0.089278 
0.092722 
0.089278 
0.092722 
0.089278 
0.091574 
0.089278 
0.078183 
0.086427 
0.094672 
0.086427 
0.088131 
0.092111 
0.085854 
0.092111 
0.088131 
0.088705 
0.091000 
0.086983 
0.091556 
0.086983 
0.091000 
0.088705 
0.089278 
0.091574 
0.089278 
0.092722 
0.089278 
0.092722 
0.089278 
0.091574 
0.089278 
0.078183 
0.086427 
0.094672 
0.086427 
0.088131 
0.092111 
0.085854 
0.092111 
0.088131 
0.088705 
0.091000 
0.086983 
0.091556 
0.086983 
0.091000 
0.088705 
0.089278 
0.091574 
0.089278 
0.092722 
0.089278 
0.092722 
0.089278 
0.091574 
0.089278 
0.078183 
0.086427 
0.094672 
0.086427 
0.088131 
0.092111 
0.085854 
0.092111 
0.088131 
0.088705 
0.091000 
0.086983 
0.091556 
0.086983 
0.091000 
0.088705 
0.089278 
0.091574 
0.089278 
0.092722 
0.089278 
0.092722 
0.089278 
0.091574 
0.089278 
0.078183 
0.086427 
0.094672 
0.086427 
0.088131 
0.092111 
0.085854 
0.092111 
0.088131 
0.088705 
0.091000 
0.086983 
0.091556 
0.086983 
0.091000 
0.088705 
0.089278 
0.091574 
0.089278 
0.092722 
0.089278 
0.092722 
0.089278 
0.091574 
0.089278 
SCALARS DENSITY float 
LOOKUP_TABLE default 
20.000000 
20.000000 
20.000000 
20.000000 
20.000000 
20.000000 
20.000000 
20.000000 
20.000000 
20.000000 
20.000000 
20.000000 
20.000000 
20.000000 
20.000000 
20.000000 
20.000000 
20.000000 
20.000000 
20.000000 
20.000000 
20.000000 
20.000000 
20.000000 
20.000000 
20.000000 
20.000000 
20.000000 
20.000000 
20.000000 
20.000000 
20.000000 
20.000000 
20.000000 
20.000000 
20.000000 
20.000000 
20.000000 
20.000000 
20.000000 
20.000000 
20.000000 
20.000000 
20.000000 
20.000000 
20.000000 
20.000000 
20.000000 
20.000000 
20.000000 
20.000000 
20.000000 
20.000000 
20.000000 
20.000000 
20.000000 
20.000000 
20.000000 
20.000000 
20.000000 
20.000000 
20.000000 
20.000000 
20.000000 
20.000000 
20.000000 
20.000000 
20.000000 
20.000000 
20.000000 
20.000000 
20.000000 
20.000000 
20.000000 
20.000000 
20.000000 
20.000000 
20.000000 
20.000000 
20.000000 
20.000000 
20.000000 
20.000000 
20.000000 
20.000000 
20.000000 
20.000000 
20.000000 
20.000000 
20.000000 
20.000000 
20.000000 
20.000000 
20.000000 
20.000000 
20.000000 
20.000000 
20.000000 
20.000000 
20.000000 
20.000000 
20.000000 
20.000000 
20.000000 
20.000000 
20.000000 
20.000000 
20.000000 
20.000000 
20.000000 
20.000000 
20.000000 
20.000000 
20.000000 
20.000000 
20.000000 
20.000000 
20.000000 
20.000000 
20.000000 
20.000000 
20.000000 
20.000000 
20.000000 
20.000000 
20.000000 
20.000000 
20.000000 
20.000000 
20.000000 
20.000000 
20.000000 
20.000000 
20.000000 
20.000000 
20.000000 
20.000000 
20.000000 
20.000000 
20.000000 
20.000000 
20.000000 
20.000000 
20.000000 
20.000000 
20.000000 
20.000000 
20.000000 
20.000000 
20.000000 
20.000000 
20.000000 
20.000000 
20.000000 
20.000000 
20.000000 
20.000000 
20.000000 
20.000000 
20.000000 
20.000000 
20.000000 
20.000000 
20.000000 
20.000000 
20.000000 
20.000000 
20.000000 
20.000000 
20.000000 
20.000000 
20.000000 
20.000000 
20.000000 
20.000000 
SCALARS ELEM_i float 
LOOKUP_TABLE default 
177 
205 
178 
178 
205 
205 
205 
178 
179 
232 
205 
206 
206 
206 
179 
179 
233 
233 
233 
206 
207 
207 
207 
180 
180 
177 
204 
204 
204 
231 
204 
231 
204 
205 
230 
231 
231 
231 
232 
232 
232 
257 
258 
258 
258 
258 
259 
259 
232 
233 
177 
203 
203 
203 
202 
203 
203 
203 
230 
202 
202 
229 
229 
229 
230 
230 
201 
228 
228 
229 
229 
229 
256 
257 
257 
176 
176 
176 
176 
148 
175 
175 
175 
202 
147 
148 
174 
175 
174 
202 
201 
147 
147 
147 
174 
174 
174 
201 
201 
201 
177 
149 
149 
149 
122 
149 
149 
149 
148 
122 
122 
121 
121 
121 
148 
148 
95 
95 
94 
121 
121 
121 
120 
120 
147 
177 
150 
150 
150 
151 
150 
123 
150 
123 
124 
124 
124 
123 
123 
123 
122 
125 
124 
97 
97 
96 
96 
96 
96 
95 
177 
178 
178 
151 
179 
178 
151 
151 
151 
179 
179 
152 
152 
152 
151 
124 
180 
180 
153 
153 
153 
152 
125 
125 
125 
VECTORS VELOCITY float 
-0.000000 -3.804710 0.000000 
-0.000000 -3.804710 0.000000 
-0.000000 -3.804710 0.000000 
-0.000000 -3.804710 0.000000 
-0.000000 -3.804710 0.000000 
0.000000 -3.804710 0.000000 
-0.000000 -3.804710 0.000000 
-0.000000 -3.804710 0.000000 
-0.000000 -3.804710 0.000000 
-0.000000 -3.804710 0.000000 
-0.000000 -3.804710 0.000000 
-0.000000 -3.804710 0.000000 
-0.000000 -3.804710 0.000000 
0.000000 -3.804710 0.000000 
0.000000 -3.804710 0.000000 
0.000000 -3.804710 0.000000 
0.000000 -3.804710 0.000000 
-0.000000 -3.804710 0.000000 
-0.000000 -3.804710 0.000000 
-0.000000 -3.804710 0.000000 
0.000000 -3.804710 0.000000 
0.000000 -3.804710 0.000000 
0.000000 -3.804710 0.000000 
0.000000 -3.804710 0.000000 
-0.000000 -3.804710 0.000000 
0.000000 -3.804710 0.000000 
0.000000 -3.804710 0.000000 
-0.000000 -3.804710 0.000000 
-0.000000 -3.804710 0.000000 
0.000000 -3.804710 0.000000 
0.000000 -3.804710 0.000000 
0.000000 -3.804710 0.000000 
0.000000 -3.804710 0.000000 
0.000000 -3.804710 0.000000 
0.000000 -3.804710 0.000000 
0.000000 -3.804710 0.000000 
0.000000 -3.804710 0.000000 
0.000000 -3.804710 0.000000 
-0.000000 -3.804710 0.000000 
-0.000000 -3.804710 0.000000 
-0.000000 -3.804710 0.000000 
-0.000000 -3.804710 0.000000 
0.000000 -3.804710 0.000000 
0.000000 -3.804710 0.000000 
0.000000 -3.804710 0.000000 
0.000000 -3.804710 0.000000 
-0.000000 -3.804710 0.000000 
-0.000000 -3.804710 0.000000 
-0.000000 -3.804710 0.000000 
0.000000 -3.804710 0.000000 
0.000000 -3.804710 0.000000 
0.000000 -3.804710 0.000000 
0.000000 -3.804710 0.000000 
0.000000 -3.804710 0.000000 
-0.000000 -3.804710 0.000000 
0.000000 -3.804710 0.000000 
-0.000000 -3.804710 0.000000 
-0.000000 -3.804710 0.000000 
-0.000000 -3.804710 0.000000 
0.000000 -3.804710 0.000000 
0.000000 -3.804710 0.000000 
0.000000 -3.804710 0.000000 
0.000000 -3.804710 0.000000 
0.000000 -3.804710 0.000000 
-0.000000 -3.804710 0.000000 
0.000000 -3.804710 0.000000 
0.000000 -3.804710 0.000000 
-0.000000 -3.804710 0.000000 
-0.000000 -3.804710 0.000000 
-0.000000 -3.804710 0.000000 
0.000000 -3.804710 0.000000 
0.000000 -3.804710 0.000000 
0.000000 -3.804710 0.000000 
0.000000 -3.804710 0.000000 
-0.000000 -3.804710 0.000000 
0.000000 -3.804710 0.000000 
0.000000 -3.804710 0.000000 
0.000000 -3.804710 0.000000 
0.000000 -3.804710 0.000000 
0.000000 -3.804710 0.000000 
0.000000 -3.804710 0.000000 
0.000000 -3.804710 0.000000 
-0.000000 -3.804710 0.000000 
-0.000000 -3.804710 0.000000 
-0.000000 -3.804710 0.000000 
-0.000000 -3.804710 0.000000 
-0.000000 -3.804710 0.000000 
-0.000000 -3.804710 0.000000 
0.000000 -3.804710 0.000000 
0.000000 -3.804710 0.000000 
0.000000 -3.804710 0.000000 
0.000000 -3.804710 0.000000 
0.000000 -3.804710 0.000000 
-0.000000 -3.804710 0.000000 
0.000000 -3.804710 0.000000 
-0.000000 -3.804710 0.000000 
-0.000000 -3.804710 0.000000 
-0.000000 -3.804710 0.000000 
-0.000000 -3.804710 0.000000 
-0.000000 -3.804710 0.000000 
0.000000 -3.804710 0.000000 
-0.000000 -3.804710 0.000000 
0.000000 -3.804710 0.000000 
0.000000 -3.804710 0.000000 
-0.000000 -3.804710 0.000000 
-0.000000 -3.804710 0.000000 
-0.000000 -3.804710 0.000000 
0.000000 -3.804710 0.000000 
0.000000 -3.804710 0.000000 
0.000000 -3.804710 0.000000 
-0.000000 -3.804710 0.000000 
0.000000 -3.804710 0.000000 
0.000000 -3.804710 0.000000 
0.000000 -3.804710 0.000000 
0.000000 -3.804710 0.000000 
-0.000000 -3.804710 0.000000 
-0.000000 -3.804710 0.000000 
0.000000 -3.804710 0.000000 
-0.000000 -3.804710 0.000000 
-0.000000 -3.804710 0.000000 
-0.000000 -3.804710 0.000000 
-0.000000 -3.804710 0.000000 
-0.000000 -3.804710 0.000000 
-0.000000 -3.804710 0.000000 
0.000000 -3.804710 0.000000 
0.000000 -3.804710 0.000000 
0.000000 -3.804710 0.000000 
0.000000 -3.804710 0.000000 
-0.000000 -3.804710 0.000000 
0.000000 -3.804710 0.000000 
0.000000 -3.804710 0.000000 
0.000000 -3.804710 0.000000 
-0.000000 -3.804710 0.000000 
-0.000000 -3.804710 0.000000 
-0.000000 -3.804710 0.000000 
-0.000000 -3.804710 0.000000 
-0.000000 -3.804710 0.000000 
-0.000000 -3.804710 0.000000 
-0.000000 -3.804710 0.000000 
-0.000000 -3.804710 0.000000 
0.000000 -3.804710 0.000000 
0.000000 -3.804710 0.000000 
0.000000 -3.804710 0.000000 
-0.000000 -3.804710 0.000000 
-0.000000 -3.804710 0.000000 
0.000000 -3.804710 0.000000 
-0.000000 -3.804710 0.000000 
0.000000 -3.804710 0.000000 
0.000000 -3.804710 0.000000 
0.000000 -3.804710 0.000000 
0.000000 -3.804710 0.000000 
0.000000 -3.804710 0.000000 
0.000000 -3.804710 0.000000 
0.000000 -3.804710 0.000000 
-0.000000 -3.804710 0.000000 
-0.000000 -3.804710 0.000000 
-0.000000 -3.804710 0.000000 
-0.000000 -3.804710 0.000000 
-0.000000 -3.804710 0.000000 
-0.000000 -3.804710 0.000000 
-0.000000 -3.804710 0.000000 
-0.000000 -3.804710 0.000000 
-0.000000 -3.804710 0.000000 
0.000000 -3.804710 0.000000 
-0.000000 -3.804710 0.000000 
-0.000000 -3.804710 0.000000 
-0.000000 -3.804710 0.000000 
0.000000 -3.804710 0.000000 
0.000000 -3.804710 0.000000 
-0.000000 -3.804710 0.000000 
0.000000 -3.804710 0.000000 
0.000000 -3.804710 0.000000 
-0.000000 -3.804710 0.000000 
-0.000000 -3.804710 0.000000 
-0.000000 -3.804710 0.000000 
TENSORS STRESS float 
0.000000 0.000000 0.000000 
0.000000 -0.000000 0.000000 
0.000000 0.000000 0.000000 

-0.000000 -0.000000 0.000000 
0.000000 0.000000 0.000000 
0.000000 0.000000 0.000000 

-0.000000 -0.000000 0.000000 
0.000000 -0.000000 0.000000 
0.000000 0.000000 0.000000 

0.000000 -0.000000 0.000000 
0.000000 -0.000000 0.000000 
0.000000 0.000000 0.000000 

-0.000000 -0.000000 0.000000 
0.000000 -0.000000 0.000000 
0.000000 0.000000 0.000000 

-0.000000 -0.000000 0.000000 
0.000000 0.000000 0.000000 
0.000000 0.000000 0.000000 

-0.000000 0.000000 0.000000 
0.000000 -0.000000 0.000000 
0.000000 0.000000 0.000000 

0.000000 -0.000000 0.000000 
0.000000 0.000000 0.000000 
0.000000 0.000000 0.000000 

-0.000000 -0.000000 0.000000 
0.000000 -0.000000 0.000000 
0.000000 0.000000 0.000000 

-0.000000 0.000000 0.000000 
0.000000 -0.000000 0.000000 
0.000000 0.000000 0.000000 

-0.000000 -0.000000 0.000000 
0.000000 -0.000000 0.000000 
0.000000 0.000000 0.000000 

-0.000000 0.000000 0.000000 
0.000000 -0.000000 0.000000 
0.000000 0.000000 0.000000 

-0.000000 0.000000 0.000000 