# vtk DataFile Version 3.0 
vtk output 
ASCII 
DATASET UNSTRUCTURED_GRID 
POINTS 175 float 
-0.026061 -0.363302 0.000000 
-0.106992 -0.295246 0.000000 
-0.054870 -0.303479 0.000000 
-0.028809 -0.257595 0.000000 
-0.186430 -0.231171 0.000000 
-0.137056 -0.233697 0.000000 
-0.114311 -0.180050 0.000000 
-0.058186 -0.195715 0.000000 
-0.029377 -0.155538 0.000000 
-0.265318 -0.168015 0.000000 
-0.217198 -0.168815 0.000000 
-0.196633 -0.111518 0.000000 
-0.143120 -0.120227 0.000000 
-0.116563 -0.072959 0.000000 
-0.058945 -0.092604 0.000000 
-0.029568 -0.054484 0.000000 
-0.344206 -0.104859 0.000000 
-0.296791 -0.104852 0.000000 
-0.278030 -0.044909 0.000000 
-0.225992 -0.050776 0.000000 
-0.201664 0.001341 0.000000 
-0.145749 -0.012133 0.000000 
-0.117890 0.032210 0.000000 
-0.059328 0.009504 0.000000 
-0.029759 0.046570 0.000000 
-0.058559 -0.404053 0.000000 
-0.162226 -0.424895 0.000000 
-0.123292 -0.389278 0.000000 
-0.142917 -0.340294 0.000000 
-0.261851 -0.447052 0.000000 
-0.229092 -0.410025 0.000000 
-0.256854 -0.358793 0.000000 
-0.209613 -0.324680 0.000000 
-0.223062 -0.277107 0.000000 
-0.360414 -0.469352 0.000000 
-0.329787 -0.432229 0.000000 
-0.361761 -0.380427 0.000000 
-0.321587 -0.344018 0.000000 
-0.341985 -0.293784 0.000000 
-0.290702 -0.260985 0.000000 
-0.302189 -0.214250 0.000000 
-0.458977 -0.491652 0.000000 
-0.429420 -0.454577 0.000000 
-0.464588 -0.402536 0.000000 
-0.427556 -0.365508 0.000000 
-0.453135 -0.313993 0.000000 
-0.407738 -0.278678 0.000000 
-0.425037 -0.229250 0.000000 
-0.370772 -0.197621 0.000000 
-0.381315 -0.151393 0.000000 
-0.046960 -0.454868 0.000000 
-0.095301 -0.548914 0.000000 
-0.098873 -0.496267 0.000000 
-0.149405 -0.481069 0.000000 
-0.140093 -0.640618 0.000000 
-0.148617 -0.591920 0.000000 
-0.205981 -0.581682 0.000000 
-0.203197 -0.523479 0.000000 
-0.248777 -0.504332 0.000000 
-0.184111 -0.731581 0.000000 
-0.194039 -0.684490 0.000000 
-0.254475 -0.677191 0.000000 
-0.257893 -0.623081 0.000000 
-0.309886 -0.607709 0.000000 
-0.303554 -0.547163 0.000000 
-0.347255 -0.527006 0.000000 
-0.228129 -0.822545 0.000000 
-0.238687 -0.776321 0.000000 
-0.301302 -0.771369 0.000000 
-0.307162 -0.719330 0.000000 
-0.363386 -0.707209 0.000000 
-0.362692 -0.649697 0.000000 
-0.412122 -0.632404 0.000000 
-0.403017 -0.570258 0.000000 
-0.445733 -0.549679 0.000000 
-0.000000 -0.477483 0.000000 
0.043388 -0.573913 0.000000 
-0.000000 -0.543881 0.000000 
-0.043388 -0.573913 0.000000 
0.087158 -0.666110 0.000000 
0.043769 -0.642411 0.000000 
-0.000000 -0.680877 0.000000 
-0.043769 -0.642411 0.000000 
-0.087158 -0.666110 0.000000 
0.130831 -0.757240 0.000000 
0.087824 -0.735641 0.000000 
0.044436 -0.778341 0.000000 
-0.000000 -0.747276 0.000000 
-0.044436 -0.778341 0.000000 
-0.087824 -0.735641 0.000000 
-0.130831 -0.757240 0.000000 
0.174505 -0.848369 0.000000 
0.131782 -0.827803 0.000000 
0.088871 -0.873670 0.000000 
0.044532 -0.845806 0.000000 
-0.000000 -0.882206 0.000000 
-0.044532 -0.845806 0.000000 
-0.088871 -0.873670 0.000000 
-0.131782 -0.827803 0.000000 
-0.174505 -0.848369 0.000000 
0.046960 -0.454868 0.000000 
0.149405 -0.481069 0.000000 
0.098873 -0.496267 0.000000 
0.095301 -0.548914 0.000000 
0.248777 -0.504332 0.000000 
0.203197 -0.523479 0.000000 
0.205981 -0.581682 0.000000 
0.148617 -0.591920 0.000000 
0.140093 -0.640618 0.000000 
0.347255 -0.527006 0.000000 
0.303554 -0.547163 0.000000 
0.309886 -0.607709 0.000000 
0.257893 -0.623081 0.000000 
0.254475 -0.677191 0.000000 
0.194039 -0.684490 0.000000 
0.184111 -0.731581 0.000000 
0.445733 -0.549679 0.000000 
0.403017 -0.570258 0.000000 
0.412122 -0.632404 0.000000 
0.362692 -0.649697 0.000000 
0.363386 -0.707209 0.000000 
0.307162 -0.719330 0.000000 
0.301302 -0.771369 0.000000 
0.238687 -0.776321 0.000000 
0.228129 -0.822545 0.000000 
0.058559 -0.404053 0.000000 
0.142917 -0.340294 0.000000 
0.123292 -0.389278 0.000000 
0.162226 -0.424895 0.000000 
0.223062 -0.277107 0.000000 
0.209613 -0.324680 0.000000 
0.256854 -0.358793 0.000000 
0.229092 -0.410025 0.000000 
0.261851 -0.447052 0.000000 
0.302189 -0.214250 0.000000 
0.290702 -0.260985 0.000000 
0.341985 -0.293784 0.000000 
0.321587 -0.344018 0.000000 
0.361761 -0.380427 0.000000 
0.329787 -0.432229 0.000000 
0.360414 -0.469352 0.000000 
0.381315 -0.151393 0.000000 
0.370772 -0.197621 0.000000 
0.425037 -0.229250 0.000000 
0.407738 -0.278678 0.000000 
0.453135 -0.313993 0.000000 
0.427556 -0.365508 0.000000 
0.464588 -0.402536 0.000000 
0.429420 -0.454577 0.000000 
0.458977 -0.491652 0.000000 
0.026061 -0.363302 0.000000 
0.028809 -0.257595 0.000000 
0.054870 -0.303479 0.000000 
0.106992 -0.295246 0.000000 
0.029377 -0.155538 0.000000 
0.058186 -0.195715 0.000000 
0.114311 -0.180050 0.000000 
0.137056 -0.233697 0.000000 
0.186430 -0.231171 0.000000 
0.029568 -0.054484 0.000000 
0.058945 -0.092604 0.000000 
0.116563 -0.072959 0.000000 
0.143120 -0.120227 0.000000 
0.196633 -0.111518 0.000000 
0.217198 -0.168815 0.000000 
0.265318 -0.168015 0.000000 
0.029759 0.046570 0.000000 
0.059328 0.009504 0.000000 
0.117890 0.032210 0.000000 
0.145749 -0.012133 0.000000 
0.201664 0.001341 0.000000 
0.225992 -0.050776 0.000000 
0.278030 -0.044909 0.000000 
0.296791 -0.104852 0.000000 
0.344206 -0.104859 0.000000 
CELLS 175 350 
1 0 
1 1 
1 2 
1 3 
1 4 
1 5 
1 6 
1 7 
1 8 
1 9 
1 10 
1 11 
1 12 
1 13 
1 14 
1 15 
1 16 
1 17 
1 18 
1 19 
1 20 
1 21 
1 22 
1 23 
1 24 
1 25 
1 26 
1 27 
1 28 
1 29 
1 30 
1 31 
1 32 
1 33 
1 34 
1 35 
1 36 
1 37 
1 38 
1 39 
1 40 
1 41 
1 42 
1 43 
1 44 
1 45 
1 46 
1 47 
1 48 
1 49 
1 50 
1 51 
1 52 
1 53 
1 54 
1 55 
1 56 
1 57 
1 58 
1 59 
1 60 
1 61 
1 62 
1 63 
1 64 
1 65 
1 66 
1 67 
1 68 
1 69 
1 70 
1 71 
1 72 
1 73 
1 74 
1 75 
1 76 
1 77 
1 78 
1 79 
1 80 
1 81 
1 82 
1 83 
1 84 
1 85 
1 86 
1 87 
1 88 
1 89 
1 90 
1 91 
1 92 
1 93 
1 94 
1 95 
1 96 
1 97 
1 98 
1 99 
1 100 
1 101 
1 102 
1 103 
1 104 
1 105 
1 106 
1 107 
1 108 
1 109 
1 110 
1 111 
1 112 
1 113 
1 114 
1 115 
1 116 
1 117 
1 118 
1 119 
1 120 
1 121 
1 122 
1 123 
1 124 
1 125 
1 126 
1 127 
1 128 
1 129 
1 130 
1 131 
1 132 
1 133 
1 134 
1 135 
1 136 
1 137 
1 138 
1 139 
1 140 
1 141 
1 142 
1 143 
1 144 
1 145 
1 146 
1 147 
1 148 
1 149 
1 150 
1 151 
1 152 
1 153 
1 154 
1 155 
1 156 
1 157 
1 158 
1 159 
1 160 
1 161 
1 162 
1 163 
1 164 
1 165 
1 166 
1 167 
1 168 
1 169 
1 170 
1 171 
1 172 
1 173 
1 174 
CELL_TYPES 175 
1 
1 
1 
1 
1 
1 
1 
1 
1 
1 
1 
1 
1 
1 
1 
1 
1 
1 
1 
1 
1 
1 
1 
1 
1 
1 
1 
1 
1 
1 
1 
1 
1 
1 
1 
1 
1 
1 
1 
1 
1 
1 
1 
1 
1 
1 
1 
1 
1 
1 
1 
1 
1 
1 
1 
1 
1 
1 
1 
1 
1 
1 
1 
1 
1 
1 
1 
1 
1 
1 
1 
1 
1 
1 
1 
1 
1 
1 
1 
1 
1 
1 
1 
1 
1 
1 
1 
1 
1 
1 
1 
1 
1 
1 
1 
1 
1 
1 
1 
1 
1 
1 
1 
1 
1 
1 
1 
1 
1 
1 
1 
1 
1 
1 
1 
1 
1 
1 
1 
1 
1 
1 
1 
1 
1 
1 
1 
1 
1 
1 
1 
1 
1 
1 
1 
1 
1 
1 
1 
1 
1 
1 
1 
1 
1 
1 
1 
1 
1 
1 
1 
1 
1 
1 
1 
1 
1 
1 
1 
1 
1 
1 
1 
1 
1 
1 
1 
1 
1 
1 
1 
1 
1 
1 
1 
POINT_DATA 175 
VECTORS X_GC float 
-0.026061 -0.363302 0.000000 
-0.106992 -0.295246 0.000000 
-0.054870 -0.303479 0.000000 
-0.028809 -0.257595 0.000000 
-0.186430 -0.231171 0.000000 
-0.137056 -0.233697 0.000000 
-0.114311 -0.180050 0.000000 
-0.058186 -0.195715 0.000000 
-0.029377 -0.155538 0.000000 
-0.265318 -0.168015 0.000000 
-0.217198 -0.168815 0.000000 
-0.196633 -0.111518 0.000000 
-0.143120 -0.120227 0.000000 
-0.116563 -0.072959 0.000000 
-0.058945 -0.092604 0.000000 
-0.029568 -0.054484 0.000000 
-0.344206 -0.104859 0.000000 
-0.296791 -0.104852 0.000000 
-0.278030 -0.044909 0.000000 
-0.225992 -0.050776 0.000000 
-0.201664 0.001341 0.000000 
-0.145749 -0.012133 0.000000 
-0.117890 0.032210 0.000000 
-0.059328 0.009504 0.000000 
-0.029759 0.046570 0.000000 
-0.058559 -0.404053 0.000000 
-0.162226 -0.424895 0.000000 
-0.123292 -0.389278 0.000000 
-0.142917 -0.340294 0.000000 
-0.261851 -0.447052 0.000000 
-0.229092 -0.410025 0.000000 
-0.256854 -0.358793 0.000000 
-0.209613 -0.324680 0.000000 
-0.223062 -0.277107 0.000000 
-0.360414 -0.469352 0.000000 
-0.329787 -0.432229 0.000000 
-0.361761 -0.380427 0.000000 
-0.321587 -0.344018 0.000000 
-0.341985 -0.293784 0.000000 
-0.290702 -0.260985 0.000000 
-0.302189 -0.214250 0.000000 
-0.458977 -0.491652 0.000000 
-0.429420 -0.454577 0.000000 
-0.464588 -0.402536 0.000000 
-0.427556 -0.365508 0.000000 
-0.453135 -0.313993 0.000000 
-0.407738 -0.278678 0.000000 
-0.425037 -0.229250 0.000000 
-0.370772 -0.197621 0.000000 
-0.381315 -0.151393 0.000000 
-0.046960 -0.454868 0.000000 
-0.095301 -0.548914 0.000000 
-0.098873 -0.496267 0.000000 
-0.149405 -0.481069 0.000000 
-0.140093 -0.640618 0.000000 
-0.148617 -0.591920 0.000000 
-0.205981 -0.581682 0.000000 
-0.203197 -0.523479 0.000000 
-0.248777 -0.504332 0.000000 
-0.184111 -0.731581 0.000000 
-0.194039 -0.684490 0.000000 
-0.254475 -0.677191 0.000000 
-0.257893 -0.623081 0.000000 
-0.309886 -0.607709 0.000000 
-0.303554 -0.547163 0.000000 
-0.347255 -0.527006 0.000000 
-0.228129 -0.822545 0.000000 
-0.238687 -0.776321 0.000000 
-0.301302 -0.771369 0.000000 
-0.307162 -0.719330 0.000000 
-0.363386 -0.707209 0.000000 
-0.362692 -0.649697 0.000000 
-0.412122 -0.632404 0.000000 
-0.403017 -0.570258 0.000000 
-0.445733 -0.549679 0.000000 
-0.000000 -0.477483 0.000000 
0.043388 -0.573913 0.000000 
-0.000000 -0.543881 0.000000 
-0.043388 -0.573913 0.000000 
0.087158 -0.666110 0.000000 
0.043769 -0.642411 0.000000 
-0.000000 -0.680877 0.000000 
-0.043769 -0.642411 0.000000 
-0.087158 -0.666110 0.000000 
0.130831 -0.757240 0.000000 
0.087824 -0.735641 0.000000 
0.044436 -0.778341 0.000000 
-0.000000 -0.747276 0.000000 
-0.044436 -0.778341 0.000000 
-0.087824 -0.735641 0.000000 
-0.130831 -0.757240 0.000000 
0.174505 -0.848369 0.000000 
0.131782 -0.827803 0.000000 
0.088871 -0.873670 0.000000 
0.044532 -0.845806 0.000000 
-0.000000 -0.882206 0.000000 
-0.044532 -0.845806 0.000000 
-0.088871 -0.873670 0.000000 
-0.131782 -0.827803 0.000000 
-0.174505 -0.848369 0.000000 
0.046960 -0.454868 0.000000 
0.149405 -0.481069 0.000000 
0.098873 -0.496267 0.000000 
0.095301 -0.548914 0.000000 
0.248777 -0.504332 0.000000 
0.203197 -0.523479 0.000000 
0.205981 -0.581682 0.000000 
0.148617 -0.591920 0.000000 
0.140093 -0.640618 0.000000 
0.347255 -0.527006 0.000000 
0.303554 -0.547163 0.000000 
0.309886 -0.607709 0.000000 
0.257893 -0.623081 0.000000 
0.254475 -0.677191 0.000000 
0.194039 -0.684490 0.000000 
0.184111 -0.731581 0.000000 
0.445733 -0.549679 0.000000 
0.403017 -0.570258 0.000000 
0.412122 -0.632404 0.000000 
0.362692 -0.649697 0.000000 
0.363386 -0.707209 0.000000 
0.307162 -0.719330 0.000000 
0.301302 -0.771369 0.000000 
0.238687 -0.776321 0.000000 
0.228129 -0.822545 0.000000 
0.058559 -0.404053 0.000000 
0.142917 -0.340294 0.000000 
0.123292 -0.389278 0.000000 
0.162226 -0.424895 0.000000 
0.223062 -0.277107 0.000000 
0.209613 -0.324680 0.000000 
0.256854 -0.358793 0.000000 
0.229092 -0.410025 0.000000 
0.261851 -0.447052 0.000000 
0.302189 -0.214250 0.000000 
0.290702 -0.260985 0.000000 
0.341985 -0.293784 0.000000 
0.321587 -0.344018 0.000000 
0.361761 -0.380427 0.000000 
0.329787 -0.432229 0.000000 
0.360414 -0.469352 0.000000 
0.381315 -0.151393 0.000000 
0.370772 -0.197621 0.000000 
0.425037 -0.229250 0.000000 
0.407738 -0.278678 0.000000 
0.453135 -0.313993 0.000000 
0.427556 -0.365508 0.000000 
0.464588 -0.402536 0.000000 
0.429420 -0.454577 0.000000 
0.458977 -0.491652 0.000000 
0.026061 -0.363302 0.000000 
0.028809 -0.257595 0.000000 
0.054870 -0.303479 0.000000 
0.106992 -0.295246 0.000000 
0.029377 -0.155538 0.000000 
0.058186 -0.195715 0.000000 
0.114311 -0.180050 0.000000 
0.137056 -0.233697 0.000000 
0.186430 -0.231171 0.000000 
0.029568 -0.054484 0.000000 
0.058945 -0.092604 0.000000 
0.116563 -0.072959 0.000000 
0.143120 -0.120227 0.000000 
0.196633 -0.111518 0.000000 
0.217198 -0.168815 0.000000 
0.265318 -0.168015 0.000000 
0.029759 0.046570 0.000000 
0.059328 0.009504 0.000000 
0.117890 0.032210 0.000000 
0.145749 -0.012133 0.000000 
0.201664 0.001341 0.000000 
0.225992 -0.050776 0.000000 
0.278030 -0.044909 0.000000 
0.296791 -0.104852 0.000000 
0.344206 -0.104859 0.000000 
VECTORS X_EC float 
0.338794 -0.595424 0.000000 
-0.609100 0.485827 0.000000 
0.713312 0.596968 0.000000 
0.374519 -0.022462 0.000000 
0.423588 -0.379192 0.000000 
-0.218274 -0.345088 0.000000 
-0.513962 0.930673 0.000000 
0.756418 -0.857841 0.000000 
0.381900 0.599766 0.000000 
-0.550868 0.768205 0.000000 
0.823577 0.779000 0.000000 
0.556234 0.005496 0.000000 
-0.139443 0.123065 0.000000 
-0.484677 -0.515060 0.000000 
0.766286 -0.249844 0.000000 
0.384386 -0.764465 0.000000 
0.474677 -0.084398 0.000000 
-0.141715 -0.084495 0.000000 
-0.385608 -0.893723 0.000000 
0.937896 -0.814527 0.000000 
0.621631 0.481893 0.000000 
-0.105264 0.663792 0.000000 
-0.467428 0.065165 0.000000 
0.771260 0.371694 0.000000 
0.386873 -0.128695 0.000000 
0.761262 -0.045290 0.000000 
0.108942 0.236087 0.000000 
-0.397202 -0.244752 0.000000 
-0.142083 -0.906028 0.000000 
-0.595936 0.535197 0.000000 
0.978194 0.035332 0.000000 
-0.660903 -0.656293 0.000000 
0.724964 0.883186 0.000000 
0.899809 0.240938 0.000000 
0.685384 0.836250 0.000000 
0.287229 0.335091 0.000000 
0.702895 -0.364237 0.000000 
0.180633 -0.855756 0.000000 
0.445811 0.466084 0.000000 
-0.220880 0.023298 0.000000 
-0.071546 -0.607627 0.000000 
-0.033296 -0.862698 0.000000 
-0.417537 0.636792 0.000000 
0.039645 -0.065770 0.000000 
-0.441768 -0.565641 0.000000 
-0.109248 0.738908 0.000000 
-0.699407 0.262152 0.000000 
-0.474522 -0.405127 0.000000 
0.820030 -0.832120 0.000000 
0.957100 0.543808 0.000000 
0.610485 0.640717 0.000000 
-0.761092 -0.089664 0.000000 
-0.714655 -0.800402 0.000000 
-0.057734 0.994431 0.000000 
-0.178789 -0.851660 0.000000 
-0.067979 0.490914 0.000000 
0.677748 0.352711 0.000000 
0.641556 -0.433035 0.000000 
-0.765897 -0.691513 0.000000 
0.393446 0.376349 0.000000 
0.522510 -0.259381 0.000000 
-0.691820 -0.357925 0.000000 
-0.647393 0.911592 0.000000 
0.028512 0.704066 0.000000 
-0.053800 -0.113295 0.000000 
0.514316 -0.385426 0.000000 
0.965681 -0.395642 0.000000 
-0.897068 0.980329 0.000000 
-0.083078 0.913476 0.000000 
-0.006893 0.210952 0.000000 
0.724017 0.047319 0.000000 
0.714996 -0.729085 0.000000 
-0.642413 -0.962542 0.000000 
-0.760780 0.198478 0.000000 
-0.205471 -0.079338 0.000000 
0.000000 0.946018 0.000000 
-0.564049 0.247831 0.000000 
0.000000 -0.157605 0.000000 
0.564049 0.247831 0.000000 
0.866949 -0.507514 0.000000 
-0.569003 -0.827445 0.000000 
0.000000 -0.308157 0.000000 
0.569003 -0.827445 0.000000 
-0.866949 -0.507514 0.000000 
0.299194 0.722736 0.000000 
0.858290 0.431153 0.000000 
-0.577662 -0.992402 0.000000 
0.000000 0.588220 0.000000 
0.577662 -0.992402 0.000000 
-0.858290 0.431153 0.000000 
-0.299194 0.722736 0.000000 
-0.268560 -0.047014 0.000000 
0.286830 -0.324655 0.000000 
0.844677 0.294543 0.000000 
-0.578910 -0.081620 0.000000 
0.000000 0.409784 0.000000 
0.578910 -0.081620 0.000000 
-0.844677 0.294543 0.000000 
-0.286830 -0.324655 0.000000 
0.268560 -0.047014 0.000000 
-0.610485 0.640717 0.000000 
0.057734 0.994431 0.000000 
0.714655 -0.800402 0.000000 
0.761092 -0.089664 0.000000 
0.765897 -0.691513 0.000000 
-0.641556 -0.433035 0.000000 
-0.677748 0.352711 0.000000 
0.067979 0.490914 0.000000 
0.178789 -0.851660 0.000000 
-0.514316 -0.385425 0.000000 
0.053800 -0.113295 0.000000 
-0.028512 0.704066 0.000000 
0.647393 0.911592 0.000000 
0.691820 -0.357925 0.000000 
-0.522510 -0.259381 0.000000 
-0.393446 0.376349 0.000000 
0.205471 -0.079338 0.000000 
0.760780 0.198478 0.000000 
0.642413 -0.962542 0.000000 
-0.714996 -0.729085 0.000000 
-0.724017 0.047319 0.000000 
0.006894 0.210952 0.000000 
0.083078 0.913476 0.000000 
0.897068 0.980329 0.000000 
-0.965681 -0.395642 0.000000 
-0.761262 -0.045290 0.000000 
0.142083 -0.906028 0.000000 
0.397202 -0.244752 0.000000 
-0.108942 0.236087 0.000000 
-0.899809 0.240938 0.000000 
-0.724964 0.883186 0.000000 
0.660903 -0.656293 0.000000 
-0.978194 0.035332 0.000000 
0.595936 0.535197 0.000000 
0.071546 -0.607627 0.000000 
0.220880 0.023298 0.000000 
-0.445811 0.466084 0.000000 
-0.180633 -0.855756 0.000000 
-0.702895 -0.364237 0.000000 
-0.287229 0.335091 0.000000 
-0.685384 0.836250 0.000000 
-0.957100 0.543808 0.000000 
-0.820030 -0.832120 0.000000 
0.474522 -0.405127 0.000000 
0.699407 0.262152 0.000000 
0.109248 0.738908 0.000000 
0.441768 -0.565641 0.000000 
-0.039645 -0.065770 0.000000 
0.417537 0.636792 0.000000 
0.033296 -0.862698 0.000000 
-0.338794 -0.595424 0.000000 
-0.374519 -0.022462 0.000000 
-0.713312 0.596968 0.000000 
0.609100 0.485827 0.000000 
-0.381900 0.599766 0.000000 
-0.756418 -0.857841 0.000000 
0.513962 0.930673 0.000000 
0.218274 -0.345088 0.000000 
-0.423588 -0.379192 0.000000 
-0.384386 -0.764465 0.000000 
-0.766286 -0.249844 0.000000 
0.484677 -0.515060 0.000000 
0.139443 0.123065 0.000000 
-0.556234 0.005496 0.000000 
-0.823577 0.779000 0.000000 
0.550868 0.768205 0.000000 
-0.386873 -0.128695 0.000000 
-0.771260 0.371694 0.000000 
0.467428 0.065165 0.000000 
0.105264 0.663792 0.000000 
-0.621631 0.481893 0.000000 
-0.937896 -0.814527 0.000000 
0.385608 -0.893723 0.000000 
0.141715 -0.084495 0.000000 
-0.474677 -0.084398 0.000000 
CELL_DATA 175 
SCALARS MASS float 
LOOKUP_TABLE default 
0.078183 
0.086427 
0.094672 
0.086427 
0.088131 
0.092111 
0.085854 
0.092111 
0.088131 
0.088705 
0.091000 
0.086983 
0.091556 
0.086983 
0.091000 
0.088705 
0.089278 
0.091574 
0.089278 
0.092722 
0.089278 
0.092722 
0.089278 
0.091574 
0.089278 
0.078183 
0.086427 
0.094672 
0.086427 
0.088131 
0.092111 
0.085854 
0.092111 
0.088131 
0.088705 
0.091000 
0.086983 
0.091556 
0.086983 
0.091000 
0.088705 
0.089278 
0.091574 
0.089278 
0.092722 
0.089278 
0.092722 
0.089278 
0.091574 
0.089278 
0.078183 
0.086427 
0.094672 
0.086427 
0.088131 
0.092111 
0.085854 
0.092111 
0.088131 
0.088705 
0.091000 
0.086983 
0.091556 
0.086983 
0.091000 
0.088705 
0.089278 
0.091574 
0.089278 
0.092722 
0.089278 
0.092722 
0.089278 
0.091574 
0.089278 
0.078183 
0.086427 
0.094672 
0.086427 
0.088131 
0.092111 
0.085854 
0.092111 
0.088131 
0.088705 
0.091000 
0.086983 
0.091556 
0.086983 
0.091000 
0.088705 
0.089278 
0.091574 
0.089278 
0.092722 
0.089278 
0.092722 
0.089278 
0.091574 
0.089278 
0.078183 
0.086427 
0.094672 
0.086427 
0.088131 
0.092111 
0.085854 
0.092111 
0.088131 
0.088705 
0.091000 
0.086983 
0.091556 
0.086983 
0.091000 
0.088705 
0.089278 
0.091574 
0.089278 
0.092722 
0.089278 
0.092722 
0.089278 
0.091574 
0.089278 
0.078183 
0.086427 
0.094672 
0.086427 
0.088131 
0.092111 
0.085854 
0.092111 
0.088131 
0.088705 
0.091000 
0.086983 
0.091556 
0.086983 
0.091000 
0.088705 
0.089278 
0.091574 
0.089278 
0.092722 
0.089278 
0.092722 
0.089278 
0.091574 
0.089278 
0.078183 
0.086427 
0.094672 
0.086427 
0.088131 
0.092111 
0.085854 
0.092111 
0.088131 
0.088705 
0.091000 
0.086983 
0.091556 
0.086983 
0.091000 
0.088705 
0.089278 
0.091574 
0.089278 
0.092722 
0.089278 
0.092722 
0.089278 
0.091574 
0.089278 
SCALARS MASS float 
LOOKUP_TABLE default 
0.078183 
0.086427 
0.094672 
0.086427 
0.088131 
0.092111 
0.085854 
0.092111 
0.088131 
0.088705 
0.091000 
0.086983 
0.091556 
0.086983 
0.091000 
0.088705 
0.089278 
0.091574 
0.089278 
0.092722 
0.089278 
0.092722 
0.089278 
0.091574 
0.089278 
0.078183 
0.086427 
0.094672 
0.086427 
0.088131 
0.092111 
0.085854 
0.092111 
0.088131 
0.088705 
0.091000 
0.086983 
0.091556 
0.086983 
0.091000 
0.088705 
0.089278 
0.091574 
0.089278 
0.092722 
0.089278 
0.092722 
0.089278 
0.091574 
0.089278 
0.078183 
0.086427 
0.094672 
0.086427 
0.088131 
0.092111 
0.085854 
0.092111 
0.088131 
0.088705 
0.091000 
0.086983 
0.091556 
0.086983 
0.091000 
0.088705 
0.089278 
0.091574 
0.089278 
0.092722 
0.089278 
0.092722 
0.089278 
0.091574 
0.089278 
0.078183 
0.086427 
0.094672 
0.086427 
0.088131 
0.092111 
0.085854 
0.092111 
0.088131 
0.088705 
0.091000 
0.086983 
0.091556 
0.086983 
0.091000 
0.088705 
0.089278 
0.091574 
0.089278 
0.092722 
0.089278 
0.092722 
0.089278 
0.091574 
0.089278 
0.078183 
0.086427 
0.094672 
0.086427 
0.088131 
0.092111 
0.085854 
0.092111 
0.088131 
0.088705 
0.091000 
0.086983 
0.091556 
0.086983 
0.091000 
0.088705 
0.089278 
0.091574 
0.089278 
0.092722 
0.089278 
0.092722 
0.089278 
0.091574 
0.089278 
0.078183 
0.086427 
0.094672 
0.086427 
0.088131 
0.092111 
0.085854 
0.092111 
0.088131 
0.088705 
0.091000 
0.086983 
0.091556 
0.086983 
0.091000 
0.088705 
0.089278 
0.091574 
0.089278 
0.092722 
0.089278 
0.092722 
0.089278 
0.091574 
0.089278 
0.078183 
0.086427 
0.094672 
0.086427 
0.088131 
0.092111 
0.085854 
0.092111 
0.088131 
0.088705 
0.091000 
0.086983 
0.091556 
0.086983 
0.091000 
0.088705 
0.089278 
0.091574 
0.089278 
0.092722 
0.089278 
0.092722 
0.089278 
0.091574 
0.089278 
SCALARS DENSITY float 
LOOKUP_TABLE default 
20.000000 
20.000000 
20.000000 
20.000000 
20.000000 
20.000000 
20.000000 
20.000000 
20.000000 
20.000000 
20.000000 
20.000000 
20.000000 
20.000000 
20.000000 
20.000000 
20.000000 
20.000000 
20.000000 
20.000000 
20.000000 
20.000000 
20.000000 
20.000000 
20.000000 
20.000000 
20.000000 
20.000000 
20.000000 
20.000000 
20.000000 
20.000000 
20.000000 
20.000000 
20.000000 
20.000000 
20.000000 
20.000000 
20.000000 
20.000000 
20.000000 
20.000000 
20.000000 
20.000000 
20.000000 
20.000000 
20.000000 
20.000000 
20.000000 
20.000000 
20.000000 
20.000000 
20.000000 
20.000000 
20.000000 
20.000000 
20.000000 
20.000000 
20.000000 
20.000000 
20.000000 
20.000000 
20.000000 
20.000000 
20.000000 
20.000000 
20.000000 
20.000000 
20.000000 
20.000000 
20.000000 
20.000000 
20.000000 
20.000000 
20.000000 
20.000000 
20.000000 
20.000000 
20.000000 
20.000000 
20.000000 
20.000000 
20.000000 
20.000000 
20.000000 
20.000000 
20.000000 
20.000000 
20.000000 
20.000000 
20.000000 
20.000000 
20.000000 
20.000000 
20.000000 
20.000000 
20.000000 
20.000000 
20.000000 
20.000000 
20.000000 
20.000000 
20.000000 
20.000000 
20.000000 
20.000000 
20.000000 
20.000000 
20.000000 
20.000000 
20.000000 
20.000000 
20.000000 
20.000000 
20.000000 
20.000000 
20.000000 
20.000000 
20.000000 
20.000000 
20.000000 
20.000000 
20.000000 
20.000000 
20.000000 
20.000000 
20.000000 
20.000000 
20.000000 
20.000000 
20.000000 
20.000000 
20.000000 
20.000000 
20.000000 
20.000000 
20.000000 
20.000000 
20.000000 
20.000000 
20.000000 
20.000000 
20.000000 
20.000000 
20.000000 
20.000000 
20.000000 
20.000000 
20.000000 
20.000000 
20.000000 
20.000000 
20.000000 
20.000000 
20.000000 
20.000000 
20.000000 
20.000000 
20.000000 
20.000000 
20.000000 
20.000000 
20.000000 
20.000000 
20.000000 
20.000000 
20.000000 
20.000000 
20.000000 
20.000000 
20.000000 
20.000000 
20.000000 
20.000000 
20.000000 
SCALARS ELEM_i float 
LOOKUP_TABLE default 
179 
207 
180 
180 
207 
207 
208 
180 
181 
235 
208 
208 
208 
208 
181 
181 
235 
235 
235 
208 
209 
209 
209 
182 
182 
179 
206 
206 
206 
233 
206 
233 
207 
207 
233 
233 
233 
233 
234 
234 
234 
259 
260 
260 
260 
261 
261 
261 
234 
235 
179 
205 
205 
206 
204 
205 
205 
205 
232 
204 
204 
231 
232 
232 
232 
232 
203 
231 
231 
231 
231 
231 
258 
259 
259 
179 
178 
178 
178 
150 
177 
177 
177 
204 
150 
150 
176 
177 
176 
204 
204 
149 
149 
149 
176 
176 
176 
203 
203 
203 
179 
152 
151 
151 
124 
151 
151 
151 
150 
124 
124 
124 
124 
123 
150 
150 
97 
97 
96 
123 
123 
123 
123 
123 
149 
179 
152 
152 
152 
153 
153 
125 
152 
125 
126 
126 
126 
125 
125 
125 
125 
127 
126 
99 
99 
99 
98 
98 
98 
97 
179 
180 
180 
153 
181 
180 
154 
153 
153 
181 
181 
154 
154 
154 
154 
127 
182 
182 
155 
155 
155 
154 
127 
127 
127 
VECTORS VELOCITY float 
0.000000 -2.861381 0.000000 
0.000000 -2.861381 0.000000 
0.000000 -2.861381 0.000000 
0.000000 -2.861381 0.000000 
0.000000 -2.861381 0.000000 
0.000000 -2.861381 0.000000 
-0.000000 -2.861381 0.000000 
-0.000000 -2.861381 0.000000 
-0.000000 -2.861381 0.000000 
-0.000000 -2.861381 0.000000 
-0.000000 -2.861381 0.000000 
-0.000000 -2.861381 0.000000 
-0.000000 -2.861381 0.000000 
-0.000000 -2.861381 0.000000 
0.000000 -2.861381 0.000000 
0.000000 -2.861381 0.000000 
-0.000000 -2.861381 0.000000 
-0.000000 -2.861381 0.000000 
-0.000000 -2.861381 0.000000 
-0.000000 -2.861381 0.000000 
-0.000000 -2.861381 0.000000 
-0.000000 -2.861381 0.000000 
-0.000000 -2.861381 0.000000 
0.000000 -2.861381 0.000000 
0.000000 -2.861381 0.000000 
-0.000000 -2.861381 0.000000 
-0.000000 -2.861381 0.000000 
-0.000000 -2.861381 0.000000 
0.000000 -2.861381 0.000000 
0.000000 -2.861381 0.000000 
-0.000000 -2.861381 0.000000 
0.000000 -2.861381 0.000000 
0.000000 -2.861381 0.000000 
0.000000 -2.861381 0.000000 
0.000000 -2.861381 0.000000 
0.000000 -2.861381 0.000000 
0.000000 -2.861381 0.000000 
0.000000 -2.861381 0.000000 
0.000000 -2.861381 0.000000 
0.000000 -2.861381 0.000000 
-0.000000 -2.861381 0.000000 
-0.000000 -2.861381 0.000000 
0.000000 -2.861381 0.000000 
-0.000000 -2.861381 0.000000 
0.000000 -2.861381 0.000000 
-0.000000 -2.861381 0.000000 
-0.000000 -2.861381 0.000000 
-0.000000 -2.861381 0.000000 
-0.000000 -2.861381 0.000000 
-0.000000 -2.861381 0.000000 
-0.000000 -2.861381 0.000000 
0.000000 -2.861381 0.000000 
-0.000000 -2.861381 0.000000 
-0.000000 -2.861381 0.000000 
0.000000 -2.861381 0.000000 
0.000000 -2.861381 0.000000 
0.000000 -2.861381 0.000000 
-0.000000 -2.861381 0.000000 
0.000000 -2.861381 0.000000 
-0.000000 -2.861381 0.000000 
0.000000 -2.861381 0.000000 
0.000000 -2.861381 0.000000 
0.000000 -2.861381 0.000000 
-0.000000 -2.861381 0.000000 
0.000000 -2.861381 0.000000 
0.000000 -2.861381 0.000000 
-0.000000 -2.861381 0.000000 
-0.000000 -2.861381 0.000000 
-0.000000 -2.861381 0.000000 
-0.000000 -2.861381 0.000000 
0.000000 -2.861381 0.000000 
-0.000000 -2.861381 0.000000 
-0.000000 -2.861381 0.000000 
-0.000000 -2.861381 0.000000 
0.000000 -2.861381 0.000000 
-0.000000 -2.861381 0.000000 
-0.000000 -2.861381 0.000000 
0.000000 -2.861381 0.000000 
0.000000 -2.861381 0.000000 
-0.000000 -2.861381 0.000000 
0.000000 -2.861381 0.000000 
0.000000 -2.861381 0.000000 
0.000000 -2.861381 0.000000 
0.000000 -2.861381 0.000000 
-0.000000 -2.861381 0.000000 
-0.000000 -2.861381 0.000000 
-0.000000 -2.861381 0.000000 
-0.000000 -2.861381 0.000000 
-0.000000 -2.861381 0.000000 
0.000000 -2.861381 0.000000 
-0.000000 -2.861381 0.000000 
0.000000 -2.861381 0.000000 
0.000000 -2.861381 0.000000 
0.000000 -2.861381 0.000000 
-0.000000 -2.861381 0.000000 
0.000000 -2.861381 0.000000 
0.000000 -2.861381 0.000000 
0.000000 -2.861381 0.000000 
0.000000 -2.861381 0.000000 
0.000000 -2.861381 0.000000 
-0.000000 -2.861381 0.000000 
-0.000000 -2.861381 0.000000 
-0.000000 -2.861381 0.000000 
-0.000000 -2.861381 0.000000 
-0.000000 -2.861381 0.000000 
-0.000000 -2.861381 0.000000 
-0.000000 -2.861381 0.000000 
-0.000000 -2.861381 0.000000 
-0.000000 -2.861381 0.000000 
-0.000000 -2.861381 0.000000 
-0.000000 -2.861381 0.000000 
-0.000000 -2.861381 0.000000 
-0.000000 -2.861381 0.000000 
0.000000 -2.861381 0.000000 
0.000000 -2.861381 0.000000 
-0.000000 -2.861381 0.000000 
-0.000000 -2.861381 0.000000 
-0.000000 -2.861381 0.000000 
-0.000000 -2.861381 0.000000 
-0.000000 -2.861381 0.000000 
-0.000000 -2.861381 0.000000 
-0.000000 -2.861381 0.000000 
-0.000000 -2.861381 0.000000 
-0.000000 -2.861381 0.000000 
0.000000 -2.861381 0.000000 
-0.000000 -2.861381 0.000000 
0.000000 -2.861381 0.000000 
0.000000 -2.861381 0.000000 
0.000000 -2.861381 0.000000 
-0.000000 -2.861381 0.000000 
0.000000 -2.861381 0.000000 
0.000000 -2.861381 0.000000 
0.000000 -2.861381 0.000000 
0.000000 -2.861381 0.000000 
-0.000000 -2.861381 0.000000 
-0.000000 -2.861381 0.000000 
-0.000000 -2.861381 0.000000 
-0.000000 -2.861381 0.000000 
-0.000000 -2.861381 0.000000 
-0.000000 -2.861381 0.000000 
-0.000000 -2.861381 0.000000 
0.000000 -2.861381 0.000000 
0.000000 -2.861381 0.000000 
0.000000 -2.861381 0.000000 
-0.000000 -2.861381 0.000000 
0.000000 -2.861381 0.000000 
0.000000 -2.861381 0.000000 
0.000000 -2.861381 0.000000 
-0.000000 -2.861381 0.000000 
0.000000 -2.861381 0.000000 
0.000000 -2.861381 0.000000 
0.000000 -2.861381 0.000000 
0.000000 -2.861381 0.000000 
0.000000 -2.861381 0.000000 
-0.000000 -2.861381 0.000000 
-0.000000 -2.861381 0.000000 
-0.000000 -2.861381 0.000000 
-0.000000 -2.861381 0.000000 
-0.000000 -2.861381 0.000000 
-0.000000 -2.861381 0.000000 
-0.000000 -2.861381 0.000000 
-0.000000 -2.861381 0.000000 
-0.000000 -2.861381 0.000000 
-0.000000 -2.861381 0.000000 
-0.000000 -2.861381 0.000000 
-0.000000 -2.861381 0.000000 
0.000000 -2.861381 0.000000 
-0.000000 -2.861381 0.000000 
-0.000000 -2.861381 0.000000 
0.000000 -2.861381 0.000000 
0.000000 -2.861381 0.000000 
0.000000 -2.861381 0.000000 
0.000000 -2.861381 0.000000 
-0.000000 -2.861381 0.000000 
0.000000 -2.861381 0.000000 
TENSORS STRESS float 
0.000000 -0.000000 0.000000 
0.000000 -0.000000 0.000000 
0.000000 0.000000 0.000000 

-0.000000 -0.000000 0.000000 
0.000000 0.000000 0.000000 
0.000000 0.000000 0.000000 

0.000000 -0.000000 0.000000 
0.000000 -0.000000 0.000000 
0.000000 0.000000 0.000000 

0.000000 0.000000 0.000000 
0.000000 -0.000000 0.000000 
0.000000 0.000000 0.000000 

-0.000000 -0.000000 0.000000 
0.000000 -0.000000 0.000000 
0.000000 0.000000 0.000000 

-0.000000 -0.000000 0.000000 
0.000000 -0.000000 0.000000 
0.000000 0.000000 0.000000 

-0.000000 0.000000 0.000000 
0.000000 -0.000000 0.000000 
0.000000 0.000000 0.000000 

0.000000 -0.000000 0.000000 
0.000000 0.000000 0.000000 
0.000000 0.000000 0.000000 

0.000000 0.000000 0.000000 
0.000000 -0.000000 0.000000 
0.000000 0.000000 0.000000 

-0.000000 0.000000 0.000000 
0.000000 -0.000000 0.000000 
0.000000 0.000000 0.000000 

-0.000000 -0.000000 0.000000 
0.000000 -0.000000 0.000000 
0.000000 0.000000 0.000000 

-0.000000 0.000000 0.000000 
0.000000 -0.000000 0.000000 
0.000000 0.000000 0.000000 

-0.000000 0.000000 0.000000 