# vtk DataFile Version 3.0 
vtk output 
ASCII 
DATASET UNSTRUCTURED_GRID 
POINTS 175 float 
-0.026061 -0.802085 0.000000 
-0.106992 -0.734030 0.000000 
-0.054870 -0.742262 0.000000 
-0.028809 -0.696379 0.000000 
-0.186430 -0.669954 0.000000 
-0.137056 -0.672480 0.000000 
-0.114311 -0.618833 0.000000 
-0.058186 -0.634499 0.000000 
-0.029377 -0.594321 0.000000 
-0.265318 -0.606798 0.000000 
-0.217198 -0.607598 0.000000 
-0.196633 -0.550301 0.000000 
-0.143120 -0.559010 0.000000 
-0.116563 -0.511742 0.000000 
-0.058945 -0.531387 0.000000 
-0.029568 -0.493267 0.000000 
-0.344206 -0.543642 0.000000 
-0.296791 -0.543635 0.000000 
-0.278030 -0.483692 0.000000 
-0.225992 -0.489559 0.000000 
-0.201664 -0.437442 0.000000 
-0.145749 -0.450916 0.000000 
-0.117890 -0.406573 0.000000 
-0.059328 -0.429279 0.000000 
-0.029759 -0.392213 0.000000 
-0.058559 -0.842836 0.000000 
-0.162226 -0.863678 0.000000 
-0.123292 -0.828061 0.000000 
-0.142917 -0.779077 0.000000 
-0.261851 -0.885835 0.000000 
-0.229092 -0.848808 0.000000 
-0.256854 -0.797576 0.000000 
-0.209613 -0.763464 0.000000 
-0.223062 -0.715890 0.000000 
-0.360414 -0.908135 0.000000 
-0.329787 -0.871012 0.000000 
-0.361761 -0.819210 0.000000 
-0.321587 -0.782801 0.000000 
-0.341985 -0.732567 0.000000 
-0.290702 -0.699768 0.000000 
-0.302189 -0.653033 0.000000 
-0.458977 -0.930435 0.000000 
-0.429420 -0.893360 0.000000 
-0.464588 -0.841319 0.000000 
-0.427556 -0.804291 0.000000 
-0.453135 -0.752776 0.000000 
-0.407738 -0.717461 0.000000 
-0.425037 -0.668033 0.000000 
-0.370772 -0.636404 0.000000 
-0.381315 -0.590176 0.000000 
-0.046960 -0.893651 0.000000 
-0.095301 -0.987697 0.000000 
-0.098873 -0.935050 0.000000 
-0.149405 -0.919852 0.000000 
-0.140093 -1.079401 0.000000 
-0.148617 -1.030703 0.000000 
-0.205981 -1.020465 0.000000 
-0.203197 -0.962262 0.000000 
-0.248777 -0.943115 0.000000 
-0.184111 -1.170364 0.000000 
-0.194039 -1.123273 0.000000 
-0.254475 -1.115974 0.000000 
-0.257893 -1.061864 0.000000 
-0.309886 -1.046492 0.000000 
-0.303554 -0.985946 0.000000 
-0.347255 -0.965789 0.000000 
-0.228129 -1.261328 0.000000 
-0.238687 -1.215104 0.000000 
-0.301302 -1.210152 0.000000 
-0.307162 -1.158113 0.000000 
-0.363386 -1.145992 0.000000 
-0.362692 -1.088481 0.000000 
-0.412122 -1.071187 0.000000 
-0.403017 -1.009041 0.000000 
-0.445733 -0.988462 0.000000 
-0.000000 -0.916266 0.000000 
0.043388 -1.012696 0.000000 
-0.000000 -0.982664 0.000000 
-0.043388 -1.012696 0.000000 
0.087158 -1.104893 0.000000 
0.043769 -1.081195 0.000000 
-0.000000 -1.119660 0.000000 
-0.043769 -1.081195 0.000000 
-0.087158 -1.104893 0.000000 
0.130831 -1.196023 0.000000 
0.087824 -1.174424 0.000000 
0.044436 -1.217124 0.000000 
-0.000000 -1.186059 0.000000 
-0.044436 -1.217124 0.000000 
-0.087824 -1.174424 0.000000 
-0.130831 -1.196023 0.000000 
0.174505 -1.287152 0.000000 
0.131782 -1.266586 0.000000 
0.088871 -1.312453 0.000000 
0.044532 -1.284589 0.000000 
-0.000000 -1.320989 0.000000 
-0.044532 -1.284589 0.000000 
-0.088871 -1.312453 0.000000 
-0.131782 -1.266586 0.000000 
-0.174505 -1.287152 0.000000 
0.046960 -0.893651 0.000000 
0.149405 -0.919852 0.000000 
0.098873 -0.935050 0.000000 
0.095301 -0.987697 0.000000 
0.248777 -0.943115 0.000000 
0.203197 -0.962262 0.000000 
0.205981 -1.020465 0.000000 
0.148617 -1.030703 0.000000 
0.140093 -1.079401 0.000000 
0.347255 -0.965789 0.000000 
0.303554 -0.985946 0.000000 
0.309886 -1.046492 0.000000 
0.257893 -1.061864 0.000000 
0.254475 -1.115974 0.000000 
0.194039 -1.123273 0.000000 
0.184111 -1.170364 0.000000 
0.445733 -0.988462 0.000000 
0.403017 -1.009041 0.000000 
0.412122 -1.071187 0.000000 
0.362692 -1.088481 0.000000 
0.363386 -1.145992 0.000000 
0.307162 -1.158113 0.000000 
0.301302 -1.210152 0.000000 
0.238687 -1.215104 0.000000 
0.228129 -1.261328 0.000000 
0.058559 -0.842836 0.000000 
0.142917 -0.779077 0.000000 
0.123292 -0.828061 0.000000 
0.162226 -0.863678 0.000000 
0.223062 -0.715890 0.000000 
0.209613 -0.763464 0.000000 
0.256854 -0.797576 0.000000 
0.229092 -0.848808 0.000000 
0.261851 -0.885835 0.000000 
0.302189 -0.653033 0.000000 
0.290702 -0.699768 0.000000 
0.341985 -0.732567 0.000000 
0.321587 -0.782801 0.000000 
0.361761 -0.819210 0.000000 
0.329787 -0.871012 0.000000 
0.360414 -0.908135 0.000000 
0.381315 -0.590176 0.000000 
0.370772 -0.636404 0.000000 
0.425037 -0.668033 0.000000 
0.407738 -0.717461 0.000000 
0.453135 -0.752776 0.000000 
0.427556 -0.804291 0.000000 
0.464588 -0.841319 0.000000 
0.429420 -0.893360 0.000000 
0.458977 -0.930435 0.000000 
0.026061 -0.802085 0.000000 
0.028809 -0.696379 0.000000 
0.054870 -0.742262 0.000000 
0.106992 -0.734030 0.000000 
0.029377 -0.594321 0.000000 
0.058186 -0.634499 0.000000 
0.114311 -0.618833 0.000000 
0.137056 -0.672480 0.000000 
0.186430 -0.669954 0.000000 
0.029568 -0.493267 0.000000 
0.058945 -0.531387 0.000000 
0.116563 -0.511742 0.000000 
0.143120 -0.559010 0.000000 
0.196633 -0.550301 0.000000 
0.217198 -0.607598 0.000000 
0.265318 -0.606798 0.000000 
0.029759 -0.392213 0.000000 
0.059328 -0.429279 0.000000 
0.117890 -0.406573 0.000000 
0.145749 -0.450916 0.000000 
0.201664 -0.437442 0.000000 
0.225992 -0.489559 0.000000 
0.278030 -0.483692 0.000000 
0.296791 -0.543635 0.000000 
0.344206 -0.543642 0.000000 
CELLS 175 350 
1 0 
1 1 
1 2 
1 3 
1 4 
1 5 
1 6 
1 7 
1 8 
1 9 
1 10 
1 11 
1 12 
1 13 
1 14 
1 15 
1 16 
1 17 
1 18 
1 19 
1 20 
1 21 
1 22 
1 23 
1 24 
1 25 
1 26 
1 27 
1 28 
1 29 
1 30 
1 31 
1 32 
1 33 
1 34 
1 35 
1 36 
1 37 
1 38 
1 39 
1 40 
1 41 
1 42 
1 43 
1 44 
1 45 
1 46 
1 47 
1 48 
1 49 
1 50 
1 51 
1 52 
1 53 
1 54 
1 55 
1 56 
1 57 
1 58 
1 59 
1 60 
1 61 
1 62 
1 63 
1 64 
1 65 
1 66 
1 67 
1 68 
1 69 
1 70 
1 71 
1 72 
1 73 
1 74 
1 75 
1 76 
1 77 
1 78 
1 79 
1 80 
1 81 
1 82 
1 83 
1 84 
1 85 
1 86 
1 87 
1 88 
1 89 
1 90 
1 91 
1 92 
1 93 
1 94 
1 95 
1 96 
1 97 
1 98 
1 99 
1 100 
1 101 
1 102 
1 103 
1 104 
1 105 
1 106 
1 107 
1 108 
1 109 
1 110 
1 111 
1 112 
1 113 
1 114 
1 115 
1 116 
1 117 
1 118 
1 119 
1 120 
1 121 
1 122 
1 123 
1 124 
1 125 
1 126 
1 127 
1 128 
1 129 
1 130 
1 131 
1 132 
1 133 
1 134 
1 135 
1 136 
1 137 
1 138 
1 139 
1 140 
1 141 
1 142 
1 143 
1 144 
1 145 
1 146 
1 147 
1 148 
1 149 
1 150 
1 151 
1 152 
1 153 
1 154 
1 155 
1 156 
1 157 
1 158 
1 159 
1 160 
1 161 
1 162 
1 163 
1 164 
1 165 
1 166 
1 167 
1 168 
1 169 
1 170 
1 171 
1 172 
1 173 
1 174 
CELL_TYPES 175 
1 
1 
1 
1 
1 
1 
1 
1 
1 
1 
1 
1 
1 
1 
1 
1 
1 
1 
1 
1 
1 
1 
1 
1 
1 
1 
1 
1 
1 
1 
1 
1 
1 
1 
1 
1 
1 
1 
1 
1 
1 
1 
1 
1 
1 
1 
1 
1 
1 
1 
1 
1 
1 
1 
1 
1 
1 
1 
1 
1 
1 
1 
1 
1 
1 
1 
1 
1 
1 
1 
1 
1 
1 
1 
1 
1 
1 
1 
1 
1 
1 
1 
1 
1 
1 
1 
1 
1 
1 
1 
1 
1 
1 
1 
1 
1 
1 
1 
1 
1 
1 
1 
1 
1 
1 
1 
1 
1 
1 
1 
1 
1 
1 
1 
1 
1 
1 
1 
1 
1 
1 
1 
1 
1 
1 
1 
1 
1 
1 
1 
1 
1 
1 
1 
1 
1 
1 
1 
1 
1 
1 
1 
1 
1 
1 
1 
1 
1 
1 
1 
1 
1 
1 
1 
1 
1 
1 
1 
1 
1 
1 
1 
1 
1 
1 
1 
1 
1 
1 
1 
1 
1 
1 
1 
1 
POINT_DATA 175 
VECTORS X_GC float 
-0.026061 -0.802085 0.000000 
-0.106992 -0.734030 0.000000 
-0.054870 -0.742262 0.000000 
-0.028809 -0.696379 0.000000 
-0.186430 -0.669954 0.000000 
-0.137056 -0.672480 0.000000 
-0.114311 -0.618833 0.000000 
-0.058186 -0.634499 0.000000 
-0.029377 -0.594321 0.000000 
-0.265318 -0.606798 0.000000 
-0.217198 -0.607598 0.000000 
-0.196633 -0.550301 0.000000 
-0.143120 -0.559010 0.000000 
-0.116563 -0.511742 0.000000 
-0.058945 -0.531387 0.000000 
-0.029568 -0.493267 0.000000 
-0.344206 -0.543642 0.000000 
-0.296791 -0.543635 0.000000 
-0.278030 -0.483692 0.000000 
-0.225992 -0.489559 0.000000 
-0.201664 -0.437442 0.000000 
-0.145749 -0.450916 0.000000 
-0.117890 -0.406573 0.000000 
-0.059328 -0.429279 0.000000 
-0.029759 -0.392213 0.000000 
-0.058559 -0.842836 0.000000 
-0.162226 -0.863678 0.000000 
-0.123292 -0.828061 0.000000 
-0.142917 -0.779077 0.000000 
-0.261851 -0.885835 0.000000 
-0.229092 -0.848808 0.000000 
-0.256854 -0.797576 0.000000 
-0.209613 -0.763464 0.000000 
-0.223062 -0.715890 0.000000 
-0.360414 -0.908135 0.000000 
-0.329787 -0.871012 0.000000 
-0.361761 -0.819210 0.000000 
-0.321587 -0.782801 0.000000 
-0.341985 -0.732567 0.000000 
-0.290702 -0.699768 0.000000 
-0.302189 -0.653033 0.000000 
-0.458977 -0.930435 0.000000 
-0.429420 -0.893360 0.000000 
-0.464588 -0.841319 0.000000 
-0.427556 -0.804291 0.000000 
-0.453135 -0.752776 0.000000 
-0.407738 -0.717461 0.000000 
-0.425037 -0.668033 0.000000 
-0.370772 -0.636404 0.000000 
-0.381315 -0.590176 0.000000 
-0.046960 -0.893651 0.000000 
-0.095301 -0.987697 0.000000 
-0.098873 -0.935050 0.000000 
-0.149405 -0.919852 0.000000 
-0.140093 -1.079401 0.000000 
-0.148617 -1.030703 0.000000 
-0.205981 -1.020465 0.000000 
-0.203197 -0.962262 0.000000 
-0.248777 -0.943115 0.000000 
-0.184111 -1.170364 0.000000 
-0.194039 -1.123273 0.000000 
-0.254475 -1.115974 0.000000 
-0.257893 -1.061864 0.000000 
-0.309886 -1.046492 0.000000 
-0.303554 -0.985946 0.000000 
-0.347255 -0.965789 0.000000 
-0.228129 -1.261328 0.000000 
-0.238687 -1.215104 0.000000 
-0.301302 -1.210152 0.000000 
-0.307162 -1.158113 0.000000 
-0.363386 -1.145992 0.000000 
-0.362692 -1.088481 0.000000 
-0.412122 -1.071187 0.000000 
-0.403017 -1.009041 0.000000 
-0.445733 -0.988462 0.000000 
-0.000000 -0.916266 0.000000 
0.043388 -1.012696 0.000000 
-0.000000 -0.982664 0.000000 
-0.043388 -1.012696 0.000000 
0.087158 -1.104893 0.000000 
0.043769 -1.081195 0.000000 
-0.000000 -1.119660 0.000000 
-0.043769 -1.081195 0.000000 
-0.087158 -1.104893 0.000000 
0.130831 -1.196023 0.000000 
0.087824 -1.174424 0.000000 
0.044436 -1.217124 0.000000 
-0.000000 -1.186059 0.000000 
-0.044436 -1.217124 0.000000 
-0.087824 -1.174424 0.000000 
-0.130831 -1.196023 0.000000 
0.174505 -1.287152 0.000000 
0.131782 -1.266586 0.000000 
0.088871 -1.312453 0.000000 
0.044532 -1.284589 0.000000 
-0.000000 -1.320989 0.000000 
-0.044532 -1.284589 0.000000 
-0.088871 -1.312453 0.000000 
-0.131782 -1.266586 0.000000 
-0.174505 -1.287152 0.000000 
0.046960 -0.893651 0.000000 
0.149405 -0.919852 0.000000 
0.098873 -0.935050 0.000000 
0.095301 -0.987697 0.000000 
0.248777 -0.943115 0.000000 
0.203197 -0.962262 0.000000 
0.205981 -1.020465 0.000000 
0.148617 -1.030703 0.000000 
0.140093 -1.079401 0.000000 
0.347255 -0.965789 0.000000 
0.303554 -0.985946 0.000000 
0.309886 -1.046492 0.000000 
0.257893 -1.061864 0.000000 
0.254475 -1.115974 0.000000 
0.194039 -1.123273 0.000000 
0.184111 -1.170364 0.000000 
0.445733 -0.988462 0.000000 
0.403017 -1.009041 0.000000 
0.412122 -1.071187 0.000000 
0.362692 -1.088481 0.000000 
0.363386 -1.145992 0.000000 
0.307162 -1.158113 0.000000 
0.301302 -1.210152 0.000000 
0.238687 -1.215104 0.000000 
0.228129 -1.261328 0.000000 
0.058559 -0.842836 0.000000 
0.142917 -0.779077 0.000000 
0.123292 -0.828061 0.000000 
0.162226 -0.863678 0.000000 
0.223062 -0.715890 0.000000 
0.209613 -0.763464 0.000000 
0.256854 -0.797576 0.000000 
0.229092 -0.848808 0.000000 
0.261851 -0.885835 0.000000 
0.302189 -0.653033 0.000000 
0.290702 -0.699768 0.000000 
0.341985 -0.732567 0.000000 
0.321587 -0.782801 0.000000 
0.361761 -0.819210 0.000000 
0.329787 -0.871012 0.000000 
0.360414 -0.908135 0.000000 
0.381315 -0.590176 0.000000 
0.370772 -0.636404 0.000000 
0.425037 -0.668033 0.000000 
0.407738 -0.717461 0.000000 
0.453135 -0.752776 0.000000 
0.427556 -0.804291 0.000000 
0.464588 -0.841319 0.000000 
0.429420 -0.893360 0.000000 
0.458977 -0.930435 0.000000 
0.026061 -0.802085 0.000000 
0.028809 -0.696379 0.000000 
0.054870 -0.742262 0.000000 
0.106992 -0.734030 0.000000 
0.029377 -0.594321 0.000000 
0.058186 -0.634499 0.000000 
0.114311 -0.618833 0.000000 
0.137056 -0.672480 0.000000 
0.186430 -0.669954 0.000000 
0.029568 -0.493267 0.000000 
0.058945 -0.531387 0.000000 
0.116563 -0.511742 0.000000 
0.143120 -0.559010 0.000000 
0.196633 -0.550301 0.000000 
0.217198 -0.607598 0.000000 
0.265318 -0.606798 0.000000 
0.029759 -0.392213 0.000000 
0.059328 -0.429279 0.000000 
0.117890 -0.406573 0.000000 
0.145749 -0.450916 0.000000 
0.201664 -0.437442 0.000000 
0.225992 -0.489559 0.000000 
0.278030 -0.483692 0.000000 
0.296791 -0.543635 0.000000 
0.344206 -0.543642 0.000000 
VECTORS X_EC float 
0.338794 -0.671853 0.000000 
-0.609100 0.409399 0.000000 
0.713312 0.520539 0.000000 
0.374519 -0.098890 0.000000 
0.423588 -0.455621 0.000000 
-0.218274 -0.421517 0.000000 
-0.513962 0.854244 0.000000 
0.756418 -0.934270 0.000000 
0.381900 0.523338 0.000000 
-0.550868 0.691776 0.000000 
0.823577 0.702572 0.000000 
0.556234 -0.070932 0.000000 
-0.139443 0.046636 0.000000 
-0.484677 -0.591488 0.000000 
0.766286 -0.326273 0.000000 
0.384386 -0.840893 0.000000 
0.474677 -0.160827 0.000000 
-0.141715 -0.160923 0.000000 
-0.385608 -0.970152 0.000000 
0.937896 -0.890956 0.000000 
0.621631 0.405464 0.000000 
-0.105264 0.587363 0.000000 
-0.467428 -0.011263 0.000000 
0.771260 0.295265 0.000000 
0.386873 -0.205124 0.000000 
0.761262 -0.121719 0.000000 
0.108942 0.159658 0.000000 
-0.397202 -0.321181 0.000000 
-0.142083 -0.982456 0.000000 
-0.595936 0.458769 0.000000 
0.978194 -0.041097 0.000000 
-0.660903 -0.732722 0.000000 
0.724964 0.806758 0.000000 
0.899809 0.164509 0.000000 
0.685384 0.759821 0.000000 
0.287229 0.258662 0.000000 
0.702895 -0.440666 0.000000 
0.180633 -0.932185 0.000000 
0.445811 0.389656 0.000000 
-0.220880 -0.053130 0.000000 
-0.071546 -0.684056 0.000000 
-0.033296 -0.939127 0.000000 
-0.417537 0.560364 0.000000 
0.039645 -0.142199 0.000000 
-0.441768 -0.642070 0.000000 
-0.109248 0.662479 0.000000 
-0.699407 0.185724 0.000000 
-0.474522 -0.481556 0.000000 
0.820030 -0.908549 0.000000 
0.957100 0.467379 0.000000 
0.610485 0.564288 0.000000 
-0.761092 -0.166093 0.000000 
-0.714655 -0.876830 0.000000 
-0.057734 0.918003 0.000000 
-0.178789 -0.928089 0.000000 
-0.067979 0.414485 0.000000 
0.677748 0.276282 0.000000 
0.641556 -0.509463 0.000000 
-0.765897 -0.767942 0.000000 
0.393446 0.299921 0.000000 
0.522510 -0.335809 0.000000 
-0.691820 -0.434354 0.000000 
-0.647393 0.835164 0.000000 
0.028512 0.627637 0.000000 
-0.053800 -0.189723 0.000000 
0.514316 -0.461854 0.000000 
0.965681 -0.472070 0.000000 
-0.897068 0.903901 0.000000 
-0.083078 0.837048 0.000000 
-0.006893 0.134523 0.000000 
0.724017 -0.029110 0.000000 
0.714996 -0.805513 0.000000 
-0.642413 0.961029 0.000000 
-0.760780 0.122049 0.000000 
-0.205471 -0.155766 0.000000 
0.000000 0.869589 0.000000 
-0.564049 0.171402 0.000000 
0.000000 -0.234034 0.000000 
0.564049 0.171402 0.000000 
0.866949 -0.583942 0.000000 
-0.569003 -0.903873 0.000000 
0.000000 -0.384585 0.000000 
0.569003 -0.903873 0.000000 
-0.866949 -0.583942 0.000000 
0.299194 0.646308 0.000000 
0.858290 0.354724 0.000000 
-0.577662 0.931170 0.000000 
0.000000 0.511792 0.000000 
0.577662 0.931170 0.000000 
-0.858290 0.354724 0.000000 
-0.299194 0.646308 0.000000 
-0.268560 -0.123442 0.000000 
0.286830 -0.401084 0.000000 
0.844677 0.218114 0.000000 
-0.578910 -0.158048 0.000000 
0.000000 0.333356 0.000000 
0.578910 -0.158048 0.000000 
-0.844677 0.218114 0.000000 
-0.286830 -0.401084 0.000000 
0.268560 -0.123442 0.000000 
-0.610485 0.564288 0.000000 
0.057734 0.918003 0.000000 
0.714655 -0.876830 0.000000 
0.761092 -0.166093 0.000000 
0.765897 -0.767942 0.000000 
-0.641556 -0.509463 0.000000 
-0.677748 0.276282 0.000000 
0.067979 0.414485 0.000000 
0.178789 -0.928089 0.000000 
-0.514316 -0.461854 0.000000 
0.053800 -0.189723 0.000000 
-0.028512 0.627637 0.000000 
0.647393 0.835164 0.000000 
0.691820 -0.434354 0.000000 
-0.522510 -0.335809 0.000000 
-0.393446 0.299921 0.000000 
0.205471 -0.155766 0.000000 
0.760780 0.122049 0.000000 
0.642413 0.961029 0.000000 
-0.714996 -0.805513 0.000000 
-0.724017 -0.029110 0.000000 
0.006894 0.134523 0.000000 
0.083078 0.837048 0.000000 
0.897068 0.903901 0.000000 
-0.965681 -0.472070 0.000000 
-0.761262 -0.121719 0.000000 
0.142083 -0.982456 0.000000 
0.397202 -0.321181 0.000000 
-0.108942 0.159658 0.000000 
-0.899809 0.164509 0.000000 
-0.724964 0.806758 0.000000 
0.660903 -0.732722 0.000000 
-0.978194 -0.041097 0.000000 
0.595936 0.458769 0.000000 
0.071546 -0.684056 0.000000 
0.220880 -0.053130 0.000000 
-0.445811 0.389656 0.000000 
-0.180633 -0.932185 0.000000 
-0.702895 -0.440666 0.000000 
-0.287229 0.258662 0.000000 
-0.685384 0.759821 0.000000 
-0.957100 0.467379 0.000000 
-0.820030 -0.908549 0.000000 
0.474522 -0.481556 0.000000 
0.699407 0.185724 0.000000 
0.109248 0.662479 0.000000 
0.441768 -0.642070 0.000000 
-0.039645 -0.142199 0.000000 
0.417537 0.560364 0.000000 
0.033296 -0.939127 0.000000 
-0.338794 -0.671853 0.000000 
-0.374519 -0.098890 0.000000 
-0.713312 0.520539 0.000000 
0.609100 0.409399 0.000000 
-0.381900 0.523338 0.000000 
-0.756418 -0.934270 0.000000 
0.513962 0.854244 0.000000 
0.218274 -0.421517 0.000000 
-0.423588 -0.455621 0.000000 
-0.384386 -0.840893 0.000000 
-0.766286 -0.326273 0.000000 
0.484677 -0.591488 0.000000 
0.139443 0.046636 0.000000 
-0.556234 -0.070932 0.000000 
-0.823577 0.702572 0.000000 
0.550868 0.691776 0.000000 
-0.386873 -0.205124 0.000000 
-0.771260 0.295265 0.000000 
0.467428 -0.011263 0.000000 
0.105264 0.587363 0.000000 
-0.621631 0.405464 0.000000 
-0.937896 -0.890956 0.000000 
0.385608 -0.970152 0.000000 
0.141715 -0.160923 0.000000 
-0.474677 -0.160827 0.000000 
CELL_DATA 175 
SCALARS MASS float 
LOOKUP_TABLE default 
0.078183 
0.086427 
0.094672 
0.086427 
0.088131 
0.092111 
0.085854 
0.092111 
0.088131 
0.088705 
0.091000 
0.086983 
0.091556 
0.086983 
0.091000 
0.088705 
0.089278 
0.091574 
0.089278 
0.092722 
0.089278 
0.092722 
0.089278 
0.091574 
0.089278 
0.078183 
0.086427 
0.094672 
0.086427 
0.088131 
0.092111 
0.085854 
0.092111 
0.088131 
0.088705 
0.091000 
0.086983 
0.091556 
0.086983 
0.091000 
0.088705 
0.089278 
0.091574 
0.089278 
0.092722 
0.089278 
0.092722 
0.089278 
0.091574 
0.089278 
0.078183 
0.086427 
0.094672 
0.086427 
0.088131 
0.092111 
0.085854 
0.092111 
0.088131 
0.088705 
0.091000 
0.086983 
0.091556 
0.086983 
0.091000 
0.088705 
0.089278 
0.091574 
0.089278 
0.092722 
0.089278 
0.092722 
0.089278 
0.091574 
0.089278 
0.078183 
0.086427 
0.094672 
0.086427 
0.088131 
0.092111 
0.085854 
0.092111 
0.088131 
0.088705 
0.091000 
0.086983 
0.091556 
0.086983 
0.091000 
0.088705 
0.089278 
0.091574 
0.089278 
0.092722 
0.089278 
0.092722 
0.089278 
0.091574 
0.089278 
0.078183 
0.086427 
0.094672 
0.086427 
0.088131 
0.092111 
0.085854 
0.092111 
0.088131 
0.088705 
0.091000 
0.086983 
0.091556 
0.086983 
0.091000 
0.088705 
0.089278 
0.091574 
0.089278 
0.092722 
0.089278 
0.092722 
0.089278 
0.091574 
0.089278 
0.078183 
0.086427 
0.094672 
0.086427 
0.088131 
0.092111 
0.085854 
0.092111 
0.088131 
0.088705 
0.091000 
0.086983 
0.091556 
0.086983 
0.091000 
0.088705 
0.089278 
0.091574 
0.089278 
0.092722 
0.089278 
0.092722 
0.089278 
0.091574 
0.089278 
0.078183 
0.086427 
0.094672 
0.086427 
0.088131 
0.092111 
0.085854 
0.092111 
0.088131 
0.088705 
0.091000 
0.086983 
0.091556 
0.086983 
0.091000 
0.088705 
0.089278 
0.091574 
0.089278 
0.092722 
0.089278 
0.092722 
0.089278 
0.091574 
0.089278 
SCALARS MASS float 
LOOKUP_TABLE default 
0.078183 
0.086427 
0.094672 
0.086427 
0.088131 
0.092111 
0.085854 
0.092111 
0.088131 
0.088705 
0.091000 
0.086983 
0.091556 
0.086983 
0.091000 
0.088705 
0.089278 
0.091574 
0.089278 
0.092722 
0.089278 
0.092722 
0.089278 
0.091574 
0.089278 
0.078183 
0.086427 
0.094672 
0.086427 
0.088131 
0.092111 
0.085854 
0.092111 
0.088131 
0.088705 
0.091000 
0.086983 
0.091556 
0.086983 
0.091000 
0.088705 
0.089278 
0.091574 
0.089278 
0.092722 
0.089278 
0.092722 
0.089278 
0.091574 
0.089278 
0.078183 
0.086427 
0.094672 
0.086427 
0.088131 
0.092111 
0.085854 
0.092111 
0.088131 
0.088705 
0.091000 
0.086983 
0.091556 
0.086983 
0.091000 
0.088705 
0.089278 
0.091574 
0.089278 
0.092722 
0.089278 
0.092722 
0.089278 
0.091574 
0.089278 
0.078183 
0.086427 
0.094672 
0.086427 
0.088131 
0.092111 
0.085854 
0.092111 
0.088131 
0.088705 
0.091000 
0.086983 
0.091556 
0.086983 
0.091000 
0.088705 
0.089278 
0.091574 
0.089278 
0.092722 
0.089278 
0.092722 
0.089278 
0.091574 
0.089278 
0.078183 
0.086427 
0.094672 
0.086427 
0.088131 
0.092111 
0.085854 
0.092111 
0.088131 
0.088705 
0.091000 
0.086983 
0.091556 
0.086983 
0.091000 
0.088705 
0.089278 
0.091574 
0.089278 
0.092722 
0.089278 
0.092722 
0.089278 
0.091574 
0.089278 
0.078183 
0.086427 
0.094672 
0.086427 
0.088131 
0.092111 
0.085854 
0.092111 
0.088131 
0.088705 
0.091000 
0.086983 
0.091556 
0.086983 
0.091000 
0.088705 
0.089278 
0.091574 
0.089278 
0.092722 
0.089278 
0.092722 
0.089278 
0.091574 
0.089278 
0.078183 
0.086427 
0.094672 
0.086427 
0.088131 
0.092111 
0.085854 
0.092111 
0.088131 
0.088705 
0.091000 
0.086983 
0.091556 
0.086983 
0.091000 
0.088705 
0.089278 
0.091574 
0.089278 
0.092722 
0.089278 
0.092722 
0.089278 
0.091574 
0.089278 
SCALARS DENSITY float 
LOOKUP_TABLE default 
20.000000 
20.000000 
20.000000 
20.000000 
20.000000 
20.000000 
20.000000 
20.000000 
20.000000 
20.000000 
20.000000 
20.000000 
20.000000 
20.000000 
20.000000 
20.000000 
20.000000 
20.000000 
20.000000 
20.000000 
20.000000 
20.000000 
20.000000 
20.000000 
20.000000 
20.000000 
20.000000 
20.000000 
20.000000 
20.000000 
20.000000 
20.000000 
20.000000 
20.000000 
20.000000 
20.000000 
20.000000 
20.000000 
20.000000 
20.000000 
20.000000 
20.000000 
20.000000 
20.000000 
20.000000 
20.000000 
20.000000 
20.000000 
20.000000 
20.000000 
20.000000 
20.000000 
20.000000 
20.000000 
20.000000 
20.000000 
20.000000 
20.000000 
20.000000 
20.000000 
20.000000 
20.000000 
20.000000 
20.000000 
20.000000 
20.000000 
20.000000 
20.000000 
20.000000 
20.000000 
20.000000 
20.000000 
20.000000 
20.000000 
20.000000 
20.000000 
20.000000 
20.000000 
20.000000 
20.000000 
20.000000 
20.000000 
20.000000 
20.000000 
20.000000 
20.000000 
20.000000 
20.000000 
20.000000 
20.000000 
20.000000 
20.000000 
20.000000 
20.000000 
20.000000 
20.000000 
20.000000 
20.000000 
20.000000 
20.000000 
20.000000 
20.000000 
20.000000 
20.000000 
20.000000 
20.000000 
20.000000 
20.000000 
20.000000 
20.000000 
20.000000 
20.000000 
20.000000 
20.000000 
20.000000 
20.000000 
20.000000 
20.000000 
20.000000 
20.000000 
20.000000 
20.000000 
20.000000 
20.000000 
20.000000 
20.000000 
20.000000 
20.000000 
20.000000 
20.000000 
20.000000 
20.000000 
20.000000 
20.000000 
20.000000 
20.000000 
20.000000 
20.000000 
20.000000 
20.000000 
20.000000 
20.000000 
20.000000 
20.000000 
20.000000 
20.000000 
20.000000 
20.000000 
20.000000 
20.000000 
20.000000 
20.000000 
20.000000 
20.000000 
20.000000 
20.000000 
20.000000 
20.000000 
20.000000 
20.000000 
20.000000 
20.000000 
20.000000 
20.000000 
20.000000 
20.000000 
20.000000 
20.000000 
20.000000 
20.000000 
20.000000 
20.000000 
20.000000 
20.000000 
20.000000 
SCALARS ELEM_i float 
LOOKUP_TABLE default 
176 
204 
177 
177 
204 
204 
205 
177 
178 
232 
205 
205 
205 
205 
178 
178 
232 
232 
232 
205 
206 
206 
206 
179 
179 
176 
203 
203 
203 
230 
203 
230 
204 
204 
230 
230 
230 
230 
231 
231 
231 
256 
257 
257 
257 
258 
258 
258 
231 
232 
176 
202 
202 
203 
201 
202 
202 
202 
229 
201 
201 
228 
229 
229 
229 
229 
200 
228 
228 
228 
228 
228 
256 
256 
256 
176 
175 
175 
175 
147 
174 
174 
174 
201 
147 
147 
174 
174 
174 
201 
201 
146 
146 
146 
173 
173 
173 
200 
200 
200 
176 
149 
148 
148 
121 
148 
148 
148 
147 
121 
121 
121 
121 
120 
147 
147 
94 
94 
94 
120 
120 
120 
120 
120 
146 
176 
149 
149 
149 
150 
150 
122 
149 
122 
123 
123 
123 
122 
122 
122 
122 
124 
123 
96 
96 
96 
95 
95 
95 
94 
176 
177 
177 
150 
178 
177 
151 
150 
150 
178 
178 
151 
151 
151 
151 
124 
179 
179 
152 
152 
152 
151 
124 
124 
124 
VECTORS VELOCITY float 
0.000000 -4.098226 0.000000 
0.000000 -4.098226 0.000000 
0.000000 -4.098226 0.000000 
0.000000 -4.098226 0.000000 
0.000000 -4.098226 0.000000 
0.000000 -4.098226 0.000000 
0.000000 -4.098226 0.000000 
0.000000 -4.098226 0.000000 
0.000000 -4.098226 0.000000 
0.000000 -4.098226 0.000000 
0.000000 -4.098226 0.000000 
0.000000 -4.098226 0.000000 
0.000000 -4.098226 0.000000 
0.000000 -4.098226 0.000000 
0.000000 -4.098226 0.000000 
0.000000 -4.098226 0.000000 
0.000000 -4.098226 0.000000 
0.000000 -4.098226 0.000000 
0.000000 -4.098226 0.000000 
0.000000 -4.098226 0.000000 
0.000000 -4.098226 0.000000 
0.000000 -4.098226 0.000000 
0.000000 -4.098226 0.000000 
-0.000000 -4.098226 0.000000 
-0.000000 -4.098226 0.000000 
0.000000 -4.098226 0.000000 
-0.000000 -4.098226 0.000000 
-0.000000 -4.098226 0.000000 
0.000000 -4.098226 0.000000 
-0.000000 -4.098226 0.000000 
-0.000000 -4.098226 0.000000 
0.000000 -4.098226 0.000000 
0.000000 -4.098226 0.000000 
0.000000 -4.098226 0.000000 
0.000000 -4.098226 0.000000 
0.000000 -4.098226 0.000000 
0.000000 -4.098226 0.000000 
0.000000 -4.098226 0.000000 
0.000000 -4.098226 0.000000 
0.000000 -4.098226 0.000000 
0.000000 -4.098226 0.000000 
0.000000 -4.098226 0.000000 
0.000000 -4.098226 0.000000 
0.000000 -4.098226 0.000000 
0.000000 -4.098226 0.000000 
-0.000000 -4.098226 0.000000 
0.000000 -4.098226 0.000000 
0.000000 -4.098226 0.000000 
0.000000 -4.098226 0.000000 
0.000000 -4.098226 0.000000 
0.000000 -4.098226 0.000000 
-0.000000 -4.098226 0.000000 
-0.000000 -4.098226 0.000000 
-0.000000 -4.098226 0.000000 
-0.000000 -4.098226 0.000000 
-0.000000 -4.098226 0.000000 
-0.000000 -4.098226 0.000000 
-0.000000 -4.098226 0.000000 
-0.000000 -4.098226 0.000000 
-0.000000 -4.098226 0.000000 
-0.000000 -4.098226 0.000000 
-0.000000 -4.098226 0.000000 
-0.000000 -4.098226 0.000000 
0.000000 -4.098226 0.000000 
0.000000 -4.098226 0.000000 
0.000000 -4.098226 0.000000 
0.000000 -4.098226 0.000000 
0.000000 -4.098226 0.000000 
0.000000 -4.098226 0.000000 
-0.000000 -4.098226 0.000000 
0.000000 -4.098226 0.000000 
0.000000 -4.098226 0.000000 
-0.000000 -4.098226 0.000000 
0.000000 -4.098226 0.000000 
0.000000 -4.098226 0.000000 
0.000000 -4.098226 0.000000 
-0.000000 -4.098226 0.000000 
-0.000000 -4.098226 0.000000 
-0.000000 -4.098226 0.000000 
-0.000000 -4.098226 0.000000 
-0.000000 -4.098226 0.000000 
-0.000000 -4.098226 0.000000 
-0.000000 -4.098226 0.000000 
0.000000 -4.098226 0.000000 
0.000000 -4.098226 0.000000 
-0.000000 -4.098226 0.000000 
0.000000 -4.098226 0.000000 
-0.000000 -4.098226 0.000000 
0.000000 -4.098226 0.000000 
0.000000 -4.098226 0.000000 
0.000000 -4.098226 0.000000 
-0.000000 -4.098226 0.000000 
0.000000 -4.098226 0.000000 
-0.000000 -4.098226 0.000000 
-0.000000 -4.098226 0.000000 
-0.000000 -4.098226 0.000000 
-0.000000 -4.098226 0.000000 
-0.000000 -4.098226 0.000000 
-0.000000 -4.098226 0.000000 
-0.000000 -4.098226 0.000000 
0.000000 -4.098226 0.000000 
0.000000 -4.098226 0.000000 
0.000000 -4.098226 0.000000 
0.000000 -4.098226 0.000000 
0.000000 -4.098226 0.000000 
0.000000 -4.098226 0.000000 
0.000000 -4.098226 0.000000 
0.000000 -4.098226 0.000000 
-0.000000 -4.098226 0.000000 
-0.000000 -4.098226 0.000000 
-0.000000 -4.098226 0.000000 
-0.000000 -4.098226 0.000000 
0.000000 -4.098226 0.000000 
-0.000000 -4.098226 0.000000 
-0.000000 -4.098226 0.000000 
-0.000000 -4.098226 0.000000 
-0.000000 -4.098226 0.000000 
-0.000000 -4.098226 0.000000 
0.000000 -4.098226 0.000000 
-0.000000 -4.098226 0.000000 
-0.000000 -4.098226 0.000000 
-0.000000 -4.098226 0.000000 
-0.000000 -4.098226 0.000000 
-0.000000 -4.098226 0.000000 
0.000000 -4.098226 0.000000 
0.000000 -4.098226 0.000000 
-0.000000 -4.098226 0.000000 
0.000000 -4.098226 0.000000 
0.000000 -4.098226 0.000000 
-0.000000 -4.098226 0.000000 
-0.000000 -4.098226 0.000000 
-0.000000 -4.098226 0.000000 
-0.000000 -4.098226 0.000000 
0.000000 -4.098226 0.000000 
-0.000000 -4.098226 0.000000 
-0.000000 -4.098226 0.000000 
0.000000 -4.098226 0.000000 
0.000000 -4.098226 0.000000 
0.000000 -4.098226 0.000000 
-0.000000 -4.098226 0.000000 
-0.000000 -4.098226 0.000000 
0.000000 -4.098226 0.000000 
0.000000 -4.098226 0.000000 
-0.000000 -4.098226 0.000000 
-0.000000 -4.098226 0.000000 
-0.000000 -4.098226 0.000000 
0.000000 -4.098226 0.000000 
-0.000000 -4.098226 0.000000 
-0.000000 -4.098226 0.000000 
-0.000000 -4.098226 0.000000 
-0.000000 -4.098226 0.000000 
0.000000 -4.098226 0.000000 
-0.000000 -4.098226 0.000000 
-0.000000 -4.098226 0.000000 
-0.000000 -4.098226 0.000000 
0.000000 -4.098226 0.000000 
0.000000 -4.098226 0.000000 
-0.000000 -4.098226 0.000000 
-0.000000 -4.098226 0.000000 
0.000000 -4.098226 0.000000 
-0.000000 -4.098226 0.000000 
-0.000000 -4.098226 0.000000 
-0.000000 -4.098226 0.000000 
-0.000000 -4.098226 0.000000 
-0.000000 -4.098226 0.000000 
-0.000000 -4.098226 0.000000 
-0.000000 -4.098226 0.000000 
0.000000 -4.098226 0.000000 
-0.000000 -4.098226 0.000000 
-0.000000 -4.098226 0.000000 
-0.000000 -4.098226 0.000000 
-0.000000 -4.098226 0.000000 
-0.000000 -4.098226 0.000000 
0.000000 -4.098226 0.000000 
0.000000 -4.098226 0.000000 
TENSORS STRESS float 
0.000000 -0.000000 0.000000 
0.000000 -0.000000 0.000000 
0.000000 0.000000 0.000000 

0.000000 0.000000 0.000000 
0.000000 0.000000 0.000000 
0.000000 0.000000 0.000000 

0.000000 -0.000000 0.000000 
0.000000 0.000000 0.000000 
0.000000 0.000000 0.000000 

0.000000 -0.000000 0.000000 
0.000000 -0.000000 0.000000 
0.000000 0.000000 0.000000 

0.000000 -0.000000 0.000000 
0.000000 0.000000 0.000000 
0.000000 0.000000 0.000000 

0.000000 -0.000000 0.000000 
0.000000 0.000000 0.000000 
0.000000 0.000000 0.000000 

0.000000 -0.000000 0.000000 
0.000000 -0.000000 0.000000 
0.000000 0.000000 0.000000 

0.000000 -0.000000 0.000000 
0.000000 0.000000 0.000000 
0.000000 0.000000 0.000000 

-0.000000 -0.000000 0.000000 
0.000000 -0.000000 0.000000 
0.000000 0.000000 0.000000 

-0.000000 0.000000 0.000000 
0.000000 0.000000 0.000000 
0.000000 0.000000 0.000000 

0.000000 -0.000000 0.000000 
0.000000 0.000000 0.000000 
0.000000 0.000000 0.000000 

0.000000 0.000000 0.000000 
0.000000 -0.000000 0.000000 
0.000000 0.000000 0.000000 

0.000000 -0.000000 0.000000 