# vtk DataFile Version 3.0 
vtk output 
ASCII 
DATASET UNSTRUCTURED_GRID 
POINTS 175 float 
-0.026061 -1.590241 0.000000 
-0.106992 -1.522185 0.000000 
-0.054870 -1.530418 0.000000 
-0.028809 -1.484534 0.000000 
-0.186430 -1.458110 0.000000 
-0.137056 -1.460636 0.000000 
-0.114311 -1.406989 0.000000 
-0.058186 -1.422654 0.000000 
-0.029377 -1.382477 0.000000 
-0.265318 -1.394954 0.000000 
-0.217198 -1.395754 0.000000 
-0.196633 -1.338457 0.000000 
-0.143120 -1.347166 0.000000 
-0.116563 -1.299897 0.000000 
-0.058945 -1.319543 0.000000 
-0.029568 -1.281423 0.000000 
-0.344206 -1.331798 0.000000 
-0.296791 -1.331791 0.000000 
-0.278030 -1.271848 0.000000 
-0.225992 -1.277715 0.000000 
-0.201664 -1.225598 0.000000 
-0.145749 -1.239072 0.000000 
-0.117890 -1.194729 0.000000 
-0.059328 -1.217435 0.000000 
-0.029759 -1.180369 0.000000 
-0.058559 -1.630991 0.000000 
-0.162226 -1.651834 0.000000 
-0.123292 -1.616216 0.000000 
-0.142917 -1.567233 0.000000 
-0.261851 -1.673991 0.000000 
-0.229092 -1.636963 0.000000 
-0.256854 -1.585732 0.000000 
-0.209613 -1.551619 0.000000 
-0.223062 -1.504045 0.000000 
-0.360414 -1.696291 0.000000 
-0.329787 -1.659168 0.000000 
-0.361761 -1.607366 0.000000 
-0.321587 -1.570957 0.000000 
-0.341985 -1.520723 0.000000 
-0.290702 -1.487924 0.000000 
-0.302189 -1.441189 0.000000 
-0.458977 -1.718591 0.000000 
-0.429420 -1.681516 0.000000 
-0.464588 -1.629474 0.000000 
-0.427556 -1.592447 0.000000 
-0.453135 -1.540932 0.000000 
-0.407738 -1.505617 0.000000 
-0.425037 -1.456189 0.000000 
-0.370772 -1.424560 0.000000 
-0.381315 -1.378332 0.000000 
-0.046960 -1.681807 0.000000 
-0.095301 -1.775853 0.000000 
-0.098873 -1.723205 0.000000 
-0.149405 -1.708008 0.000000 
-0.140093 -1.867557 0.000000 
-0.148617 -1.818858 0.000000 
-0.205981 -1.808621 0.000000 
-0.203197 -1.750418 0.000000 
-0.248777 -1.731271 0.000000 
-0.184111 -1.958520 0.000000 
-0.194039 -1.911429 0.000000 
-0.254475 -1.904130 0.000000 
-0.257893 -1.850020 0.000000 
-0.309886 -1.834647 0.000000 
-0.303554 -1.774102 0.000000 
-0.347255 -1.753944 0.000000 
-0.228129 -2.049484 0.000000 
-0.238687 -2.003260 0.000000 
-0.301302 -1.998307 0.000000 
-0.307162 -1.946269 0.000000 
-0.363386 -1.934148 0.000000 
-0.362692 -1.876636 0.000000 
-0.412122 -1.859343 0.000000 
-0.403017 -1.797196 0.000000 
-0.445733 -1.776618 0.000000 
-0.000000 -1.704422 0.000000 
0.043388 -1.800852 0.000000 
-0.000000 -1.770820 0.000000 
-0.043388 -1.800852 0.000000 
0.087158 -1.893049 0.000000 
0.043769 -1.869350 0.000000 
-0.000000 -1.907816 0.000000 
-0.043769 -1.869350 0.000000 
-0.087158 -1.893049 0.000000 
0.130831 -1.984179 0.000000 
0.087824 -1.962580 0.000000 
0.044436 -2.005279 0.000000 
-0.000000 -1.974214 0.000000 
-0.044436 -2.005279 0.000000 
-0.087824 -1.962580 0.000000 
-0.130831 -1.984179 0.000000 
0.174505 -2.075308 0.000000 
0.131782 -2.054742 0.000000 
0.088871 -2.100609 0.000000 
0.044532 -2.072745 0.000000 
-0.000000 -2.109145 0.000000 
-0.044532 -2.072745 0.000000 
-0.088871 -2.100609 0.000000 
-0.131782 -2.054742 0.000000 
-0.174505 -2.075308 0.000000 
0.046960 -1.681807 0.000000 
0.149405 -1.708008 0.000000 
0.098873 -1.723205 0.000000 
0.095301 -1.775853 0.000000 
0.248777 -1.731271 0.000000 
0.203197 -1.750418 0.000000 
0.205981 -1.808621 0.000000 
0.148617 -1.818858 0.000000 
0.140093 -1.867557 0.000000 
0.347255 -1.753944 0.000000 
0.303554 -1.774102 0.000000 
0.309886 -1.834647 0.000000 
0.257893 -1.850020 0.000000 
0.254475 -1.904130 0.000000 
0.194039 -1.911429 0.000000 
0.184111 -1.958520 0.000000 
0.445733 -1.776618 0.000000 
0.403017 -1.797196 0.000000 
0.412122 -1.859343 0.000000 
0.362692 -1.876636 0.000000 
0.363386 -1.934148 0.000000 
0.307162 -1.946269 0.000000 
0.301302 -1.998307 0.000000 
0.238687 -2.003260 0.000000 
0.228129 -2.049484 0.000000 
0.058559 -1.630991 0.000000 
0.142917 -1.567233 0.000000 
0.123292 -1.616216 0.000000 
0.162226 -1.651834 0.000000 
0.223062 -1.504045 0.000000 
0.209613 -1.551619 0.000000 
0.256854 -1.585732 0.000000 
0.229092 -1.636963 0.000000 
0.261851 -1.673991 0.000000 
0.302189 -1.441189 0.000000 
0.290702 -1.487924 0.000000 
0.341985 -1.520723 0.000000 
0.321587 -1.570957 0.000000 
0.361761 -1.607366 0.000000 
0.329787 -1.659168 0.000000 
0.360414 -1.696291 0.000000 
0.381315 -1.378332 0.000000 
0.370772 -1.424560 0.000000 
0.425037 -1.456189 0.000000 
0.407738 -1.505617 0.000000 
0.453135 -1.540932 0.000000 
0.427556 -1.592447 0.000000 
0.464588 -1.629474 0.000000 
0.429420 -1.681516 0.000000 
0.458977 -1.718591 0.000000 
0.026061 -1.590241 0.000000 
0.028809 -1.484534 0.000000 
0.054870 -1.530418 0.000000 
0.106992 -1.522185 0.000000 
0.029377 -1.382477 0.000000 
0.058186 -1.422654 0.000000 
0.114311 -1.406989 0.000000 
0.137056 -1.460636 0.000000 
0.186430 -1.458110 0.000000 
0.029568 -1.281423 0.000000 
0.058945 -1.319543 0.000000 
0.116563 -1.299897 0.000000 
0.143120 -1.347166 0.000000 
0.196633 -1.338457 0.000000 
0.217198 -1.395754 0.000000 
0.265318 -1.394954 0.000000 
0.029759 -1.180369 0.000000 
0.059328 -1.217435 0.000000 
0.117890 -1.194729 0.000000 
0.145749 -1.239072 0.000000 
0.201664 -1.225598 0.000000 
0.225992 -1.277715 0.000000 
0.278030 -1.271848 0.000000 
0.296791 -1.331791 0.000000 
0.344206 -1.331798 0.000000 
CELLS 175 350 
1 0 
1 1 
1 2 
1 3 
1 4 
1 5 
1 6 
1 7 
1 8 
1 9 
1 10 
1 11 
1 12 
1 13 
1 14 
1 15 
1 16 
1 17 
1 18 
1 19 
1 20 
1 21 
1 22 
1 23 
1 24 
1 25 
1 26 
1 27 
1 28 
1 29 
1 30 
1 31 
1 32 
1 33 
1 34 
1 35 
1 36 
1 37 
1 38 
1 39 
1 40 
1 41 
1 42 
1 43 
1 44 
1 45 
1 46 
1 47 
1 48 
1 49 
1 50 
1 51 
1 52 
1 53 
1 54 
1 55 
1 56 
1 57 
1 58 
1 59 
1 60 
1 61 
1 62 
1 63 
1 64 
1 65 
1 66 
1 67 
1 68 
1 69 
1 70 
1 71 
1 72 
1 73 
1 74 
1 75 
1 76 
1 77 
1 78 
1 79 
1 80 
1 81 
1 82 
1 83 
1 84 
1 85 
1 86 
1 87 
1 88 
1 89 
1 90 
1 91 
1 92 
1 93 
1 94 
1 95 
1 96 
1 97 
1 98 
1 99 
1 100 
1 101 
1 102 
1 103 
1 104 
1 105 
1 106 
1 107 
1 108 
1 109 
1 110 
1 111 
1 112 
1 113 
1 114 
1 115 
1 116 
1 117 
1 118 
1 119 
1 120 
1 121 
1 122 
1 123 
1 124 
1 125 
1 126 
1 127 
1 128 
1 129 
1 130 
1 131 
1 132 
1 133 
1 134 
1 135 
1 136 
1 137 
1 138 
1 139 
1 140 
1 141 
1 142 
1 143 
1 144 
1 145 
1 146 
1 147 
1 148 
1 149 
1 150 
1 151 
1 152 
1 153 
1 154 
1 155 
1 156 
1 157 
1 158 
1 159 
1 160 
1 161 
1 162 
1 163 
1 164 
1 165 
1 166 
1 167 
1 168 
1 169 
1 170 
1 171 
1 172 
1 173 
1 174 
CELL_TYPES 175 
1 
1 
1 
1 
1 
1 
1 
1 
1 
1 
1 
1 
1 
1 
1 
1 
1 
1 
1 
1 
1 
1 
1 
1 
1 
1 
1 
1 
1 
1 
1 
1 
1 
1 
1 
1 
1 
1 
1 
1 
1 
1 
1 
1 
1 
1 
1 
1 
1 
1 
1 
1 
1 
1 
1 
1 
1 
1 
1 
1 
1 
1 
1 
1 
1 
1 
1 
1 
1 
1 
1 
1 
1 
1 
1 
1 
1 
1 
1 
1 
1 
1 
1 
1 
1 
1 
1 
1 
1 
1 
1 
1 
1 
1 
1 
1 
1 
1 
1 
1 
1 
1 
1 
1 
1 
1 
1 
1 
1 
1 
1 
1 
1 
1 
1 
1 
1 
1 
1 
1 
1 
1 
1 
1 
1 
1 
1 
1 
1 
1 
1 
1 
1 
1 
1 
1 
1 
1 
1 
1 
1 
1 
1 
1 
1 
1 
1 
1 
1 
1 
1 
1 
1 
1 
1 
1 
1 
1 
1 
1 
1 
1 
1 
1 
1 
1 
1 
1 
1 
1 
1 
1 
1 
1 
1 
POINT_DATA 175 
VECTORS X_GC float 
-0.026061 -1.590241 0.000000 
-0.106992 -1.522185 0.000000 
-0.054870 -1.530418 0.000000 
-0.028809 -1.484534 0.000000 
-0.186430 -1.458110 0.000000 
-0.137056 -1.460636 0.000000 
-0.114311 -1.406989 0.000000 
-0.058186 -1.422654 0.000000 
-0.029377 -1.382477 0.000000 
-0.265318 -1.394954 0.000000 
-0.217198 -1.395754 0.000000 
-0.196633 -1.338457 0.000000 
-0.143120 -1.347166 0.000000 
-0.116563 -1.299897 0.000000 
-0.058945 -1.319543 0.000000 
-0.029568 -1.281423 0.000000 
-0.344206 -1.331798 0.000000 
-0.296791 -1.331791 0.000000 
-0.278030 -1.271848 0.000000 
-0.225992 -1.277715 0.000000 
-0.201664 -1.225598 0.000000 
-0.145749 -1.239072 0.000000 
-0.117890 -1.194729 0.000000 
-0.059328 -1.217435 0.000000 
-0.029759 -1.180369 0.000000 
-0.058559 -1.630991 0.000000 
-0.162226 -1.651834 0.000000 
-0.123292 -1.616216 0.000000 
-0.142917 -1.567233 0.000000 
-0.261851 -1.673991 0.000000 
-0.229092 -1.636963 0.000000 
-0.256854 -1.585732 0.000000 
-0.209613 -1.551619 0.000000 
-0.223062 -1.504045 0.000000 
-0.360414 -1.696291 0.000000 
-0.329787 -1.659168 0.000000 
-0.361761 -1.607366 0.000000 
-0.321587 -1.570957 0.000000 
-0.341985 -1.520723 0.000000 
-0.290702 -1.487924 0.000000 
-0.302189 -1.441189 0.000000 
-0.458977 -1.718591 0.000000 
-0.429420 -1.681516 0.000000 
-0.464588 -1.629474 0.000000 
-0.427556 -1.592447 0.000000 
-0.453135 -1.540932 0.000000 
-0.407738 -1.505617 0.000000 
-0.425037 -1.456189 0.000000 
-0.370772 -1.424560 0.000000 
-0.381315 -1.378332 0.000000 
-0.046960 -1.681807 0.000000 
-0.095301 -1.775853 0.000000 
-0.098873 -1.723205 0.000000 
-0.149405 -1.708008 0.000000 
-0.140093 -1.867557 0.000000 
-0.148617 -1.818858 0.000000 
-0.205981 -1.808621 0.000000 
-0.203197 -1.750418 0.000000 
-0.248777 -1.731271 0.000000 
-0.184111 -1.958520 0.000000 
-0.194039 -1.911429 0.000000 
-0.254475 -1.904130 0.000000 
-0.257893 -1.850020 0.000000 
-0.309886 -1.834647 0.000000 
-0.303554 -1.774102 0.000000 
-0.347255 -1.753944 0.000000 
-0.228129 -2.049484 0.000000 
-0.238687 -2.003260 0.000000 
-0.301302 -1.998307 0.000000 
-0.307162 -1.946269 0.000000 
-0.363386 -1.934148 0.000000 
-0.362692 -1.876636 0.000000 
-0.412122 -1.859343 0.000000 
-0.403017 -1.797196 0.000000 
-0.445733 -1.776618 0.000000 
-0.000000 -1.704422 0.000000 
0.043388 -1.800852 0.000000 
-0.000000 -1.770820 0.000000 
-0.043388 -1.800852 0.000000 
0.087158 -1.893049 0.000000 
0.043769 -1.869350 0.000000 
-0.000000 -1.907816 0.000000 
-0.043769 -1.869350 0.000000 
-0.087158 -1.893049 0.000000 
0.130831 -1.984179 0.000000 
0.087824 -1.962580 0.000000 
0.044436 -2.005279 0.000000 
-0.000000 -1.974214 0.000000 
-0.044436 -2.005279 0.000000 
-0.087824 -1.962580 0.000000 
-0.130831 -1.984179 0.000000 
0.174505 -2.075308 0.000000 
0.131782 -2.054742 0.000000 
0.088871 -2.100609 0.000000 
0.044532 -2.072745 0.000000 
-0.000000 -2.109145 0.000000 
-0.044532 -2.072745 0.000000 
-0.088871 -2.100609 0.000000 
-0.131782 -2.054742 0.000000 
-0.174505 -2.075308 0.000000 
0.046960 -1.681807 0.000000 
0.149405 -1.708008 0.000000 
0.098873 -1.723205 0.000000 
0.095301 -1.775853 0.000000 
0.248777 -1.731271 0.000000 
0.203197 -1.750418 0.000000 
0.205981 -1.808621 0.000000 
0.148617 -1.818858 0.000000 
0.140093 -1.867557 0.000000 
0.347255 -1.753944 0.000000 
0.303554 -1.774102 0.000000 
0.309886 -1.834647 0.000000 
0.257893 -1.850020 0.000000 
0.254475 -1.904130 0.000000 
0.194039 -1.911429 0.000000 
0.184111 -1.958520 0.000000 
0.445733 -1.776618 0.000000 
0.403017 -1.797196 0.000000 
0.412122 -1.859343 0.000000 
0.362692 -1.876636 0.000000 
0.363386 -1.934148 0.000000 
0.307162 -1.946269 0.000000 
0.301302 -1.998307 0.000000 
0.238687 -2.003260 0.000000 
0.228129 -2.049484 0.000000 
0.058559 -1.630991 0.000000 
0.142917 -1.567233 0.000000 
0.123292 -1.616216 0.000000 
0.162226 -1.651834 0.000000 
0.223062 -1.504045 0.000000 
0.209613 -1.551619 0.000000 
0.256854 -1.585732 0.000000 
0.229092 -1.636963 0.000000 
0.261851 -1.673991 0.000000 
0.302189 -1.441189 0.000000 
0.290702 -1.487924 0.000000 
0.341985 -1.520723 0.000000 
0.321587 -1.570957 0.000000 
0.361761 -1.607366 0.000000 
0.329787 -1.659168 0.000000 
0.360414 -1.696291 0.000000 
0.381315 -1.378332 0.000000 
0.370772 -1.424560 0.000000 
0.425037 -1.456189 0.000000 
0.407738 -1.505617 0.000000 
0.453135 -1.540932 0.000000 
0.427556 -1.592447 0.000000 
0.464588 -1.629474 0.000000 
0.429420 -1.681516 0.000000 
0.458977 -1.718591 0.000000 
0.026061 -1.590241 0.000000 
0.028809 -1.484534 0.000000 
0.054870 -1.530418 0.000000 
0.106992 -1.522185 0.000000 
0.029377 -1.382477 0.000000 
0.058186 -1.422654 0.000000 
0.114311 -1.406989 0.000000 
0.137056 -1.460636 0.000000 
0.186430 -1.458110 0.000000 
0.029568 -1.281423 0.000000 
0.058945 -1.319543 0.000000 
0.116563 -1.299897 0.000000 
0.143120 -1.347166 0.000000 
0.196633 -1.338457 0.000000 
0.217198 -1.395754 0.000000 
0.265318 -1.394954 0.000000 
0.029759 -1.180369 0.000000 
0.059328 -1.217435 0.000000 
0.117890 -1.194729 0.000000 
0.145749 -1.239072 0.000000 
0.201664 -1.225598 0.000000 
0.225992 -1.277715 0.000000 
0.278030 -1.271848 0.000000 
0.296791 -1.331791 0.000000 
0.344206 -1.331798 0.000000 
VECTORS X_EC float 
0.338794 -0.031750 0.000000 
-0.609100 -0.950498 0.000000 
0.713312 -0.839357 0.000000 
0.374519 0.541213 0.000000 
0.423588 0.184483 0.000000 
-0.218274 0.218586 0.000000 
-0.513962 -0.505653 0.000000 
0.756418 -0.294167 0.000000 
0.381900 -0.836559 0.000000 
-0.550868 -0.668121 0.000000 
0.823577 -0.657325 0.000000 
0.556234 0.569171 0.000000 
-0.139443 0.686740 0.000000 
-0.484677 0.048615 0.000000 
0.766286 0.313830 0.000000 
0.384386 -0.200790 0.000000 
0.474677 0.479276 0.000000 
-0.141715 0.479180 0.000000 
-0.385608 -0.330048 0.000000 
0.937896 -0.250853 0.000000 
0.621631 -0.954433 0.000000 
-0.105264 -0.772534 0.000000 
-0.467428 0.628840 0.000000 
0.771260 0.935369 0.000000 
0.386873 0.434979 0.000000 
0.761262 0.518385 0.000000 
0.108942 0.799761 0.000000 
-0.397202 0.318922 0.000000 
-0.142083 -0.342353 0.000000 
-0.595936 -0.901128 0.000000 
0.978194 0.599006 0.000000 
-0.660903 -0.092619 0.000000 
0.724964 -0.553139 0.000000 
0.899809 0.804613 0.000000 
0.685384 -0.600076 0.000000 
0.287229 0.898766 0.000000 
0.702895 0.199437 0.000000 
0.180633 -0.292081 0.000000 
0.445811 -0.970241 0.000000 
-0.220880 0.586973 0.000000 
-0.071546 -0.043952 0.000000 
-0.033296 -0.299024 0.000000 
-0.417537 -0.799533 0.000000 
0.039645 0.497904 0.000000 
-0.441768 -0.001967 0.000000 
-0.109248 -0.697418 0.000000 
-0.699407 0.825827 0.000000 
-0.474522 0.158548 0.000000 
0.820030 -0.268446 0.000000 
0.957100 -0.892517 0.000000 
0.610485 -0.795609 0.000000 
-0.761092 0.474011 0.000000 
-0.714655 -0.236727 0.000000 
-0.057734 -0.441894 0.000000 
-0.178789 -0.287985 0.000000 
-0.067979 -0.945411 0.000000 
0.677748 0.916385 0.000000 
0.641556 0.130640 0.000000 
-0.765897 -0.127839 0.000000 
0.393446 0.940024 0.000000 
0.522510 0.304294 0.000000 
-0.691820 0.205750 0.000000 
-0.647393 -0.524733 0.000000 
0.028512 -0.732259 0.000000 
-0.053800 0.450380 0.000000 
0.514316 0.178249 0.000000 
0.965681 0.168033 0.000000 
-0.897068 -0.455996 0.000000 
-0.083078 -0.522849 0.000000 
-0.006893 0.774627 0.000000 
0.724017 0.610994 0.000000 
0.714996 -0.165410 0.000000 
-0.642413 -0.398867 0.000000 
-0.760780 0.762152 0.000000 
-0.205471 0.484337 0.000000 
0.000000 -0.490307 0.000000 
-0.564049 0.811506 0.000000 
0.000000 0.406070 0.000000 
0.564049 0.811506 0.000000 
0.866949 0.056161 0.000000 
-0.569003 -0.263770 0.000000 
0.000000 0.255518 0.000000 
0.569003 -0.263770 0.000000 
-0.866949 0.056161 0.000000 
0.299194 -0.713589 0.000000 
0.858290 0.994827 0.000000 
-0.577662 -0.428727 0.000000 
0.000000 -0.848105 0.000000 
0.577662 -0.428727 0.000000 
-0.858290 0.994827 0.000000 
-0.299194 -0.713589 0.000000 
-0.268560 0.516661 0.000000 
0.286830 0.239020 0.000000 
0.844677 0.858218 0.000000 
-0.578910 0.482055 0.000000 
0.000000 0.973459 0.000000 
0.578910 0.482055 0.000000 
-0.844677 0.858218 0.000000 
-0.286830 0.239020 0.000000 
0.268560 0.516661 0.000000 
-0.610485 -0.795609 0.000000 
0.057734 -0.441894 0.000000 
0.714655 -0.236727 0.000000 
0.761092 0.474011 0.000000 
0.765897 -0.127839 0.000000 
-0.641556 0.130640 0.000000 
-0.677748 0.916385 0.000000 
0.067979 -0.945411 0.000000 
0.178789 -0.287985 0.000000 
-0.514316 0.178249 0.000000 
0.053800 0.450380 0.000000 
-0.028512 -0.732259 0.000000 
0.647393 -0.524733 0.000000 
0.691820 0.205750 0.000000 
-0.522510 0.304294 0.000000 
-0.393446 0.940024 0.000000 
0.205471 0.484337 0.000000 
0.760780 0.762152 0.000000 
0.642413 -0.398867 0.000000 
-0.714996 -0.165410 0.000000 
-0.724017 0.610994 0.000000 
0.006894 0.774627 0.000000 
0.083078 -0.522849 0.000000 
0.897068 -0.455996 0.000000 
-0.965681 0.168033 0.000000 
-0.761262 0.518385 0.000000 
0.142083 -0.342353 0.000000 
0.397202 0.318922 0.000000 
-0.108942 0.799761 0.000000 
-0.899809 0.804613 0.000000 
-0.724964 -0.553139 0.000000 
0.660903 -0.092619 0.000000 
-0.978194 0.599006 0.000000 
0.595936 -0.901128 0.000000 
0.071546 -0.043952 0.000000 
0.220880 0.586973 0.000000 
-0.445811 -0.970241 0.000000 
-0.180633 -0.292081 0.000000 
-0.702895 0.199437 0.000000 
-0.287229 0.898766 0.000000 
-0.685384 -0.600076 0.000000 
-0.957100 -0.892517 0.000000 
-0.820030 -0.268446 0.000000 
0.474522 0.158548 0.000000 
0.699407 0.825827 0.000000 
0.109248 -0.697418 0.000000 
0.441768 -0.001967 0.000000 
-0.039645 0.497904 0.000000 
0.417537 -0.799533 0.000000 
0.033296 -0.299024 0.000000 
-0.338794 -0.031750 0.000000 
-0.374519 0.541213 0.000000 
-0.713312 -0.839357 0.000000 
0.609100 -0.950498 0.000000 
-0.381900 -0.836559 0.000000 
-0.756418 -0.294167 0.000000 
0.513962 -0.505653 0.000000 
0.218274 0.218586 0.000000 
-0.423588 0.184483 0.000000 
-0.384386 -0.200790 0.000000 
-0.766286 0.313830 0.000000 
0.484677 0.048615 0.000000 
0.139443 0.686740 0.000000 
-0.556234 0.569171 0.000000 
-0.823577 -0.657325 0.000000 
0.550868 -0.668120 0.000000 
-0.386873 0.434979 0.000000 
-0.771260 0.935369 0.000000 
0.467428 0.628840 0.000000 
0.105264 -0.772534 0.000000 
-0.621631 -0.954433 0.000000 
-0.937896 -0.250853 0.000000 
0.385608 -0.330048 0.000000 
0.141715 0.479180 0.000000 
-0.474677 0.479276 0.000000 
CELL_DATA 175 
SCALARS MASS float 
LOOKUP_TABLE default 
0.078183 
0.086427 
0.094672 
0.086427 
0.088131 
0.092111 
0.085854 
0.092111 
0.088131 
0.088705 
0.091000 
0.086983 
0.091556 
0.086983 
0.091000 
0.088705 
0.089278 
0.091574 
0.089278 
0.092722 
0.089278 
0.092722 
0.089278 
0.091574 
0.089278 
0.078183 
0.086427 
0.094672 
0.086427 
0.088131 
0.092111 
0.085854 
0.092111 
0.088131 
0.088705 
0.091000 
0.086983 
0.091556 
0.086983 
0.091000 
0.088705 
0.089278 
0.091574 
0.089278 
0.092722 
0.089278 
0.092722 
0.089278 
0.091574 
0.089278 
0.078183 
0.086427 
0.094672 
0.086427 
0.088131 
0.092111 
0.085854 
0.092111 
0.088131 
0.088705 
0.091000 
0.086983 
0.091556 
0.086983 
0.091000 
0.088705 
0.089278 
0.091574 
0.089278 
0.092722 
0.089278 
0.092722 
0.089278 
0.091574 
0.089278 
0.078183 
0.086427 
0.094672 
0.086427 
0.088131 
0.092111 
0.085854 
0.092111 
0.088131 
0.088705 
0.091000 
0.086983 
0.091556 
0.086983 
0.091000 
0.088705 
0.089278 
0.091574 
0.089278 
0.092722 
0.089278 
0.092722 
0.089278 
0.091574 
0.089278 
0.078183 
0.086427 
0.094672 
0.086427 
0.088131 
0.092111 
0.085854 
0.092111 
0.088131 
0.088705 
0.091000 
0.086983 
0.091556 
0.086983 
0.091000 
0.088705 
0.089278 
0.091574 
0.089278 
0.092722 
0.089278 
0.092722 
0.089278 
0.091574 
0.089278 
0.078183 
0.086427 
0.094672 
0.086427 
0.088131 
0.092111 
0.085854 
0.092111 
0.088131 
0.088705 
0.091000 
0.086983 
0.091556 
0.086983 
0.091000 
0.088705 
0.089278 
0.091574 
0.089278 
0.092722 
0.089278 
0.092722 
0.089278 
0.091574 
0.089278 
0.078183 
0.086427 
0.094672 
0.086427 
0.088131 
0.092111 
0.085854 
0.092111 
0.088131 
0.088705 
0.091000 
0.086983 
0.091556 
0.086983 
0.091000 
0.088705 
0.089278 
0.091574 
0.089278 
0.092722 
0.089278 
0.092722 
0.089278 
0.091574 
0.089278 
SCALARS MASS float 
LOOKUP_TABLE default 
0.078183 
0.086427 
0.094672 
0.086427 
0.088131 
0.092111 
0.085854 
0.092111 
0.088131 
0.088705 
0.091000 
0.086983 
0.091556 
0.086983 
0.091000 
0.088705 
0.089278 
0.091574 
0.089278 
0.092722 
0.089278 
0.092722 
0.089278 
0.091574 
0.089278 
0.078183 
0.086427 
0.094672 
0.086427 
0.088131 
0.092111 
0.085854 
0.092111 
0.088131 
0.088705 
0.091000 
0.086983 
0.091556 
0.086983 
0.091000 
0.088705 
0.089278 
0.091574 
0.089278 
0.092722 
0.089278 
0.092722 
0.089278 
0.091574 
0.089278 
0.078183 
0.086427 
0.094672 
0.086427 
0.088131 
0.092111 
0.085854 
0.092111 
0.088131 
0.088705 
0.091000 
0.086983 
0.091556 
0.086983 
0.091000 
0.088705 
0.089278 
0.091574 
0.089278 
0.092722 
0.089278 
0.092722 
0.089278 
0.091574 
0.089278 
0.078183 
0.086427 
0.094672 
0.086427 
0.088131 
0.092111 
0.085854 
0.092111 
0.088131 
0.088705 
0.091000 
0.086983 
0.091556 
0.086983 
0.091000 
0.088705 
0.089278 
0.091574 
0.089278 
0.092722 
0.089278 
0.092722 
0.089278 
0.091574 
0.089278 
0.078183 
0.086427 
0.094672 
0.086427 
0.088131 
0.092111 
0.085854 
0.092111 
0.088131 
0.088705 
0.091000 
0.086983 
0.091556 
0.086983 
0.091000 
0.088705 
0.089278 
0.091574 
0.089278 
0.092722 
0.089278 
0.092722 
0.089278 
0.091574 
0.089278 
0.078183 
0.086427 
0.094672 
0.086427 
0.088131 
0.092111 
0.085854 
0.092111 
0.088131 
0.088705 
0.091000 
0.086983 
0.091556 
0.086983 
0.091000 
0.088705 
0.089278 
0.091574 
0.089278 
0.092722 
0.089278 
0.092722 
0.089278 
0.091574 
0.089278 
0.078183 
0.086427 
0.094672 
0.086427 
0.088131 
0.092111 
0.085854 
0.092111 
0.088131 
0.088705 
0.091000 
0.086983 
0.091556 
0.086983 
0.091000 
0.088705 
0.089278 
0.091574 
0.089278 
0.092722 
0.089278 
0.092722 
0.089278 
0.091574 
0.089278 
SCALARS DENSITY float 
LOOKUP_TABLE default 
20.000000 
20.000000 
20.000000 
20.000000 
20.000000 
20.000000 
20.000000 
20.000000 
20.000000 
20.000000 
20.000000 
20.000000 
20.000000 
20.000000 
20.000000 
20.000000 
20.000000 
20.000000 
20.000000 
20.000000 
20.000000 
20.000000 
20.000000 
20.000000 
20.000000 
20.000000 
20.000000 
20.000000 
20.000000 
20.000000 
20.000000 
20.000000 
20.000000 
20.000000 
20.000000 
20.000000 
20.000000 
20.000000 
20.000000 
20.000000 
20.000000 
20.000000 
20.000000 
20.000000 
20.000000 
20.000000 
20.000000 
20.000000 
20.000000 
20.000000 
20.000000 
20.000000 
20.000000 
20.000000 
20.000000 
20.000000 
20.000000 
20.000000 
20.000000 
20.000000 
20.000000 
20.000000 
20.000000 
20.000000 
20.000000 
20.000000 
20.000000 
20.000000 
20.000000 
20.000000 
20.000000 
20.000000 
20.000000 
20.000000 
20.000000 
20.000000 
20.000000 
20.000000 
20.000000 
20.000000 
20.000000 
20.000000 
20.000000 
20.000000 
20.000000 
20.000000 
20.000000 
20.000000 
20.000000 
20.000000 
20.000000 
20.000000 
20.000000 
20.000000 
20.000000 
20.000000 
20.000000 
20.000000 
20.000000 
20.000000 
20.000000 
20.000000 
20.000000 
20.000000 
20.000000 
20.000000 
20.000000 
20.000000 
20.000000 
20.000000 
20.000000 
20.000000 
20.000000 
20.000000 
20.000000 
20.000000 
20.000000 
20.000000 
20.000000 
20.000000 
20.000000 
20.000000 
20.000000 
20.000000 
20.000000 
20.000000 
20.000000 
20.000000 
20.000000 
20.000000 
20.000000 
20.000000 
20.000000 
20.000000 
20.000000 
20.000000 
20.000000 
20.000000 
20.000000 
20.000000 
20.000000 
20.000000 
20.000000 
20.000000 
20.000000 
20.000000 
20.000000 
20.000000 
20.000000 
20.000000 
20.000000 
20.000000 
20.000000 
20.000000 
20.000000 
20.000000 
20.000000 
20.000000 
20.000000 
20.000000 
20.000000 
20.000000 
20.000000 
20.000000 
20.000000 
20.000000 
20.000000 
20.000000 
20.000000 
20.000000 
20.000000 
20.000000 
20.000000 
20.000000 
20.000000 
SCALARS ELEM_i float 
LOOKUP_TABLE default 
171 
198 
171 
172 
199 
199 
199 
172 
172 
226 
199 
200 
200 
200 
173 
173 
227 
227 
227 
200 
200 
200 
201 
174 
174 
171 
198 
198 
198 
224 
198 
225 
198 
199 
224 
225 
225 
225 
225 
226 
226 
251 
251 
252 
252 
252 
253 
253 
226 
226 
170 
197 
197 
197 
196 
196 
197 
197 
224 
196 
196 
223 
223 
223 
224 
224 
195 
222 
222 
223 
223 
223 
250 
251 
251 
170 
170 
170 
170 
142 
169 
169 
169 
196 
141 
142 
168 
168 
168 
196 
195 
141 
141 
141 
168 
168 
168 
195 
195 
195 
170 
143 
143 
143 
116 
143 
143 
142 
142 
116 
116 
115 
115 
115 
142 
142 
89 
89 
88 
115 
115 
115 
114 
114 
141 
171 
144 
144 
144 
145 
144 
117 
144 
116 
118 
118 
117 
117 
117 
117 
116 
118 
118 
91 
91 
90 
90 
90 
89 
89 
171 
172 
171 
144 
172 
172 
145 
145 
145 
173 
173 
146 
146 
146 
145 
118 
174 
174 
147 
146 
146 
146 
119 
119 
119 
VECTORS VELOCITY float 
-0.000000 -5.679598 0.000000 
0.000000 -5.679598 0.000000 
0.000000 -5.679598 0.000000 
-0.000000 -5.679598 0.000000 
0.000000 -5.679598 0.000000 
0.000000 -5.679598 0.000000 
-0.000000 -5.679598 0.000000 
-0.000000 -5.679598 0.000000 
0.000000 -5.679598 0.000000 
0.000000 -5.679598 0.000000 
0.000000 -5.679598 0.000000 
0.000000 -5.679598 0.000000 
0.000000 -5.679598 0.000000 
0.000000 -5.679598 0.000000 
0.000000 -5.679598 0.000000 
0.000000 -5.679598 0.000000 
0.000000 -5.679598 0.000000 
0.000000 -5.679598 0.000000 
0.000000 -5.679598 0.000000 
-0.000000 -5.679598 0.000000 
0.000000 -5.679598 0.000000 
0.000000 -5.679598 0.000000 
0.000000 -5.679598 0.000000 
-0.000000 -5.679598 0.000000 
-0.000000 -5.679598 0.000000 
-0.000000 -5.679598 0.000000 
-0.000000 -5.679598 0.000000 
-0.000000 -5.679598 0.000000 
0.000000 -5.679598 0.000000 
0.000000 -5.679598 0.000000 
0.000000 -5.679598 0.000000 
0.000000 -5.679598 0.000000 
0.000000 -5.679598 0.000000 
-0.000000 -5.679598 0.000000 
0.000000 -5.679598 0.000000 
0.000000 -5.679598 0.000000 
0.000000 -5.679598 0.000000 
-0.000000 -5.679598 0.000000 
-0.000000 -5.679598 0.000000 
-0.000000 -5.679598 0.000000 
0.000000 -5.679598 0.000000 
-0.000000 -5.679598 0.000000 
0.000000 -5.679598 0.000000 
0.000000 -5.679598 0.000000 
0.000000 -5.679598 0.000000 
0.000000 -5.679598 0.000000 
0.000000 -5.679598 0.000000 
0.000000 -5.679598 0.000000 
0.000000 -5.679598 0.000000 
0.000000 -5.679598 0.000000 
-0.000000 -5.679598 0.000000 
-0.000000 -5.679598 0.000000 
-0.000000 -5.679598 0.000000 
-0.000000 -5.679598 0.000000 
0.000000 -5.679598 0.000000 
-0.000000 -5.679598 0.000000 
0.000000 -5.679598 0.000000 
-0.000000 -5.679598 0.000000 
-0.000000 -5.679598 0.000000 
-0.000000 -5.679598 0.000000 
-0.000000 -5.679598 0.000000 
-0.000000 -5.679598 0.000000 
0.000000 -5.679598 0.000000 
-0.000000 -5.679598 0.000000 
-0.000000 -5.679598 0.000000 
-0.000000 -5.679598 0.000000 
-0.000000 -5.679598 0.000000 
-0.000000 -5.679598 0.000000 
0.000000 -5.679598 0.000000 
0.000000 -5.679598 0.000000 
0.000000 -5.679598 0.000000 
-0.000000 -5.679598 0.000000 
-0.000000 -5.679598 0.000000 
-0.000000 -5.679598 0.000000 
-0.000000 -5.679598 0.000000 
-0.000000 -5.679598 0.000000 
-0.000000 -5.679598 0.000000 
-0.000000 -5.679598 0.000000 
-0.000000 -5.679598 0.000000 
-0.000000 -5.679598 0.000000 
-0.000000 -5.679598 0.000000 
0.000000 -5.679598 0.000000 
-0.000000 -5.679598 0.000000 
0.000000 -5.679598 0.000000 
0.000000 -5.679598 0.000000 
-0.000000 -5.679598 0.000000 
0.000000 -5.679598 0.000000 
0.000000 -5.679598 0.000000 
-0.000000 -5.679598 0.000000 
0.000000 -5.679598 0.000000 
-0.000000 -5.679598 0.000000 
-0.000000 -5.679598 0.000000 
-0.000000 -5.679598 0.000000 
-0.000000 -5.679598 0.000000 
-0.000000 -5.679598 0.000000 
-0.000000 -5.679598 0.000000 
-0.000000 -5.679598 0.000000 
-0.000000 -5.679598 0.000000 
-0.000000 -5.679598 0.000000 
0.000000 -5.679598 0.000000 
-0.000000 -5.679598 0.000000 
0.000000 -5.679598 0.000000 
0.000000 -5.679598 0.000000 
-0.000000 -5.679598 0.000000 
0.000000 -5.679598 0.000000 
0.000000 -5.679598 0.000000 
0.000000 -5.679598 0.000000 
0.000000 -5.679598 0.000000 
-0.000000 -5.679598 0.000000 
0.000000 -5.679598 0.000000 
0.000000 -5.679598 0.000000 
-0.000000 -5.679598 0.000000 
0.000000 -5.679598 0.000000 
0.000000 -5.679598 0.000000 
0.000000 -5.679598 0.000000 
-0.000000 -5.679598 0.000000 
-0.000000 -5.679598 0.000000 
-0.000000 -5.679598 0.000000 
-0.000000 -5.679598 0.000000 
-0.000000 -5.679598 0.000000 
0.000000 -5.679598 0.000000 
0.000000 -5.679598 0.000000 
-0.000000 -5.679598 0.000000 
-0.000000 -5.679598 0.000000 
-0.000000 -5.679598 0.000000 
0.000000 -5.679598 0.000000 
0.000000 -5.679598 0.000000 
0.000000 -5.679598 0.000000 
0.000000 -5.679598 0.000000 
0.000000 -5.679598 0.000000 
0.000000 -5.679598 0.000000 
0.000000 -5.679598 0.000000 
0.000000 -5.679598 0.000000 
0.000000 -5.679598 0.000000 
0.000000 -5.679598 0.000000 
0.000000 -5.679598 0.000000 
0.000000 -5.679598 0.000000 
0.000000 -5.679598 0.000000 
-0.000000 -5.679598 0.000000 
0.000000 -5.679598 0.000000 
0.000000 -5.679598 0.000000 
-0.000000 -5.679598 0.000000 
0.000000 -5.679598 0.000000 
-0.000000 -5.679598 0.000000 
0.000000 -5.679598 0.000000 
0.000000 -5.679598 0.000000 
-0.000000 -5.679598 0.000000 
-0.000000 -5.679598 0.000000 
-0.000000 -5.679598 0.000000 
0.000000 -5.679598 0.000000 
0.000000 -5.679598 0.000000 
-0.000000 -5.679598 0.000000 
-0.000000 -5.679598 0.000000 
-0.000000 -5.679598 0.000000 
0.000000 -5.679598 0.000000 
0.000000 -5.679598 0.000000 
0.000000 -5.679598 0.000000 
-0.000000 -5.679598 0.000000 
-0.000000 -5.679598 0.000000 
0.000000 -5.679598 0.000000 
0.000000 -5.679598 0.000000 
0.000000 -5.679598 0.000000 
-0.000000 -5.679598 0.000000 
-0.000000 -5.679598 0.000000 
-0.000000 -5.679598 0.000000 
-0.000000 -5.679598 0.000000 
0.000000 -5.679598 0.000000 
0.000000 -5.679598 0.000000 
0.000000 -5.679598 0.000000 
-0.000000 -5.679598 0.000000 
-0.000000 -5.679598 0.000000 
-0.000000 -5.679598 0.000000 
-0.000000 -5.679598 0.000000 
-0.000000 -5.679598 0.000000 
0.000000 -5.679598 0.000000 
TENSORS STRESS float 
-0.000000 -0.000000 0.000000 
0.000000 -0.000000 0.000000 
0.000000 0.000000 0.000000 

0.000000 -0.000000 0.000000 
0.000000 0.000000 0.000000 
0.000000 0.000000 0.000000 

-0.000000 0.000000 0.000000 
0.000000 -0.000000 0.000000 
0.000000 0.000000 0.000000 

-0.000000 -0.000000 0.000000 
0.000000 -0.000000 0.000000 
0.000000 0.000000 0.000000 

-0.000000 0.000000 0.000000 
0.000000 -0.000000 0.000000 
0.000000 0.000000 0.000000 

0.000000 -0.000000 0.000000 
0.000000 0.000000 0.000000 
0.000000 0.000000 0.000000 

-0.000000 0.000000 0.000000 
0.000000 0.000000 0.000000 
0.000000 0.000000 0.000000 

0.000000 -0.000000 0.000000 
0.000000 0.000000 0.000000 
0.000000 0.000000 0.000000 

-0.000000 -0.000000 0.000000 
0.000000 -0.000000 0.000000 
0.000000 0.000000 0.000000 

0.000000 -0.000000 0.000000 
0.000000 0.000000 0.000000 
0.000000 0.000000 0.000000 

-0.000000 -0.000000 0.000000 
0.000000 0.000000 0.000000 
0.000000 0.000000 0.000000 

0.000000 0.000000 0.000000 
0.000000 0.000000 0.000000 
0.000000 0.000000 0.000000 

0.000000 0.000000 0.000000 
0.000000 0.000000 0.000000 