# vtk DataFile Version 3.0 
vtk output 
ASCII 
DATASET UNSTRUCTURED_GRID 
POINTS 175 float 
-0.026061 -1.997130 0.000000 
-0.106992 -1.929075 0.000000 
-0.054870 -1.937307 0.000000 
-0.028809 -1.891424 0.000000 
-0.186430 -1.864999 0.000000 
-0.137056 -1.867525 0.000000 
-0.114311 -1.813878 0.000000 
-0.058186 -1.829544 0.000000 
-0.029377 -1.789367 0.000000 
-0.265318 -1.801844 0.000000 
-0.217198 -1.802643 0.000000 
-0.196633 -1.745347 0.000000 
-0.143120 -1.754055 0.000000 
-0.116563 -1.706787 0.000000 
-0.058945 -1.726432 0.000000 
-0.029568 -1.688312 0.000000 
-0.344206 -1.738688 0.000000 
-0.296791 -1.738681 0.000000 
-0.278030 -1.678738 0.000000 
-0.225992 -1.684604 0.000000 
-0.201664 -1.632487 0.000000 
-0.145749 -1.645961 0.000000 
-0.117890 -1.601618 0.000000 
-0.059328 -1.624324 0.000000 
-0.029759 -1.587258 0.000000 
-0.058559 -2.037881 0.000000 
-0.162226 -2.058724 0.000000 
-0.123292 -2.023106 0.000000 
-0.142917 -1.974123 0.000000 
-0.261851 -2.080880 0.000000 
-0.229092 -2.043853 0.000000 
-0.256854 -1.992621 0.000000 
-0.209613 -1.958509 0.000000 
-0.223062 -1.910935 0.000000 
-0.360414 -2.103180 0.000000 
-0.329787 -2.066057 0.000000 
-0.361761 -2.014255 0.000000 
-0.321587 -1.977846 0.000000 
-0.341985 -1.927612 0.000000 
-0.290702 -1.894813 0.000000 
-0.302189 -1.848078 0.000000 
-0.458977 -2.125480 0.000000 
-0.429420 -2.088406 0.000000 
-0.464588 -2.036364 0.000000 
-0.427556 -1.999336 0.000000 
-0.453135 -1.947822 0.000000 
-0.407738 -1.912506 0.000000 
-0.425037 -1.863078 0.000000 
-0.370772 -1.831449 0.000000 
-0.381315 -1.785222 0.000000 
-0.046960 -2.088696 0.000000 
-0.095301 -2.182742 0.000000 
-0.098873 -2.130095 0.000000 
-0.149405 -2.114897 0.000000 
-0.140093 -2.274446 0.000000 
-0.148617 -2.225748 0.000000 
-0.205981 -2.215511 0.000000 
-0.203197 -2.157307 0.000000 
-0.248777 -2.138161 0.000000 
-0.184111 -2.365410 0.000000 
-0.194039 -2.318319 0.000000 
-0.254475 -2.311019 0.000000 
-0.257893 -2.256909 0.000000 
-0.309886 -2.241537 0.000000 
-0.303554 -2.180992 0.000000 
-0.347255 -2.160834 0.000000 
-0.228129 -2.456373 0.000000 
-0.238687 -2.410149 0.000000 
-0.301302 -2.405197 0.000000 
-0.307162 -2.353158 0.000000 
-0.363386 -2.341037 0.000000 
-0.362692 -2.283526 0.000000 
-0.412122 -2.266233 0.000000 
-0.403017 -2.204086 0.000000 
-0.445733 -2.183507 0.000000 
-0.000000 -2.111311 0.000000 
0.043388 -2.207742 0.000000 
-0.000000 -2.177709 0.000000 
-0.043388 -2.207742 0.000000 
0.087158 -2.299938 0.000000 
0.043769 -2.276240 0.000000 
-0.000000 -2.314706 0.000000 
-0.043769 -2.276240 0.000000 
-0.087158 -2.299938 0.000000 
0.130831 -2.391068 0.000000 
0.087824 -2.369469 0.000000 
0.044436 -2.412169 0.000000 
-0.000000 -2.381104 0.000000 
-0.044436 -2.412169 0.000000 
-0.087824 -2.369469 0.000000 
-0.130831 -2.391068 0.000000 
0.174505 -2.482198 0.000000 
0.131782 -2.461632 0.000000 
0.088871 -2.507498 0.000000 
0.044532 -2.479634 0.000000 
-0.000000 -2.516035 0.000000 
-0.044532 -2.479634 0.000000 
-0.088871 -2.507498 0.000000 
-0.131782 -2.461632 0.000000 
-0.174505 -2.482198 0.000000 
0.046960 -2.088696 0.000000 
0.149405 -2.114897 0.000000 
0.098873 -2.130095 0.000000 
0.095301 -2.182742 0.000000 
0.248777 -2.138161 0.000000 
0.203197 -2.157307 0.000000 
0.205981 -2.215511 0.000000 
0.148617 -2.225748 0.000000 
0.140093 -2.274446 0.000000 
0.347255 -2.160834 0.000000 
0.303554 -2.180992 0.000000 
0.309886 -2.241537 0.000000 
0.257893 -2.256909 0.000000 
0.254475 -2.311019 0.000000 
0.194039 -2.318319 0.000000 
0.184111 -2.365410 0.000000 
0.445733 -2.183507 0.000000 
0.403017 -2.204086 0.000000 
0.412122 -2.266233 0.000000 
0.362692 -2.283526 0.000000 
0.363386 -2.341037 0.000000 
0.307162 -2.353158 0.000000 
0.301302 -2.405197 0.000000 
0.238687 -2.410149 0.000000 
0.228129 -2.456373 0.000000 
0.058559 -2.037881 0.000000 
0.142917 -1.974123 0.000000 
0.123292 -2.023106 0.000000 
0.162226 -2.058724 0.000000 
0.223062 -1.910935 0.000000 
0.209613 -1.958509 0.000000 
0.256854 -1.992621 0.000000 
0.229092 -2.043853 0.000000 
0.261851 -2.080880 0.000000 
0.302189 -1.848078 0.000000 
0.290702 -1.894813 0.000000 
0.341985 -1.927612 0.000000 
0.321587 -1.977846 0.000000 
0.361761 -2.014255 0.000000 
0.329787 -2.066057 0.000000 
0.360414 -2.103180 0.000000 
0.381315 -1.785222 0.000000 
0.370772 -1.831449 0.000000 
0.425037 -1.863078 0.000000 
0.407738 -1.912506 0.000000 
0.453135 -1.947822 0.000000 
0.427556 -1.999336 0.000000 
0.464588 -2.036364 0.000000 
0.429420 -2.088406 0.000000 
0.458977 -2.125480 0.000000 
0.026061 -1.997130 0.000000 
0.028809 -1.891424 0.000000 
0.054870 -1.937307 0.000000 
0.106992 -1.929075 0.000000 
0.029377 -1.789367 0.000000 
0.058186 -1.829544 0.000000 
0.114311 -1.813878 0.000000 
0.137056 -1.867526 0.000000 
0.186430 -1.864999 0.000000 
0.029568 -1.688312 0.000000 
0.058945 -1.726432 0.000000 
0.116563 -1.706787 0.000000 
0.143120 -1.754055 0.000000 
0.196633 -1.745347 0.000000 
0.217198 -1.802643 0.000000 
0.265318 -1.801844 0.000000 
0.029759 -1.587258 0.000000 
0.059328 -1.624324 0.000000 
0.117890 -1.601618 0.000000 
0.145749 -1.645961 0.000000 
0.201664 -1.632487 0.000000 
0.225992 -1.684604 0.000000 
0.278030 -1.678738 0.000000 
0.296791 -1.738681 0.000000 
0.344206 -1.738688 0.000000 
CELLS 175 350 
1 0 
1 1 
1 2 
1 3 
1 4 
1 5 
1 6 
1 7 
1 8 
1 9 
1 10 
1 11 
1 12 
1 13 
1 14 
1 15 
1 16 
1 17 
1 18 
1 19 
1 20 
1 21 
1 22 
1 23 
1 24 
1 25 
1 26 
1 27 
1 28 
1 29 
1 30 
1 31 
1 32 
1 33 
1 34 
1 35 
1 36 
1 37 
1 38 
1 39 
1 40 
1 41 
1 42 
1 43 
1 44 
1 45 
1 46 
1 47 
1 48 
1 49 
1 50 
1 51 
1 52 
1 53 
1 54 
1 55 
1 56 
1 57 
1 58 
1 59 
1 60 
1 61 
1 62 
1 63 
1 64 
1 65 
1 66 
1 67 
1 68 
1 69 
1 70 
1 71 
1 72 
1 73 
1 74 
1 75 
1 76 
1 77 
1 78 
1 79 
1 80 
1 81 
1 82 
1 83 
1 84 
1 85 
1 86 
1 87 
1 88 
1 89 
1 90 
1 91 
1 92 
1 93 
1 94 
1 95 
1 96 
1 97 
1 98 
1 99 
1 100 
1 101 
1 102 
1 103 
1 104 
1 105 
1 106 
1 107 
1 108 
1 109 
1 110 
1 111 
1 112 
1 113 
1 114 
1 115 
1 116 
1 117 
1 118 
1 119 
1 120 
1 121 
1 122 
1 123 
1 124 
1 125 
1 126 
1 127 
1 128 
1 129 
1 130 
1 131 
1 132 
1 133 
1 134 
1 135 
1 136 
1 137 
1 138 
1 139 
1 140 
1 141 
1 142 
1 143 
1 144 
1 145 
1 146 
1 147 
1 148 
1 149 
1 150 
1 151 
1 152 
1 153 
1 154 
1 155 
1 156 
1 157 
1 158 
1 159 
1 160 
1 161 
1 162 
1 163 
1 164 
1 165 
1 166 
1 167 
1 168 
1 169 
1 170 
1 171 
1 172 
1 173 
1 174 
CELL_TYPES 175 
1 
1 
1 
1 
1 
1 
1 
1 
1 
1 
1 
1 
1 
1 
1 
1 
1 
1 
1 
1 
1 
1 
1 
1 
1 
1 
1 
1 
1 
1 
1 
1 
1 
1 
1 
1 
1 
1 
1 
1 
1 
1 
1 
1 
1 
1 
1 
1 
1 
1 
1 
1 
1 
1 
1 
1 
1 
1 
1 
1 
1 
1 
1 
1 
1 
1 
1 
1 
1 
1 
1 
1 
1 
1 
1 
1 
1 
1 
1 
1 
1 
1 
1 
1 
1 
1 
1 
1 
1 
1 
1 
1 
1 
1 
1 
1 
1 
1 
1 
1 
1 
1 
1 
1 
1 
1 
1 
1 
1 
1 
1 
1 
1 
1 
1 
1 
1 
1 
1 
1 
1 
1 
1 
1 
1 
1 
1 
1 
1 
1 
1 
1 
1 
1 
1 
1 
1 
1 
1 
1 
1 
1 
1 
1 
1 
1 
1 
1 
1 
1 
1 
1 
1 
1 
1 
1 
1 
1 
1 
1 
1 
1 
1 
1 
1 
1 
1 
1 
1 
1 
1 
1 
1 
1 
1 
POINT_DATA 175 
VECTORS X_GC float 
-0.026061 -1.997130 0.000000 
-0.106992 -1.929075 0.000000 
-0.054870 -1.937307 0.000000 
-0.028809 -1.891424 0.000000 
-0.186430 -1.864999 0.000000 
-0.137056 -1.867525 0.000000 
-0.114311 -1.813878 0.000000 
-0.058186 -1.829544 0.000000 
-0.029377 -1.789367 0.000000 
-0.265318 -1.801844 0.000000 
-0.217198 -1.802643 0.000000 
-0.196633 -1.745347 0.000000 
-0.143120 -1.754055 0.000000 
-0.116563 -1.706787 0.000000 
-0.058945 -1.726432 0.000000 
-0.029568 -1.688312 0.000000 
-0.344206 -1.738688 0.000000 
-0.296791 -1.738681 0.000000 
-0.278030 -1.678738 0.000000 
-0.225992 -1.684604 0.000000 
-0.201664 -1.632487 0.000000 
-0.145749 -1.645961 0.000000 
-0.117890 -1.601618 0.000000 
-0.059328 -1.624324 0.000000 
-0.029759 -1.587258 0.000000 
-0.058559 -2.037881 0.000000 
-0.162226 -2.058724 0.000000 
-0.123292 -2.023106 0.000000 
-0.142917 -1.974123 0.000000 
-0.261851 -2.080880 0.000000 
-0.229092 -2.043853 0.000000 
-0.256854 -1.992621 0.000000 
-0.209613 -1.958509 0.000000 
-0.223062 -1.910935 0.000000 
-0.360414 -2.103180 0.000000 
-0.329787 -2.066057 0.000000 
-0.361761 -2.014255 0.000000 
-0.321587 -1.977846 0.000000 
-0.341985 -1.927612 0.000000 
-0.290702 -1.894813 0.000000 
-0.302189 -1.848078 0.000000 
-0.458977 -2.125480 0.000000 
-0.429420 -2.088406 0.000000 
-0.464588 -2.036364 0.000000 
-0.427556 -1.999336 0.000000 
-0.453135 -1.947822 0.000000 
-0.407738 -1.912506 0.000000 
-0.425037 -1.863078 0.000000 
-0.370772 -1.831449 0.000000 
-0.381315 -1.785222 0.000000 
-0.046960 -2.088696 0.000000 
-0.095301 -2.182742 0.000000 
-0.098873 -2.130095 0.000000 
-0.149405 -2.114897 0.000000 
-0.140093 -2.274446 0.000000 
-0.148617 -2.225748 0.000000 
-0.205981 -2.215511 0.000000 
-0.203197 -2.157307 0.000000 
-0.248777 -2.138161 0.000000 
-0.184111 -2.365410 0.000000 
-0.194039 -2.318319 0.000000 
-0.254475 -2.311019 0.000000 
-0.257893 -2.256909 0.000000 
-0.309886 -2.241537 0.000000 
-0.303554 -2.180992 0.000000 
-0.347255 -2.160834 0.000000 
-0.228129 -2.456373 0.000000 
-0.238687 -2.410149 0.000000 
-0.301302 -2.405197 0.000000 
-0.307162 -2.353158 0.000000 
-0.363386 -2.341037 0.000000 
-0.362692 -2.283526 0.000000 
-0.412122 -2.266233 0.000000 
-0.403017 -2.204086 0.000000 
-0.445733 -2.183507 0.000000 
-0.000000 -2.111311 0.000000 
0.043388 -2.207742 0.000000 
-0.000000 -2.177709 0.000000 
-0.043388 -2.207742 0.000000 
0.087158 -2.299938 0.000000 
0.043769 -2.276240 0.000000 
-0.000000 -2.314706 0.000000 
-0.043769 -2.276240 0.000000 
-0.087158 -2.299938 0.000000 
0.130831 -2.391068 0.000000 
0.087824 -2.369469 0.000000 
0.044436 -2.412169 0.000000 
-0.000000 -2.381104 0.000000 
-0.044436 -2.412169 0.000000 
-0.087824 -2.369469 0.000000 
-0.130831 -2.391068 0.000000 
0.174505 -2.482198 0.000000 
0.131782 -2.461632 0.000000 
0.088871 -2.507498 0.000000 
0.044532 -2.479634 0.000000 
-0.000000 -2.516035 0.000000 
-0.044532 -2.479634 0.000000 
-0.088871 -2.507498 0.000000 
-0.131782 -2.461632 0.000000 
-0.174505 -2.482198 0.000000 
0.046960 -2.088696 0.000000 
0.149405 -2.114897 0.000000 
0.098873 -2.130095 0.000000 
0.095301 -2.182742 0.000000 
0.248777 -2.138161 0.000000 
0.203197 -2.157307 0.000000 
0.205981 -2.215511 0.000000 
0.148617 -2.225748 0.000000 
0.140093 -2.274446 0.000000 
0.347255 -2.160834 0.000000 
0.303554 -2.180992 0.000000 
0.309886 -2.241537 0.000000 
0.257893 -2.256909 0.000000 
0.254475 -2.311019 0.000000 
0.194039 -2.318319 0.000000 
0.184111 -2.365410 0.000000 
0.445733 -2.183507 0.000000 
0.403017 -2.204086 0.000000 
0.412122 -2.266233 0.000000 
0.362692 -2.283526 0.000000 
0.363386 -2.341037 0.000000 
0.307162 -2.353158 0.000000 
0.301302 -2.405197 0.000000 
0.238687 -2.410149 0.000000 
0.228129 -2.456373 0.000000 
0.058559 -2.037881 0.000000 
0.142917 -1.974123 0.000000 
0.123292 -2.023106 0.000000 
0.162226 -2.058724 0.000000 
0.223062 -1.910935 0.000000 
0.209613 -1.958509 0.000000 
0.256854 -1.992621 0.000000 
0.229092 -2.043853 0.000000 
0.261851 -2.080880 0.000000 
0.302189 -1.848078 0.000000 
0.290702 -1.894813 0.000000 
0.341985 -1.927612 0.000000 
0.321587 -1.977846 0.000000 
0.361761 -2.014255 0.000000 
0.329787 -2.066057 0.000000 
0.360414 -2.103180 0.000000 
0.381315 -1.785222 0.000000 
0.370772 -1.831449 0.000000 
0.425037 -1.863078 0.000000 
0.407738 -1.912506 0.000000 
0.453135 -1.947822 0.000000 
0.427556 -1.999336 0.000000 
0.464588 -2.036364 0.000000 
0.429420 -2.088406 0.000000 
0.458977 -2.125480 0.000000 
0.026061 -1.997130 0.000000 
0.028809 -1.891424 0.000000 
0.054870 -1.937307 0.000000 
0.106992 -1.929075 0.000000 
0.029377 -1.789367 0.000000 
0.058186 -1.829544 0.000000 
0.114311 -1.813878 0.000000 
0.137056 -1.867526 0.000000 
0.186430 -1.864999 0.000000 
0.029568 -1.688312 0.000000 
0.058945 -1.726432 0.000000 
0.116563 -1.706787 0.000000 
0.143120 -1.754055 0.000000 
0.196633 -1.745347 0.000000 
0.217198 -1.802643 0.000000 
0.265318 -1.801844 0.000000 
0.029759 -1.587258 0.000000 
0.059328 -1.624324 0.000000 
0.117890 -1.601618 0.000000 
0.145749 -1.645961 0.000000 
0.201664 -1.632487 0.000000 
0.225992 -1.684604 0.000000 
0.278030 -1.678738 0.000000 
0.296791 -1.738681 0.000000 
0.344206 -1.738688 0.000000 
VECTORS X_EC float 
0.338794 -0.538742 0.000000 
-0.609100 0.542510 0.000000 
0.713312 0.653651 0.000000 
0.374519 0.034221 0.000000 
0.423588 -0.322509 0.000000 
-0.218274 -0.288406 0.000000 
-0.513962 0.987355 0.000000 
0.756418 -0.801158 0.000000 
0.381900 0.656449 0.000000 
-0.550868 0.824888 0.000000 
0.823577 0.835683 0.000000 
0.556234 0.062179 0.000000 
-0.139443 0.179748 0.000000 
-0.484677 -0.458377 0.000000 
0.766286 -0.193162 0.000000 
0.384386 -0.707782 0.000000 
0.474677 -0.027716 0.000000 
-0.141715 -0.027812 0.000000 
-0.385608 -0.837040 0.000000 
0.937896 -0.757845 0.000000 
0.621631 0.538575 0.000000 
-0.105264 0.720474 0.000000 
-0.467428 0.121848 0.000000 
0.771260 0.428377 0.000000 
0.386873 -0.072013 0.000000 
0.761262 0.011393 0.000000 
0.108942 0.292769 0.000000 
-0.397202 -0.188070 0.000000 
-0.142083 -0.849345 0.000000 
-0.595936 0.591880 0.000000 
0.978194 0.092014 0.000000 
-0.660903 -0.599611 0.000000 
0.724964 0.939869 0.000000 
0.899809 0.297621 0.000000 
0.685384 0.892932 0.000000 
0.287229 0.391774 0.000000 
0.702895 -0.307555 0.000000 
0.180633 -0.799073 0.000000 
0.445811 0.522767 0.000000 
-0.220880 0.079981 0.000000 
-0.071546 -0.550944 0.000000 
-0.033296 -0.806016 0.000000 
-0.417537 0.693475 0.000000 
0.039645 -0.009088 0.000000 
-0.441768 -0.508959 0.000000 
-0.109248 0.795591 0.000000 
-0.699407 0.318835 0.000000 
-0.474522 -0.348444 0.000000 
0.820030 -0.775438 0.000000 
0.957100 0.600491 0.000000 
0.610485 0.697399 0.000000 
-0.761092 -0.032981 0.000000 
-0.714655 -0.743719 0.000000 
-0.057734 -0.948886 0.000000 
-0.178789 -0.794977 0.000000 
-0.067979 0.547597 0.000000 
0.677748 0.409393 0.000000 
0.641556 -0.376352 0.000000 
-0.765897 -0.634831 0.000000 
0.393446 0.433032 0.000000 
0.522510 -0.202698 0.000000 
-0.691820 -0.301242 0.000000 
-0.647393 0.968275 0.000000 
0.028512 0.760748 0.000000 
-0.053800 -0.056612 0.000000 
0.514316 -0.328743 0.000000 
0.965681 -0.338959 0.000000 
-0.897068 -0.962988 0.000000 
-0.083078 0.970159 0.000000 
-0.006893 0.267635 0.000000 
0.724017 0.104002 0.000000 
0.714996 -0.672402 0.000000 
-0.642413 -0.905859 0.000000 
-0.760780 0.255160 0.000000 
-0.205471 -0.022655 0.000000 
0.000000 -0.997299 0.000000 
-0.564049 0.304514 0.000000 
0.000000 -0.100922 0.000000 
0.564049 0.304514 0.000000 
0.866949 -0.450831 0.000000 
-0.569003 -0.770762 0.000000 
0.000000 -0.251474 0.000000 
0.569003 -0.770762 0.000000 
-0.866949 -0.450831 0.000000 
0.299194 0.779419 0.000000 
0.858290 0.487835 0.000000 
-0.577662 -0.935719 0.000000 
0.000000 0.644903 0.000000 
0.577662 -0.935719 0.000000 
-0.858290 0.487835 0.000000 
-0.299194 0.779419 0.000000 
-0.268560 0.009669 0.000000 
0.286830 -0.267973 0.000000 
0.844677 0.351226 0.000000 
-0.578910 -0.024937 0.000000 
0.000000 0.466467 0.000000 
0.578910 -0.024937 0.000000 
-0.844677 0.351226 0.000000 
-0.286830 -0.267973 0.000000 
0.268560 0.009669 0.000000 
-0.610485 0.697399 0.000000 
0.057734 -0.948886 0.000000 
0.714655 -0.743719 0.000000 
0.761092 -0.032981 0.000000 
0.765897 -0.634831 0.000000 
-0.641556 -0.376352 0.000000 
-0.677748 0.409393 0.000000 
0.067979 0.547597 0.000000 
0.178789 -0.794977 0.000000 
-0.514316 -0.328743 0.000000 
0.053800 -0.056612 0.000000 
-0.028512 0.760748 0.000000 
0.647393 0.968275 0.000000 
0.691820 -0.301242 0.000000 
-0.522510 -0.202698 0.000000 
-0.393446 0.433032 0.000000 
0.205471 -0.022655 0.000000 
0.760780 0.255160 0.000000 
0.642413 -0.905859 0.000000 
-0.714996 -0.672402 0.000000 
-0.724017 0.104002 0.000000 
0.006894 0.267635 0.000000 
0.083078 0.970159 0.000000 
0.897068 -0.962988 0.000000 
-0.965681 -0.338959 0.000000 
-0.761262 0.011393 0.000000 
0.142083 -0.849345 0.000000 
0.397202 -0.188070 0.000000 
-0.108942 0.292769 0.000000 
-0.899809 0.297621 0.000000 
-0.724964 0.939869 0.000000 
0.660903 -0.599611 0.000000 
-0.978194 0.092014 0.000000 
0.595936 0.591880 0.000000 
0.071546 -0.550944 0.000000 
0.220880 0.079981 0.000000 
-0.445811 0.522767 0.000000 
-0.180633 -0.799073 0.000000 
-0.702895 -0.307555 0.000000 
-0.287229 0.391774 0.000000 
-0.685384 0.892932 0.000000 
-0.957100 0.600491 0.000000 
-0.820030 -0.775438 0.000000 
0.474522 -0.348444 0.000000 
0.699407 0.318835 0.000000 
0.109248 0.795591 0.000000 
0.441768 -0.508959 0.000000 
-0.039645 -0.009088 0.000000 
0.417537 0.693475 0.000000 
0.033296 -0.806016 0.000000 
-0.338794 -0.538742 0.000000 
-0.374519 0.034221 0.000000 
-0.713312 0.653651 0.000000 
0.609100 0.542510 0.000000 
-0.381900 0.656449 0.000000 
-0.756418 -0.801158 0.000000 
0.513962 0.987355 0.000000 
0.218274 -0.288406 0.000000 
-0.423588 -0.322509 0.000000 
-0.384386 -0.707782 0.000000 
-0.766286 -0.193162 0.000000 
0.484677 -0.458377 0.000000 
0.139443 0.179748 0.000000 
-0.556234 0.062179 0.000000 
-0.823577 0.835683 0.000000 
0.550868 0.824888 0.000000 
-0.386873 -0.072013 0.000000 
-0.771260 0.428377 0.000000 
0.467428 0.121848 0.000000 
0.105264 0.720474 0.000000 
-0.621631 0.538575 0.000000 
-0.937896 -0.757845 0.000000 
0.385608 -0.837040 0.000000 
0.141715 -0.027812 0.000000 
-0.474677 -0.027716 0.000000 
CELL_DATA 175 
SCALARS MASS float 
LOOKUP_TABLE default 
0.078183 
0.086427 
0.094672 
0.086427 
0.088131 
0.092111 
0.085854 
0.092111 
0.088131 
0.088705 
0.091000 
0.086983 
0.091556 
0.086983 
0.091000 
0.088705 
0.089278 
0.091574 
0.089278 
0.092722 
0.089278 
0.092722 
0.089278 
0.091574 
0.089278 
0.078183 
0.086427 
0.094672 
0.086427 
0.088131 
0.092111 
0.085854 
0.092111 
0.088131 
0.088705 
0.091000 
0.086983 
0.091556 
0.086983 
0.091000 
0.088705 
0.089278 
0.091574 
0.089278 
0.092722 
0.089278 
0.092722 
0.089278 
0.091574 
0.089278 
0.078183 
0.086427 
0.094672 
0.086427 
0.088131 
0.092111 
0.085854 
0.092111 
0.088131 
0.088705 
0.091000 
0.086983 
0.091556 
0.086983 
0.091000 
0.088705 
0.089278 
0.091574 
0.089278 
0.092722 
0.089278 
0.092722 
0.089278 
0.091574 
0.089278 
0.078183 
0.086427 
0.094672 
0.086427 
0.088131 
0.092111 
0.085854 
0.092111 
0.088131 
0.088705 
0.091000 
0.086983 
0.091556 
0.086983 
0.091000 
0.088705 
0.089278 
0.091574 
0.089278 
0.092722 
0.089278 
0.092722 
0.089278 
0.091574 
0.089278 
0.078183 
0.086427 
0.094672 
0.086427 
0.088131 
0.092111 
0.085854 
0.092111 
0.088131 
0.088705 
0.091000 
0.086983 
0.091556 
0.086983 
0.091000 
0.088705 
0.089278 
0.091574 
0.089278 
0.092722 
0.089278 
0.092722 
0.089278 
0.091574 
0.089278 
0.078183 
0.086427 
0.094672 
0.086427 
0.088131 
0.092111 
0.085854 
0.092111 
0.088131 
0.088705 
0.091000 
0.086983 
0.091556 
0.086983 
0.091000 
0.088705 
0.089278 
0.091574 
0.089278 
0.092722 
0.089278 
0.092722 
0.089278 
0.091574 
0.089278 
0.078183 
0.086427 
0.094672 
0.086427 
0.088131 
0.092111 
0.085854 
0.092111 
0.088131 
0.088705 
0.091000 
0.086983 
0.091556 
0.086983 
0.091000 
0.088705 
0.089278 
0.091574 
0.089278 
0.092722 
0.089278 
0.092722 
0.089278 
0.091574 
0.089278 
SCALARS MASS float 
LOOKUP_TABLE default 
0.078183 
0.086427 
0.094672 
0.086427 
0.088131 
0.092111 
0.085854 
0.092111 
0.088131 
0.088705 
0.091000 
0.086983 
0.091556 
0.086983 
0.091000 
0.088705 
0.089278 
0.091574 
0.089278 
0.092722 
0.089278 
0.092722 
0.089278 
0.091574 
0.089278 
0.078183 
0.086427 
0.094672 
0.086427 
0.088131 
0.092111 
0.085854 
0.092111 
0.088131 
0.088705 
0.091000 
0.086983 
0.091556 
0.086983 
0.091000 
0.088705 
0.089278 
0.091574 
0.089278 
0.092722 
0.089278 
0.092722 
0.089278 
0.091574 
0.089278 
0.078183 
0.086427 
0.094672 
0.086427 
0.088131 
0.092111 
0.085854 
0.092111 
0.088131 
0.088705 
0.091000 
0.086983 
0.091556 
0.086983 
0.091000 
0.088705 
0.089278 
0.091574 
0.089278 
0.092722 
0.089278 
0.092722 
0.089278 
0.091574 
0.089278 
0.078183 
0.086427 
0.094672 
0.086427 
0.088131 
0.092111 
0.085854 
0.092111 
0.088131 
0.088705 
0.091000 
0.086983 
0.091556 
0.086983 
0.091000 
0.088705 
0.089278 
0.091574 
0.089278 
0.092722 
0.089278 
0.092722 
0.089278 
0.091574 
0.089278 
0.078183 
0.086427 
0.094672 
0.086427 
0.088131 
0.092111 
0.085854 
0.092111 
0.088131 
0.088705 
0.091000 
0.086983 
0.091556 
0.086983 
0.091000 
0.088705 
0.089278 
0.091574 
0.089278 
0.092722 
0.089278 
0.092722 
0.089278 
0.091574 
0.089278 
0.078183 
0.086427 
0.094672 
0.086427 
0.088131 
0.092111 
0.085854 
0.092111 
0.088131 
0.088705 
0.091000 
0.086983 
0.091556 
0.086983 
0.091000 
0.088705 
0.089278 
0.091574 
0.089278 
0.092722 
0.089278 
0.092722 
0.089278 
0.091574 
0.089278 
0.078183 
0.086427 
0.094672 
0.086427 
0.088131 
0.092111 
0.085854 
0.092111 
0.088131 
0.088705 
0.091000 
0.086983 
0.091556 
0.086983 
0.091000 
0.088705 
0.089278 
0.091574 
0.089278 
0.092722 
0.089278 
0.092722 
0.089278 
0.091574 
0.089278 
SCALARS DENSITY float 
LOOKUP_TABLE default 
20.000000 
20.000000 
20.000000 
20.000000 
20.000000 
20.000000 
20.000000 
20.000000 
20.000000 
20.000000 
20.000000 
20.000000 
20.000000 
20.000000 
20.000000 
20.000000 
20.000000 
20.000000 
20.000000 
20.000000 
20.000000 
20.000000 
20.000000 
20.000000 
20.000000 
20.000000 
20.000000 
20.000000 
20.000000 
20.000000 
20.000000 
20.000000 
20.000000 
20.000000 
20.000000 
20.000000 
20.000000 
20.000000 
20.000000 
20.000000 
20.000000 
20.000000 
20.000000 
20.000000 
20.000000 
20.000000 
20.000000 
20.000000 
20.000000 
20.000000 
20.000000 
20.000000 
20.000000 
20.000000 
20.000000 
20.000000 
20.000000 
20.000000 
20.000000 
20.000000 
20.000000 
20.000000 
20.000000 
20.000000 
20.000000 
20.000000 
20.000000 
20.000000 
20.000000 
20.000000 
20.000000 
20.000000 
20.000000 
20.000000 
20.000000 
20.000000 
20.000000 
20.000000 
20.000000 
20.000000 
20.000000 
20.000000 
20.000000 
20.000000 
20.000000 
20.000000 
20.000000 
20.000000 
20.000000 
20.000000 
20.000000 
20.000000 
20.000000 
20.000000 
20.000000 
20.000000 
20.000000 
20.000000 
20.000000 
20.000000 
20.000000 
20.000000 
20.000000 
20.000000 
20.000000 
20.000000 
20.000000 
20.000000 
20.000000 
20.000000 
20.000000 
20.000000 
20.000000 
20.000000 
20.000000 
20.000000 
20.000000 
20.000000 
20.000000 
20.000000 
20.000000 
20.000000 
20.000000 
20.000000 
20.000000 
20.000000 
20.000000 
20.000000 
20.000000 
20.000000 
20.000000 
20.000000 
20.000000 
20.000000 
20.000000 
20.000000 
20.000000 
20.000000 
20.000000 
20.000000 
20.000000 
20.000000 
20.000000 
20.000000 
20.000000 
20.000000 
20.000000 
20.000000 
20.000000 
20.000000 
20.000000 
20.000000 
20.000000 
20.000000 
20.000000 
20.000000 
20.000000 
20.000000 
20.000000 
20.000000 
20.000000 
20.000000 
20.000000 
20.000000 
20.000000 
20.000000 
20.000000 
20.000000 
20.000000 
20.000000 
20.000000 
20.000000 
20.000000 
20.000000 
20.000000 
SCALARS ELEM_i float 
LOOKUP_TABLE default 
168 
196 
169 
169 
196 
196 
197 
169 
170 
224 
197 
197 
197 
197 
170 
170 
224 
224 
224 
197 
198 
198 
198 
171 
171 
168 
195 
195 
195 
222 
195 
222 
196 
196 
222 
222 
222 
222 
223 
223 
223 
248 
249 
249 
249 
250 
250 
250 
223 
224 
168 
194 
194 
194 
193 
194 
194 
194 
221 
193 
193 
220 
221 
221 
221 
221 
192 
219 
220 
220 
220 
220 
247 
248 
248 
167 
167 
167 
167 
139 
166 
166 
166 
193 
139 
139 
165 
166 
165 
193 
193 
138 
138 
138 
165 
165 
165 
192 
192 
192 
168 
140 
140 
140 
113 
140 
140 
140 
139 
113 
113 
113 
113 
112 
139 
139 
86 
86 
85 
112 
112 
112 
112 
111 
138 
168 
141 
141 
141 
142 
142 
114 
141 
114 
115 
115 
115 
114 
114 
114 
114 
116 
115 
88 
88 
88 
87 
87 
87 
86 
168 
169 
169 
142 
170 
169 
143 
142 
142 
170 
170 
143 
143 
143 
143 
116 
171 
171 
144 
144 
144 
143 
116 
116 
116 
VECTORS VELOCITY float 
-0.000000 -6.343538 0.000000 
0.000000 -6.343538 0.000000 
0.000000 -6.343538 0.000000 
0.000000 -6.343538 0.000000 
0.000000 -6.343538 0.000000 
0.000000 -6.343538 0.000000 
-0.000000 -6.343538 0.000000 
-0.000000 -6.343538 0.000000 
-0.000000 -6.343538 0.000000 
0.000000 -6.343538 0.000000 
0.000000 -6.343538 0.000000 
-0.000000 -6.343538 0.000000 
-0.000000 -6.343538 0.000000 
0.000000 -6.343538 0.000000 
0.000000 -6.343538 0.000000 
0.000000 -6.343538 0.000000 
0.000000 -6.343538 0.000000 
-0.000000 -6.343538 0.000000 
-0.000000 -6.343538 0.000000 
0.000000 -6.343538 0.000000 
-0.000000 -6.343538 0.000000 
0.000000 -6.343538 0.000000 
-0.000000 -6.343538 0.000000 
0.000000 -6.343538 0.000000 
0.000000 -6.343538 0.000000 
-0.000000 -6.343538 0.000000 
-0.000000 -6.343538 0.000000 
-0.000000 -6.343538 0.000000 
0.000000 -6.343538 0.000000 
-0.000000 -6.343538 0.000000 
-0.000000 -6.343538 0.000000 
-0.000000 -6.343538 0.000000 
0.000000 -6.343538 0.000000 
0.000000 -6.343538 0.000000 
-0.000000 -6.343538 0.000000 
-0.000000 -6.343538 0.000000 
0.000000 -6.343538 0.000000 
0.000000 -6.343538 0.000000 
0.000000 -6.343538 0.000000 
0.000000 -6.343538 0.000000 
0.000000 -6.343538 0.000000 
-0.000000 -6.343538 0.000000 
-0.000000 -6.343538 0.000000 
-0.000000 -6.343538 0.000000 
0.000000 -6.343538 0.000000 
-0.000000 -6.343538 0.000000 
-0.000000 -6.343538 0.000000 
0.000000 -6.343538 0.000000 
-0.000000 -6.343538 0.000000 
0.000000 -6.343538 0.000000 
-0.000000 -6.343538 0.000000 
-0.000000 -6.343538 0.000000 
0.000000 -6.343538 0.000000 
-0.000000 -6.343538 0.000000 
0.000000 -6.343538 0.000000 
0.000000 -6.343538 0.000000 
0.000000 -6.343538 0.000000 
0.000000 -6.343538 0.000000 
-0.000000 -6.343538 0.000000 
-0.000000 -6.343538 0.000000 
-0.000000 -6.343538 0.000000 
-0.000000 -6.343538 0.000000 
0.000000 -6.343538 0.000000 
0.000000 -6.343538 0.000000 
-0.000000 -6.343538 0.000000 
-0.000000 -6.343538 0.000000 
0.000000 -6.343538 0.000000 
-0.000000 -6.343538 0.000000 
0.000000 -6.343538 0.000000 
-0.000000 -6.343538 0.000000 
0.000000 -6.343538 0.000000 
0.000000 -6.343538 0.000000 
0.000000 -6.343538 0.000000 
-0.000000 -6.343538 0.000000 
-0.000000 -6.343538 0.000000 
0.000000 -6.343538 0.000000 
0.000000 -6.343538 0.000000 
0.000000 -6.343538 0.000000 
-0.000000 -6.343538 0.000000 
-0.000000 -6.343538 0.000000 
-0.000000 -6.343538 0.000000 
0.000000 -6.343538 0.000000 
0.000000 -6.343538 0.000000 
0.000000 -6.343538 0.000000 
-0.000000 -6.343538 0.000000 
-0.000000 -6.343538 0.000000 
-0.000000 -6.343538 0.000000 
0.000000 -6.343538 0.000000 
-0.000000 -6.343538 0.000000 
0.000000 -6.343538 0.000000 
-0.000000 -6.343538 0.000000 
-0.000000 -6.343538 0.000000 
-0.000000 -6.343538 0.000000 
-0.000000 -6.343538 0.000000 
-0.000000 -6.343538 0.000000 
-0.000000 -6.343538 0.000000 
0.000000 -6.343538 0.000000 
0.000000 -6.343538 0.000000 
0.000000 -6.343538 0.000000 
-0.000000 -6.343538 0.000000 
0.000000 -6.343538 0.000000 
0.000000 -6.343538 0.000000 
0.000000 -6.343538 0.000000 
0.000000 -6.343538 0.000000 
0.000000 -6.343538 0.000000 
0.000000 -6.343538 0.000000 
0.000000 -6.343538 0.000000 
0.000000 -6.343538 0.000000 
0.000000 -6.343538 0.000000 
-0.000000 -6.343538 0.000000 
0.000000 -6.343538 0.000000 
0.000000 -6.343538 0.000000 
0.000000 -6.343538 0.000000 
-0.000000 -6.343538 0.000000 
-0.000000 -6.343538 0.000000 
-0.000000 -6.343538 0.000000 
-0.000000 -6.343538 0.000000 
-0.000000 -6.343538 0.000000 
0.000000 -6.343538 0.000000 
-0.000000 -6.343538 0.000000 
-0.000000 -6.343538 0.000000 
-0.000000 -6.343538 0.000000 
0.000000 -6.343538 0.000000 
-0.000000 -6.343538 0.000000 
-0.000000 -6.343538 0.000000 
-0.000000 -6.343538 0.000000 
0.000000 -6.343538 0.000000 
0.000000 -6.343538 0.000000 
0.000000 -6.343538 0.000000 
-0.000000 -6.343538 0.000000 
0.000000 -6.343538 0.000000 
0.000000 -6.343538 0.000000 
0.000000 -6.343538 0.000000 
0.000000 -6.343538 0.000000 
-0.000000 -6.343538 0.000000 
-0.000000 -6.343538 0.000000 
-0.000000 -6.343538 0.000000 
0.000000 -6.343538 0.000000 
0.000000 -6.343538 0.000000 
0.000000 -6.343538 0.000000 
0.000000 -6.343538 0.000000 
0.000000 -6.343538 0.000000 
0.000000 -6.343538 0.000000 
0.000000 -6.343538 0.000000 
0.000000 -6.343538 0.000000 
0.000000 -6.343538 0.000000 
0.000000 -6.343538 0.000000 
-0.000000 -6.343538 0.000000 
0.000000 -6.343538 0.000000 
-0.000000 -6.343538 0.000000 
0.000000 -6.343538 0.000000 
-0.000000 -6.343538 0.000000 
-0.000000 -6.343538 0.000000 
-0.000000 -6.343538 0.000000 
0.000000 -6.343538 0.000000 
-0.000000 -6.343538 0.000000 
-0.000000 -6.343538 0.000000 
-0.000000 -6.343538 0.000000 
-0.000000 -6.343538 0.000000 
-0.000000 -6.343538 0.000000 
-0.000000 -6.343538 0.000000 
-0.000000 -6.343538 0.000000 
-0.000000 -6.343538 0.000000 
-0.000000 -6.343538 0.000000 
-0.000000 -6.343538 0.000000 
-0.000000 -6.343538 0.000000 
0.000000 -6.343538 0.000000 
0.000000 -6.343538 0.000000 
-0.000000 -6.343538 0.000000 
-0.000000 -6.343538 0.000000 
0.000000 -6.343538 0.000000 
0.000000 -6.343538 0.000000 
-0.000000 -6.343538 0.000000 
-0.000000 -6.343538 0.000000 
-0.000000 -6.343538 0.000000 
TENSORS STRESS float 
-0.000000 -0.000000 0.000000 
0.000000 -0.000000 0.000000 
0.000000 0.000000 0.000000 

0.000000 0.000000 0.000000 
0.000000 0.000000 0.000000 
0.000000 0.000000 0.000000 

-0.000000 0.000000 0.000000 
0.000000 -0.000000 0.000000 
0.000000 0.000000 0.000000 

-0.000000 0.000000 0.000000 
0.000000 -0.000000 0.000000 
0.000000 0.000000 0.000000 

-0.000000 -0.000000 0.000000 
0.000000 -0.000000 0.000000 
0.000000 0.000000 0.000000 

0.000000 -0.000000 0.000000 
0.000000 0.000000 0.000000 
0.000000 0.000000 0.000000 

0.000000 0.000000 0.000000 
0.000000 0.000000 0.000000 
0.000000 0.000000 0.000000 

-0.000000 -0.000000 0.000000 
0.000000 0.000000 0.000000 
0.000000 0.000000 0.000000 

-0.000000 -0.000000 0.000000 
0.000000 -0.000000 0.000000 
0.000000 0.000000 0.000000 

0.000000 0.000000 0.000000 
0.000000 0.000000 0.000000 
0.000000 0.000000 0.000000 

-0.000000 0.000000 0.000000 
0.000000 -0.000000 0.000000 
0.000000 0.000000 0.000000 

-0.000000 0.000000 0.000000 
0.000000 0.000000 0.000000 
0.000000 0.000000 0.000000 

-0.000000 0.000000 0.000000 