# vtk DataFile Version 3.0 
vtk output 
ASCII 
DATASET UNSTRUCTURED_GRID 
POINTS 175 float 
-0.026061 -0.306963 0.000000 
-0.106992 -0.238908 0.000000 
-0.054870 -0.247140 0.000000 
-0.028809 -0.201257 0.000000 
-0.186430 -0.174832 0.000000 
-0.137056 -0.177358 0.000000 
-0.114311 -0.123711 0.000000 
-0.058186 -0.139377 0.000000 
-0.029377 -0.099199 0.000000 
-0.265318 -0.111676 0.000000 
-0.217198 -0.112476 0.000000 
-0.196633 -0.055179 0.000000 
-0.143120 -0.063888 0.000000 
-0.116563 -0.016620 0.000000 
-0.058945 -0.036265 0.000000 
-0.029568 0.001855 0.000000 
-0.344206 -0.048520 0.000000 
-0.296791 -0.048513 0.000000 
-0.278030 0.011429 0.000000 
-0.225992 0.005563 0.000000 
-0.201664 0.057680 0.000000 
-0.145749 0.044206 0.000000 
-0.117890 0.088549 0.000000 
-0.059328 0.065843 0.000000 
-0.029759 0.102909 0.000000 
-0.058559 -0.347714 0.000000 
-0.162226 -0.368556 0.000000 
-0.123292 -0.332939 0.000000 
-0.142917 -0.283955 0.000000 
-0.261851 -0.390713 0.000000 
-0.229092 -0.353686 0.000000 
-0.256854 -0.302454 0.000000 
-0.209613 -0.268342 0.000000 
-0.223062 -0.220768 0.000000 
-0.360414 -0.413013 0.000000 
-0.329787 -0.375890 0.000000 
-0.361761 -0.324088 0.000000 
-0.321587 -0.287679 0.000000 
-0.341985 -0.237445 0.000000 
-0.290702 -0.204646 0.000000 
-0.302189 -0.157911 0.000000 
-0.458977 -0.435313 0.000000 
-0.429420 -0.398238 0.000000 
-0.464588 -0.346197 0.000000 
-0.427556 -0.309169 0.000000 
-0.453135 -0.257654 0.000000 
-0.407738 -0.222339 0.000000 
-0.425037 -0.172911 0.000000 
-0.370772 -0.141282 0.000000 
-0.381315 -0.095054 0.000000 
-0.046960 -0.398529 0.000000 
-0.095301 -0.492575 0.000000 
-0.098873 -0.439928 0.000000 
-0.149405 -0.424730 0.000000 
-0.140093 -0.584279 0.000000 
-0.148617 -0.535581 0.000000 
-0.205981 -0.525343 0.000000 
-0.203197 -0.467140 0.000000 
-0.248777 -0.447993 0.000000 
-0.184111 -0.675243 0.000000 
-0.194039 -0.628151 0.000000 
-0.254475 -0.620852 0.000000 
-0.257893 -0.566742 0.000000 
-0.309886 -0.551370 0.000000 
-0.303554 -0.490824 0.000000 
-0.347255 -0.470667 0.000000 
-0.228129 -0.766206 0.000000 
-0.238687 -0.719982 0.000000 
-0.301302 -0.715030 0.000000 
-0.307162 -0.662991 0.000000 
-0.363386 -0.650870 0.000000 
-0.362692 -0.593359 0.000000 
-0.412122 -0.576065 0.000000 
-0.403017 -0.513919 0.000000 
-0.445733 -0.493340 0.000000 
-0.000000 -0.421144 0.000000 
0.043388 -0.517574 0.000000 
-0.000000 -0.487542 0.000000 
-0.043388 -0.517574 0.000000 
0.087158 -0.609771 0.000000 
0.043769 -0.586073 0.000000 
-0.000000 -0.624538 0.000000 
-0.043769 -0.586073 0.000000 
-0.087158 -0.609771 0.000000 
0.130831 -0.700901 0.000000 
0.087824 -0.679302 0.000000 
0.044436 -0.722002 0.000000 
-0.000000 -0.690937 0.000000 
-0.044436 -0.722002 0.000000 
-0.087824 -0.679302 0.000000 
-0.130831 -0.700901 0.000000 
0.174505 -0.792030 0.000000 
0.131782 -0.771464 0.000000 
0.088871 -0.817331 0.000000 
0.044532 -0.789467 0.000000 
-0.000000 -0.825867 0.000000 
-0.044532 -0.789467 0.000000 
-0.088871 -0.817331 0.000000 
-0.131782 -0.771464 0.000000 
-0.174505 -0.792030 0.000000 
0.046960 -0.398529 0.000000 
0.149405 -0.424730 0.000000 
0.098873 -0.439928 0.000000 
0.095301 -0.492575 0.000000 
0.248777 -0.447993 0.000000 
0.203197 -0.467140 0.000000 
0.205981 -0.525343 0.000000 
0.148617 -0.535581 0.000000 
0.140093 -0.584279 0.000000 
0.347255 -0.470667 0.000000 
0.303554 -0.490824 0.000000 
0.309886 -0.551370 0.000000 
0.257893 -0.566742 0.000000 
0.254475 -0.620852 0.000000 
0.194039 -0.628151 0.000000 
0.184111 -0.675243 0.000000 
0.445733 -0.493340 0.000000 
0.403017 -0.513919 0.000000 
0.412122 -0.576065 0.000000 
0.362692 -0.593359 0.000000 
0.363386 -0.650870 0.000000 
0.307162 -0.662991 0.000000 
0.301302 -0.715030 0.000000 
0.238687 -0.719982 0.000000 
0.228129 -0.766206 0.000000 
0.058559 -0.347714 0.000000 
0.142917 -0.283955 0.000000 
0.123292 -0.332939 0.000000 
0.162226 -0.368556 0.000000 
0.223062 -0.220768 0.000000 
0.209613 -0.268342 0.000000 
0.256854 -0.302454 0.000000 
0.229092 -0.353686 0.000000 
0.261851 -0.390713 0.000000 
0.302189 -0.157911 0.000000 
0.290702 -0.204646 0.000000 
0.341985 -0.237445 0.000000 
0.321587 -0.287679 0.000000 
0.361761 -0.324088 0.000000 
0.329787 -0.375890 0.000000 
0.360414 -0.413013 0.000000 
0.381315 -0.095054 0.000000 
0.370772 -0.141282 0.000000 
0.425037 -0.172911 0.000000 
0.407738 -0.222339 0.000000 
0.453135 -0.257654 0.000000 
0.427556 -0.309169 0.000000 
0.464588 -0.346197 0.000000 
0.429420 -0.398238 0.000000 
0.458977 -0.435313 0.000000 
0.026061 -0.306963 0.000000 
0.028809 -0.201257 0.000000 
0.054870 -0.247140 0.000000 
0.106992 -0.238908 0.000000 
0.029377 -0.099199 0.000000 
0.058186 -0.139377 0.000000 
0.114311 -0.123711 0.000000 
0.137056 -0.177358 0.000000 
0.186430 -0.174832 0.000000 
0.029568 0.001855 0.000000 
0.058945 -0.036265 0.000000 
0.116563 -0.016620 0.000000 
0.143120 -0.063888 0.000000 
0.196633 -0.055179 0.000000 
0.217198 -0.112476 0.000000 
0.265318 -0.111676 0.000000 
0.029759 0.102909 0.000000 
0.059328 0.065843 0.000000 
0.117890 0.088549 0.000000 
0.145749 0.044206 0.000000 
0.201664 0.057680 0.000000 
0.225992 0.005563 0.000000 
0.278030 0.011429 0.000000 
0.296791 -0.048513 0.000000 
0.344206 -0.048520 0.000000 
CELLS 175 350 
1 0 
1 1 
1 2 
1 3 
1 4 
1 5 
1 6 
1 7 
1 8 
1 9 
1 10 
1 11 
1 12 
1 13 
1 14 
1 15 
1 16 
1 17 
1 18 
1 19 
1 20 
1 21 
1 22 
1 23 
1 24 
1 25 
1 26 
1 27 
1 28 
1 29 
1 30 
1 31 
1 32 
1 33 
1 34 
1 35 
1 36 
1 37 
1 38 
1 39 
1 40 
1 41 
1 42 
1 43 
1 44 
1 45 
1 46 
1 47 
1 48 
1 49 
1 50 
1 51 
1 52 
1 53 
1 54 
1 55 
1 56 
1 57 
1 58 
1 59 
1 60 
1 61 
1 62 
1 63 
1 64 
1 65 
1 66 
1 67 
1 68 
1 69 
1 70 
1 71 
1 72 
1 73 
1 74 
1 75 
1 76 
1 77 
1 78 
1 79 
1 80 
1 81 
1 82 
1 83 
1 84 
1 85 
1 86 
1 87 
1 88 
1 89 
1 90 
1 91 
1 92 
1 93 
1 94 
1 95 
1 96 
1 97 
1 98 
1 99 
1 100 
1 101 
1 102 
1 103 
1 104 
1 105 
1 106 
1 107 
1 108 
1 109 
1 110 
1 111 
1 112 
1 113 
1 114 
1 115 
1 116 
1 117 
1 118 
1 119 
1 120 
1 121 
1 122 
1 123 
1 124 
1 125 
1 126 
1 127 
1 128 
1 129 
1 130 
1 131 
1 132 
1 133 
1 134 
1 135 
1 136 
1 137 
1 138 
1 139 
1 140 
1 141 
1 142 
1 143 
1 144 
1 145 
1 146 
1 147 
1 148 
1 149 
1 150 
1 151 
1 152 
1 153 
1 154 
1 155 
1 156 
1 157 
1 158 
1 159 
1 160 
1 161 
1 162 
1 163 
1 164 
1 165 
1 166 
1 167 
1 168 
1 169 
1 170 
1 171 
1 172 
1 173 
1 174 
CELL_TYPES 175 
1 
1 
1 
1 
1 
1 
1 
1 
1 
1 
1 
1 
1 
1 
1 
1 
1 
1 
1 
1 
1 
1 
1 
1 
1 
1 
1 
1 
1 
1 
1 
1 
1 
1 
1 
1 
1 
1 
1 
1 
1 
1 
1 
1 
1 
1 
1 
1 
1 
1 
1 
1 
1 
1 
1 
1 
1 
1 
1 
1 
1 
1 
1 
1 
1 
1 
1 
1 
1 
1 
1 
1 
1 
1 
1 
1 
1 
1 
1 
1 
1 
1 
1 
1 
1 
1 
1 
1 
1 
1 
1 
1 
1 
1 
1 
1 
1 
1 
1 
1 
1 
1 
1 
1 
1 
1 
1 
1 
1 
1 
1 
1 
1 
1 
1 
1 
1 
1 
1 
1 
1 
1 
1 
1 
1 
1 
1 
1 
1 
1 
1 
1 
1 
1 
1 
1 
1 
1 
1 
1 
1 
1 
1 
1 
1 
1 
1 
1 
1 
1 
1 
1 
1 
1 
1 
1 
1 
1 
1 
1 
1 
1 
1 
1 
1 
1 
1 
1 
1 
1 
1 
1 
1 
1 
1 
POINT_DATA 175 
VECTORS X_GC float 
-0.026061 -0.306963 0.000000 
-0.106992 -0.238908 0.000000 
-0.054870 -0.247140 0.000000 
-0.028809 -0.201257 0.000000 
-0.186430 -0.174832 0.000000 
-0.137056 -0.177358 0.000000 
-0.114311 -0.123711 0.000000 
-0.058186 -0.139377 0.000000 
-0.029377 -0.099199 0.000000 
-0.265318 -0.111676 0.000000 
-0.217198 -0.112476 0.000000 
-0.196633 -0.055179 0.000000 
-0.143120 -0.063888 0.000000 
-0.116563 -0.016620 0.000000 
-0.058945 -0.036265 0.000000 
-0.029568 0.001855 0.000000 
-0.344206 -0.048520 0.000000 
-0.296791 -0.048513 0.000000 
-0.278030 0.011429 0.000000 
-0.225992 0.005563 0.000000 
-0.201664 0.057680 0.000000 
-0.145749 0.044206 0.000000 
-0.117890 0.088549 0.000000 
-0.059328 0.065843 0.000000 
-0.029759 0.102909 0.000000 
-0.058559 -0.347714 0.000000 
-0.162226 -0.368556 0.000000 
-0.123292 -0.332939 0.000000 
-0.142917 -0.283955 0.000000 
-0.261851 -0.390713 0.000000 
-0.229092 -0.353686 0.000000 
-0.256854 -0.302454 0.000000 
-0.209613 -0.268342 0.000000 
-0.223062 -0.220768 0.000000 
-0.360414 -0.413013 0.000000 
-0.329787 -0.375890 0.000000 
-0.361761 -0.324088 0.000000 
-0.321587 -0.287679 0.000000 
-0.341985 -0.237445 0.000000 
-0.290702 -0.204646 0.000000 
-0.302189 -0.157911 0.000000 
-0.458977 -0.435313 0.000000 
-0.429420 -0.398238 0.000000 
-0.464588 -0.346197 0.000000 
-0.427556 -0.309169 0.000000 
-0.453135 -0.257654 0.000000 
-0.407738 -0.222339 0.000000 
-0.425037 -0.172911 0.000000 
-0.370772 -0.141282 0.000000 
-0.381315 -0.095054 0.000000 
-0.046960 -0.398529 0.000000 
-0.095301 -0.492575 0.000000 
-0.098873 -0.439928 0.000000 
-0.149405 -0.424730 0.000000 
-0.140093 -0.584279 0.000000 
-0.148617 -0.535581 0.000000 
-0.205981 -0.525343 0.000000 
-0.203197 -0.467140 0.000000 
-0.248777 -0.447993 0.000000 
-0.184111 -0.675243 0.000000 
-0.194039 -0.628151 0.000000 
-0.254475 -0.620852 0.000000 
-0.257893 -0.566742 0.000000 
-0.309886 -0.551370 0.000000 
-0.303554 -0.490824 0.000000 
-0.347255 -0.470667 0.000000 
-0.228129 -0.766206 0.000000 
-0.238687 -0.719982 0.000000 
-0.301302 -0.715030 0.000000 
-0.307162 -0.662991 0.000000 
-0.363386 -0.650870 0.000000 
-0.362692 -0.593359 0.000000 
-0.412122 -0.576065 0.000000 
-0.403017 -0.513919 0.000000 
-0.445733 -0.493340 0.000000 
-0.000000 -0.421144 0.000000 
0.043388 -0.517574 0.000000 
-0.000000 -0.487542 0.000000 
-0.043388 -0.517574 0.000000 
0.087158 -0.609771 0.000000 
0.043769 -0.586073 0.000000 
-0.000000 -0.624538 0.000000 
-0.043769 -0.586073 0.000000 
-0.087158 -0.609771 0.000000 
0.130831 -0.700901 0.000000 
0.087824 -0.679302 0.000000 
0.044436 -0.722002 0.000000 
-0.000000 -0.690937 0.000000 
-0.044436 -0.722002 0.000000 
-0.087824 -0.679302 0.000000 
-0.130831 -0.700901 0.000000 
0.174505 -0.792030 0.000000 
0.131782 -0.771464 0.000000 
0.088871 -0.817331 0.000000 
0.044532 -0.789467 0.000000 
-0.000000 -0.825867 0.000000 
-0.044532 -0.789467 0.000000 
-0.088871 -0.817331 0.000000 
-0.131782 -0.771464 0.000000 
-0.174505 -0.792030 0.000000 
0.046960 -0.398529 0.000000 
0.149405 -0.424730 0.000000 
0.098873 -0.439928 0.000000 
0.095301 -0.492575 0.000000 
0.248777 -0.447993 0.000000 
0.203197 -0.467140 0.000000 
0.205981 -0.525343 0.000000 
0.148617 -0.535581 0.000000 
0.140093 -0.584279 0.000000 
0.347255 -0.470667 0.000000 
0.303554 -0.490824 0.000000 
0.309886 -0.551370 0.000000 
0.257893 -0.566742 0.000000 
0.254475 -0.620852 0.000000 
0.194039 -0.628151 0.000000 
0.184111 -0.675243 0.000000 
0.445733 -0.493340 0.000000 
0.403017 -0.513919 0.000000 
0.412122 -0.576065 0.000000 
0.362692 -0.593359 0.000000 
0.363386 -0.650870 0.000000 
0.307162 -0.662991 0.000000 
0.301302 -0.715030 0.000000 
0.238687 -0.719982 0.000000 
0.228129 -0.766206 0.000000 
0.058559 -0.347714 0.000000 
0.142917 -0.283955 0.000000 
0.123292 -0.332939 0.000000 
0.162226 -0.368556 0.000000 
0.223062 -0.220768 0.000000 
0.209613 -0.268342 0.000000 
0.256854 -0.302454 0.000000 
0.229092 -0.353686 0.000000 
0.261851 -0.390713 0.000000 
0.302189 -0.157911 0.000000 
0.290702 -0.204646 0.000000 
0.341985 -0.237445 0.000000 
0.321587 -0.287679 0.000000 
0.361761 -0.324088 0.000000 
0.329787 -0.375890 0.000000 
0.360414 -0.413013 0.000000 
0.381315 -0.095054 0.000000 
0.370772 -0.141282 0.000000 
0.425037 -0.172911 0.000000 
0.407738 -0.222339 0.000000 
0.453135 -0.257654 0.000000 
0.427556 -0.309169 0.000000 
0.464588 -0.346197 0.000000 
0.429420 -0.398238 0.000000 
0.458977 -0.435313 0.000000 
0.026061 -0.306963 0.000000 
0.028809 -0.201257 0.000000 
0.054870 -0.247140 0.000000 
0.106992 -0.238908 0.000000 
0.029377 -0.099199 0.000000 
0.058186 -0.139377 0.000000 
0.114311 -0.123711 0.000000 
0.137056 -0.177358 0.000000 
0.186430 -0.174832 0.000000 
0.029568 0.001855 0.000000 
0.058945 -0.036265 0.000000 
0.116563 -0.016620 0.000000 
0.143120 -0.063888 0.000000 
0.196633 -0.055179 0.000000 
0.217198 -0.112476 0.000000 
0.265318 -0.111676 0.000000 
0.029759 0.102909 0.000000 
0.059328 0.065843 0.000000 
0.117890 0.088549 0.000000 
0.145749 0.044206 0.000000 
0.201664 0.057680 0.000000 
0.225992 0.005563 0.000000 
0.278030 0.011429 0.000000 
0.296791 -0.048513 0.000000 
0.344206 -0.048520 0.000000 
VECTORS X_EC float 
0.338794 0.644000 0.000000 
-0.609100 -0.274748 0.000000 
0.713312 -0.163607 0.000000 
0.374519 -0.783037 0.000000 
0.423588 0.860233 0.000000 
-0.218274 0.894336 0.000000 
-0.513962 0.170097 0.000000 
0.756418 0.381584 0.000000 
0.381900 -0.160809 0.000000 
-0.550868 0.007630 0.000000 
0.823577 0.018425 0.000000 
0.556234 -0.755079 0.000000 
-0.139443 -0.637510 0.000000 
-0.484677 0.724365 0.000000 
0.766286 0.989581 0.000000 
0.384386 0.474960 0.000000 
0.474677 -0.844974 0.000000 
-0.141715 -0.845070 0.000000 
-0.385608 0.345702 0.000000 
0.937896 0.424897 0.000000 
0.621631 -0.278683 0.000000 
-0.105264 -0.096784 0.000000 
-0.467428 -0.695410 0.000000 
0.771260 -0.388881 0.000000 
0.386873 -0.889271 0.000000 
0.761262 -0.805865 0.000000 
0.108942 -0.524488 0.000000 
-0.397202 0.994672 0.000000 
-0.142083 0.333397 0.000000 
-0.595936 -0.225378 0.000000 
0.978194 -0.725244 0.000000 
-0.660903 0.583131 0.000000 
0.724964 0.122611 0.000000 
0.899809 -0.519637 0.000000 
0.685384 0.075674 0.000000 
0.287229 -0.425484 0.000000 
0.702895 0.875187 0.000000 
0.180633 0.383669 0.000000 
0.445811 -0.294491 0.000000 
-0.220880 -0.737277 0.000000 
-0.071546 0.631798 0.000000 
-0.033296 0.376727 0.000000 
-0.417537 -0.123783 0.000000 
0.039645 -0.826346 0.000000 
-0.441768 0.673783 0.000000 
-0.109248 -0.021667 0.000000 
-0.699407 -0.498423 0.000000 
-0.474522 0.834298 0.000000 
0.820030 0.407304 0.000000 
0.957100 -0.216767 0.000000 
0.610485 -0.119859 0.000000 
-0.761092 -0.850239 0.000000 
-0.714655 0.439023 0.000000 
-0.057734 0.233856 0.000000 
-0.178789 0.387765 0.000000 
-0.067979 -0.269661 0.000000 
0.677748 -0.407865 0.000000 
0.641556 0.806390 0.000000 
-0.765897 0.547912 0.000000 
0.393446 -0.384226 0.000000 
0.522510 0.980044 0.000000 
-0.691820 0.881500 0.000000 
-0.647393 0.151017 0.000000 
0.028512 -0.056509 0.000000 
-0.053800 -0.873870 0.000000 
0.514316 0.853999 0.000000 
0.965681 0.843783 0.000000 
-0.897068 0.219754 0.000000 
-0.083078 0.152901 0.000000 
-0.006893 -0.549623 0.000000 
0.724017 -0.713256 0.000000 
0.714996 0.510340 0.000000 
-0.642413 0.276883 0.000000 
-0.760780 -0.562098 0.000000 
-0.205471 -0.839913 0.000000 
0.000000 0.185443 0.000000 
-0.564049 -0.512744 0.000000 
0.000000 -0.918180 0.000000 
0.564049 -0.512744 0.000000 
0.866949 0.731911 0.000000 
-0.569003 0.411980 0.000000 
0.000000 0.931268 0.000000 
0.569003 0.411980 0.000000 
-0.866949 0.731911 0.000000 
0.299194 -0.037839 0.000000 
0.858290 -0.329423 0.000000 
-0.577662 0.247023 0.000000 
0.000000 -0.172355 0.000000 
0.577662 0.247023 0.000000 
-0.858290 -0.329423 0.000000 
-0.299194 -0.037839 0.000000 
-0.268560 -0.807589 0.000000 
0.286830 0.914770 0.000000 
0.844677 -0.466032 0.000000 
-0.578910 -0.842195 0.000000 
0.000000 -0.350791 0.000000 
0.578910 -0.842195 0.000000 
-0.844677 -0.466032 0.000000 
-0.286830 0.914770 0.000000 
0.268560 -0.807589 0.000000 
-0.610485 -0.119859 0.000000 
0.057734 0.233856 0.000000 
0.714655 0.439023 0.000000 
0.761092 -0.850239 0.000000 
0.765897 0.547912 0.000000 
-0.641556 0.806390 0.000000 
-0.677748 -0.407865 0.000000 
0.067979 -0.269661 0.000000 
0.178789 0.387765 0.000000 
-0.514316 0.853999 0.000000 
0.053800 -0.873870 0.000000 
-0.028512 -0.056509 0.000000 
0.647393 0.151017 0.000000 
0.691820 0.881500 0.000000 
-0.522510 0.980044 0.000000 
-0.393446 -0.384226 0.000000 
0.205471 -0.839913 0.000000 
0.760780 -0.562098 0.000000 
0.642413 0.276883 0.000000 
-0.714996 0.510340 0.000000 
-0.724017 -0.713256 0.000000 
0.006894 -0.549623 0.000000 
0.083078 0.152901 0.000000 
0.897068 0.219754 0.000000 
-0.965681 0.843783 0.000000 
-0.761262 -0.805865 0.000000 
0.142083 0.333397 0.000000 
0.397202 0.994672 0.000000 
-0.108942 -0.524488 0.000000 
-0.899809 -0.519637 0.000000 
-0.724964 0.122611 0.000000 
0.660903 0.583131 0.000000 
-0.978194 -0.725244 0.000000 
0.595936 -0.225378 0.000000 
0.071546 0.631798 0.000000 
0.220880 -0.737277 0.000000 
-0.445811 -0.294491 0.000000 
-0.180633 0.383669 0.000000 
-0.702895 0.875187 0.000000 
-0.287229 -0.425484 0.000000 
-0.685384 0.075674 0.000000 
-0.957100 -0.216767 0.000000 
-0.820030 0.407304 0.000000 
0.474522 0.834298 0.000000 
0.699407 -0.498423 0.000000 
0.109248 -0.021667 0.000000 
0.441768 0.673783 0.000000 
-0.039645 -0.826346 0.000000 
0.417537 -0.123783 0.000000 
0.033296 0.376727 0.000000 
-0.338794 0.644000 0.000000 
-0.374519 -0.783037 0.000000 
-0.713312 -0.163607 0.000000 
0.609100 -0.274748 0.000000 
-0.381900 -0.160809 0.000000 
-0.756418 0.381584 0.000000 
0.513962 0.170097 0.000000 
0.218274 0.894336 0.000000 
-0.423588 0.860233 0.000000 
-0.384386 0.474960 0.000000 
-0.766286 0.989581 0.000000 
0.484677 0.724365 0.000000 
0.139443 -0.637510 0.000000 
-0.556234 -0.755079 0.000000 
-0.823577 0.018425 0.000000 
0.550868 0.007630 0.000000 
-0.386873 -0.889271 0.000000 
-0.771260 -0.388881 0.000000 
0.467428 -0.695410 0.000000 
0.105264 -0.096784 0.000000 
-0.621631 -0.278683 0.000000 
-0.937896 0.424897 0.000000 
0.385608 0.345702 0.000000 
0.141715 -0.845070 0.000000 
-0.474677 -0.844974 0.000000 
CELL_DATA 175 
SCALARS MASS float 
LOOKUP_TABLE default 
0.078183 
0.086427 
0.094672 
0.086427 
0.088131 
0.092111 
0.085854 
0.092111 
0.088131 
0.088705 
0.091000 
0.086983 
0.091556 
0.086983 
0.091000 
0.088705 
0.089278 
0.091574 
0.089278 
0.092722 
0.089278 
0.092722 
0.089278 
0.091574 
0.089278 
0.078183 
0.086427 
0.094672 
0.086427 
0.088131 
0.092111 
0.085854 
0.092111 
0.088131 
0.088705 
0.091000 
0.086983 
0.091556 
0.086983 
0.091000 
0.088705 
0.089278 
0.091574 
0.089278 
0.092722 
0.089278 
0.092722 
0.089278 
0.091574 
0.089278 
0.078183 
0.086427 
0.094672 
0.086427 
0.088131 
0.092111 
0.085854 
0.092111 
0.088131 
0.088705 
0.091000 
0.086983 
0.091556 
0.086983 
0.091000 
0.088705 
0.089278 
0.091574 
0.089278 
0.092722 
0.089278 
0.092722 
0.089278 
0.091574 
0.089278 
0.078183 
0.086427 
0.094672 
0.086427 
0.088131 
0.092111 
0.085854 
0.092111 
0.088131 
0.088705 
0.091000 
0.086983 
0.091556 
0.086983 
0.091000 
0.088705 
0.089278 
0.091574 
0.089278 
0.092722 
0.089278 
0.092722 
0.089278 
0.091574 
0.089278 
0.078183 
0.086427 
0.094672 
0.086427 
0.088131 
0.092111 
0.085854 
0.092111 
0.088131 
0.088705 
0.091000 
0.086983 
0.091556 
0.086983 
0.091000 
0.088705 
0.089278 
0.091574 
0.089278 
0.092722 
0.089278 
0.092722 
0.089278 
0.091574 
0.089278 
0.078183 
0.086427 
0.094672 
0.086427 
0.088131 
0.092111 
0.085854 
0.092111 
0.088131 
0.088705 
0.091000 
0.086983 
0.091556 
0.086983 
0.091000 
0.088705 
0.089278 
0.091574 
0.089278 
0.092722 
0.089278 
0.092722 
0.089278 
0.091574 
0.089278 
0.078183 
0.086427 
0.094672 
0.086427 
0.088131 
0.092111 
0.085854 
0.092111 
0.088131 
0.088705 
0.091000 
0.086983 
0.091556 
0.086983 
0.091000 
0.088705 
0.089278 
0.091574 
0.089278 
0.092722 
0.089278 
0.092722 
0.089278 
0.091574 
0.089278 
SCALARS MASS float 
LOOKUP_TABLE default 
0.078183 
0.086427 
0.094672 
0.086427 
0.088131 
0.092111 
0.085854 
0.092111 
0.088131 
0.088705 
0.091000 
0.086983 
0.091556 
0.086983 
0.091000 
0.088705 
0.089278 
0.091574 
0.089278 
0.092722 
0.089278 
0.092722 
0.089278 
0.091574 
0.089278 
0.078183 
0.086427 
0.094672 
0.086427 
0.088131 
0.092111 
0.085854 
0.092111 
0.088131 
0.088705 
0.091000 
0.086983 
0.091556 
0.086983 
0.091000 
0.088705 
0.089278 
0.091574 
0.089278 
0.092722 
0.089278 
0.092722 
0.089278 
0.091574 
0.089278 
0.078183 
0.086427 
0.094672 
0.086427 
0.088131 
0.092111 
0.085854 
0.092111 
0.088131 
0.088705 
0.091000 
0.086983 
0.091556 
0.086983 
0.091000 
0.088705 
0.089278 
0.091574 
0.089278 
0.092722 
0.089278 
0.092722 
0.089278 
0.091574 
0.089278 
0.078183 
0.086427 
0.094672 
0.086427 
0.088131 
0.092111 
0.085854 
0.092111 
0.088131 
0.088705 
0.091000 
0.086983 
0.091556 
0.086983 
0.091000 
0.088705 
0.089278 
0.091574 
0.089278 
0.092722 
0.089278 
0.092722 
0.089278 
0.091574 
0.089278 
0.078183 
0.086427 
0.094672 
0.086427 
0.088131 
0.092111 
0.085854 
0.092111 
0.088131 
0.088705 
0.091000 
0.086983 
0.091556 
0.086983 
0.091000 
0.088705 
0.089278 
0.091574 
0.089278 
0.092722 
0.089278 
0.092722 
0.089278 
0.091574 
0.089278 
0.078183 
0.086427 
0.094672 
0.086427 
0.088131 
0.092111 
0.085854 
0.092111 
0.088131 
0.088705 
0.091000 
0.086983 
0.091556 
0.086983 
0.091000 
0.088705 
0.089278 
0.091574 
0.089278 
0.092722 
0.089278 
0.092722 
0.089278 
0.091574 
0.089278 
0.078183 
0.086427 
0.094672 
0.086427 
0.088131 
0.092111 
0.085854 
0.092111 
0.088131 
0.088705 
0.091000 
0.086983 
0.091556 
0.086983 
0.091000 
0.088705 
0.089278 
0.091574 
0.089278 
0.092722 
0.089278 
0.092722 
0.089278 
0.091574 
0.089278 
SCALARS DENSITY float 
LOOKUP_TABLE default 
20.000000 
20.000000 
20.000000 
20.000000 
20.000000 
20.000000 
20.000000 
20.000000 
20.000000 
20.000000 
20.000000 
20.000000 
20.000000 
20.000000 
20.000000 
20.000000 
20.000000 
20.000000 
20.000000 
20.000000 
20.000000 
20.000000 
20.000000 
20.000000 
20.000000 
20.000000 
20.000000 
20.000000 
20.000000 
20.000000 
20.000000 
20.000000 
20.000000 
20.000000 
20.000000 
20.000000 
20.000000 
20.000000 
20.000000 
20.000000 
20.000000 
20.000000 
20.000000 
20.000000 
20.000000 
20.000000 
20.000000 
20.000000 
20.000000 
20.000000 
20.000000 
20.000000 
20.000000 
20.000000 
20.000000 
20.000000 
20.000000 
20.000000 
20.000000 
20.000000 
20.000000 
20.000000 
20.000000 
20.000000 
20.000000 
20.000000 
20.000000 
20.000000 
20.000000 
20.000000 
20.000000 
20.000000 
20.000000 
20.000000 
20.000000 
20.000000 
20.000000 
20.000000 
20.000000 
20.000000 
20.000000 
20.000000 
20.000000 
20.000000 
20.000000 
20.000000 
20.000000 
20.000000 
20.000000 
20.000000 
20.000000 
20.000000 
20.000000 
20.000000 
20.000000 
20.000000 
20.000000 
20.000000 
20.000000 
20.000000 
20.000000 
20.000000 
20.000000 
20.000000 
20.000000 
20.000000 
20.000000 
20.000000 
20.000000 
20.000000 
20.000000 
20.000000 
20.000000 
20.000000 
20.000000 
20.000000 
20.000000 
20.000000 
20.000000 
20.000000 
20.000000 
20.000000 
20.000000 
20.000000 
20.000000 
20.000000 
20.000000 
20.000000 
20.000000 
20.000000 
20.000000 
20.000000 
20.000000 
20.000000 
20.000000 
20.000000 
20.000000 
20.000000 
20.000000 
20.000000 
20.000000 
20.000000 
20.000000 
20.000000 
20.000000 
20.000000 
20.000000 
20.000000 
20.000000 
20.000000 
20.000000 
20.000000 
20.000000 
20.000000 
20.000000 
20.000000 
20.000000 
20.000000 
20.000000 
20.000000 
20.000000 
20.000000 
20.000000 
20.000000 
20.000000 
20.000000 
20.000000 
20.000000 
20.000000 
20.000000 
20.000000 
20.000000 
20.000000 
20.000000 
20.000000 
SCALARS ELEM_i float 
LOOKUP_TABLE default 
180 
207 
180 
180 
208 
208 
208 
181 
181 
235 
208 
208 
208 
209 
182 
182 
235 
235 
236 
209 
209 
209 
209 
182 
182 
179 
206 
207 
207 
233 
206 
234 
207 
207 
233 
233 
234 
234 
234 
234 
235 
260 
260 
260 
261 
261 
261 
262 
235 
235 
179 
205 
206 
206 
205 
205 
205 
206 
233 
204 
205 
232 
232 
232 
232 
233 
204 
231 
231 
231 
231 
232 
259 
259 
259 
179 
178 
178 
178 
151 
178 
178 
178 
205 
150 
150 
177 
177 
177 
204 
204 
149 
150 
149 
176 
176 
176 
203 
204 
203 
179 
152 
152 
151 
125 
152 
151 
151 
151 
125 
124 
124 
124 
124 
151 
150 
97 
97 
97 
124 
123 
123 
123 
123 
150 
179 
153 
153 
152 
153 
153 
126 
152 
125 
127 
126 
126 
126 
126 
125 
125 
127 
127 
100 
99 
99 
99 
98 
98 
98 
180 
180 
180 
153 
181 
181 
154 
154 
154 
182 
182 
155 
154 
154 
154 
127 
182 
182 
155 
155 
155 
155 
128 
127 
127 
VECTORS VELOCITY float 
-0.000000 -2.661257 0.000000 
0.000000 -2.661257 0.000000 
0.000000 -2.661257 0.000000 
-0.000000 -2.661257 0.000000 
-0.000000 -2.661257 0.000000 
-0.000000 -2.661257 0.000000 
-0.000000 -2.661257 0.000000 
-0.000000 -2.661257 0.000000 
-0.000000 -2.661257 0.000000 
-0.000000 -2.661257 0.000000 
-0.000000 -2.661257 0.000000 
-0.000000 -2.661257 0.000000 
-0.000000 -2.661257 0.000000 
-0.000000 -2.661257 0.000000 
-0.000000 -2.661257 0.000000 
-0.000000 -2.661257 0.000000 
-0.000000 -2.661257 0.000000 
-0.000000 -2.661257 0.000000 
-0.000000 -2.661257 0.000000 
0.000000 -2.661257 0.000000 
0.000000 -2.661257 0.000000 
-0.000000 -2.661257 0.000000 
-0.000000 -2.661257 0.000000 
-0.000000 -2.661257 0.000000 
0.000000 -2.661257 0.000000 
-0.000000 -2.661257 0.000000 
0.000000 -2.661257 0.000000 
-0.000000 -2.661257 0.000000 
0.000000 -2.661257 0.000000 
0.000000 -2.661257 0.000000 
0.000000 -2.661257 0.000000 
0.000000 -2.661257 0.000000 
0.000000 -2.661257 0.000000 
-0.000000 -2.661257 0.000000 
0.000000 -2.661257 0.000000 
0.000000 -2.661257 0.000000 
0.000000 -2.661257 0.000000 
-0.000000 -2.661257 0.000000 
-0.000000 -2.661257 0.000000 
-0.000000 -2.661257 0.000000 
0.000000 -2.661257 0.000000 
-0.000000 -2.661257 0.000000 
0.000000 -2.661257 0.000000 
0.000000 -2.661257 0.000000 
0.000000 -2.661257 0.000000 
0.000000 -2.661257 0.000000 
0.000000 -2.661257 0.000000 
0.000000 -2.661257 0.000000 
0.000000 -2.661257 0.000000 
0.000000 -2.661257 0.000000 
-0.000000 -2.661257 0.000000 
0.000000 -2.661257 0.000000 
0.000000 -2.661257 0.000000 
0.000000 -2.661257 0.000000 
0.000000 -2.661257 0.000000 
0.000000 -2.661257 0.000000 
0.000000 -2.661257 0.000000 
0.000000 -2.661257 0.000000 
0.000000 -2.661257 0.000000 
-0.000000 -2.661257 0.000000 
-0.000000 -2.661257 0.000000 
-0.000000 -2.661257 0.000000 
0.000000 -2.661257 0.000000 
0.000000 -2.661257 0.000000 
0.000000 -2.661257 0.000000 
0.000000 -2.661257 0.000000 
-0.000000 -2.661257 0.000000 
-0.000000 -2.661257 0.000000 
-0.000000 -2.661257 0.000000 
-0.000000 -2.661257 0.000000 
0.000000 -2.661257 0.000000 
0.000000 -2.661257 0.000000 
-0.000000 -2.661257 0.000000 
-0.000000 -2.661257 0.000000 
-0.000000 -2.661257 0.000000 
-0.000000 -2.661257 0.000000 
0.000000 -2.661257 0.000000 
0.000000 -2.661257 0.000000 
0.000000 -2.661257 0.000000 
-0.000000 -2.661257 0.000000 
0.000000 -2.661257 0.000000 
0.000000 -2.661257 0.000000 
0.000000 -2.661257 0.000000 
0.000000 -2.661257 0.000000 
0.000000 -2.661257 0.000000 
0.000000 -2.661257 0.000000 
-0.000000 -2.661257 0.000000 
-0.000000 -2.661257 0.000000 
-0.000000 -2.661257 0.000000 
-0.000000 -2.661257 0.000000 
-0.000000 -2.661257 0.000000 
0.000000 -2.661257 0.000000 
0.000000 -2.661257 0.000000 
0.000000 -2.661257 0.000000 
-0.000000 -2.661257 0.000000 
0.000000 -2.661257 0.000000 
0.000000 -2.661257 0.000000 
-0.000000 -2.661257 0.000000 
-0.000000 -2.661257 0.000000 
0.000000 -2.661257 0.000000 
-0.000000 -2.661257 0.000000 
0.000000 -2.661257 0.000000 
0.000000 -2.661257 0.000000 
0.000000 -2.661257 0.000000 
0.000000 -2.661257 0.000000 
0.000000 -2.661257 0.000000 
-0.000000 -2.661257 0.000000 
-0.000000 -2.661257 0.000000 
-0.000000 -2.661257 0.000000 
0.000000 -2.661257 0.000000 
-0.000000 -2.661257 0.000000 
0.000000 -2.661257 0.000000 
-0.000000 -2.661257 0.000000 
-0.000000 -2.661257 0.000000 
-0.000000 -2.661257 0.000000 
0.000000 -2.661257 0.000000 
-0.000000 -2.661257 0.000000 
0.000000 -2.661257 0.000000 
0.000000 -2.661257 0.000000 
0.000000 -2.661257 0.000000 
0.000000 -2.661257 0.000000 
0.000000 -2.661257 0.000000 
-0.000000 -2.661257 0.000000 
0.000000 -2.661257 0.000000 
0.000000 -2.661257 0.000000 
-0.000000 -2.661257 0.000000 
-0.000000 -2.661257 0.000000 
0.000000 -2.661257 0.000000 
0.000000 -2.661257 0.000000 
-0.000000 -2.661257 0.000000 
-0.000000 -2.661257 0.000000 
-0.000000 -2.661257 0.000000 
0.000000 -2.661257 0.000000 
0.000000 -2.661257 0.000000 
-0.000000 -2.661257 0.000000 
-0.000000 -2.661257 0.000000 
-0.000000 -2.661257 0.000000 
-0.000000 -2.661257 0.000000 
0.000000 -2.661257 0.000000 
0.000000 -2.661257 0.000000 
0.000000 -2.661257 0.000000 
0.000000 -2.661257 0.000000 
0.000000 -2.661257 0.000000 
0.000000 -2.661257 0.000000 
-0.000000 -2.661257 0.000000 
-0.000000 -2.661257 0.000000 
-0.000000 -2.661257 0.000000 
-0.000000 -2.661257 0.000000 
-0.000000 -2.661257 0.000000 
-0.000000 -2.661257 0.000000 
-0.000000 -2.661257 0.000000 
-0.000000 -2.661257 0.000000 
0.000000 -2.661257 0.000000 
-0.000000 -2.661257 0.000000 
-0.000000 -2.661257 0.000000 
-0.000000 -2.661257 0.000000 
-0.000000 -2.661257 0.000000 
-0.000000 -2.661257 0.000000 
-0.000000 -2.661257 0.000000 
-0.000000 -2.661257 0.000000 
0.000000 -2.661257 0.000000 
0.000000 -2.661257 0.000000 
-0.000000 -2.661257 0.000000 
-0.000000 -2.661257 0.000000 
-0.000000 -2.661257 0.000000 
-0.000000 -2.661257 0.000000 
0.000000 -2.661257 0.000000 
0.000000 -2.661257 0.000000 
-0.000000 -2.661257 0.000000 
0.000000 -2.661257 0.000000 
0.000000 -2.661257 0.000000 
0.000000 -2.661257 0.000000 
-0.000000 -2.661257 0.000000 
0.000000 -2.661257 0.000000 
0.000000 -2.661257 0.000000 
TENSORS STRESS float 
0.000000 0.000000 0.000000 
0.000000 0.000000 0.000000 
0.000000 0.000000 0.000000 

0.000000 0.000000 0.000000 
0.000000 0.000000 0.000000 
0.000000 0.000000 0.000000 

0.000000 0.000000 0.000000 
0.000000 0.000000 0.000000 
0.000000 0.000000 0.000000 

0.000000 0.000000 0.000000 
0.000000 0.000000 0.000000 
0.000000 0.000000 0.000000 

-0.000000 0.000000 0.000000 
0.000000 0.000000 0.000000 
0.000000 0.000000 0.000000 

-0.000000 0.000000 0.000000 
0.000000 0.000000 0.000000 
0.000000 0.000000 0.000000 

-0.000000 0.000000 0.000000 
0.000000 -0.000000 0.000000 
0.000000 0.000000 0.000000 

0.000000 0.000000 0.000000 
0.000000 0.000000 0.000000 
0.000000 0.000000 0.000000 

0.000000 -0.000000 0.000000 
0.000000 -0.000000 0.000000 
0.000000 0.000000 0.000000 

0.000000 0.000000 0.000000 
0.000000 0.000000 0.000000 
0.000000 0.000000 0.000000 

-0.000000 -0.000000 0.000000 
0.000000 0.000000 0.000000 
0.000000 0.000000 0.000000 

-0.000000 0.000000 0.000000 
0.000000 0.000000 0.000000 
0.000000 0.000000 0.000000 

-0.000000 0.000000 0.000000 
0.000000 0.000000 0.000000 
0.000000 0.000000 0.000000 
