# vtk DataFile Version 3.0 
vtk output 
ASCII 
DATASET UNSTRUCTURED_GRID 
POINTS 175 float 
-0.026061 -1.644297 0.000000 
-0.106992 -1.576242 0.000000 
-0.054870 -1.584474 0.000000 
-0.028809 -1.538591 0.000000 
-0.186430 -1.512166 0.000000 
-0.137056 -1.514692 0.000000 
-0.114311 -1.461045 0.000000 
-0.058186 -1.476711 0.000000 
-0.029377 -1.436533 0.000000 
-0.265318 -1.449010 0.000000 
-0.217198 -1.449810 0.000000 
-0.196633 -1.392513 0.000000 
-0.143120 -1.401222 0.000000 
-0.116563 -1.353954 0.000000 
-0.058945 -1.373599 0.000000 
-0.029568 -1.335479 0.000000 
-0.344206 -1.385854 0.000000 
-0.296791 -1.385847 0.000000 
-0.278030 -1.325904 0.000000 
-0.225992 -1.331771 0.000000 
-0.201664 -1.279654 0.000000 
-0.145749 -1.293128 0.000000 
-0.117890 -1.248785 0.000000 
-0.059328 -1.271491 0.000000 
-0.029759 -1.234425 0.000000 
-0.058559 -1.685048 0.000000 
-0.162226 -1.705890 0.000000 
-0.123292 -1.670273 0.000000 
-0.142917 -1.621289 0.000000 
-0.261851 -1.728047 0.000000 
-0.229092 -1.691020 0.000000 
-0.256854 -1.639788 0.000000 
-0.209613 -1.605676 0.000000 
-0.223062 -1.558102 0.000000 
-0.360414 -1.750347 0.000000 
-0.329787 -1.713224 0.000000 
-0.361761 -1.661422 0.000000 
-0.321587 -1.625013 0.000000 
-0.341985 -1.574779 0.000000 
-0.290702 -1.541980 0.000000 
-0.302189 -1.495245 0.000000 
-0.458977 -1.772647 0.000000 
-0.429420 -1.735572 0.000000 
-0.464588 -1.683531 0.000000 
-0.427556 -1.646503 0.000000 
-0.453135 -1.594988 0.000000 
-0.407738 -1.559673 0.000000 
-0.425037 -1.510245 0.000000 
-0.370772 -1.478616 0.000000 
-0.381315 -1.432388 0.000000 
-0.046960 -1.735863 0.000000 
-0.095301 -1.829909 0.000000 
-0.098873 -1.777262 0.000000 
-0.149405 -1.762064 0.000000 
-0.140093 -1.921613 0.000000 
-0.148617 -1.872915 0.000000 
-0.205981 -1.862677 0.000000 
-0.203197 -1.804474 0.000000 
-0.248777 -1.785327 0.000000 
-0.184111 -2.012576 0.000000 
-0.194039 -1.965485 0.000000 
-0.254475 -1.958186 0.000000 
-0.257893 -1.904076 0.000000 
-0.309886 -1.888704 0.000000 
-0.303554 -1.828158 0.000000 
-0.347255 -1.808001 0.000000 
-0.228129 -2.103540 0.000000 
-0.238687 -2.057316 0.000000 
-0.301302 -2.052364 0.000000 
-0.307162 -2.000325 0.000000 
-0.363386 -1.988204 0.000000 
-0.362692 -1.930693 0.000000 
-0.412122 -1.913399 0.000000 
-0.403017 -1.851253 0.000000 
-0.445733 -1.830674 0.000000 
-0.000000 -1.758478 0.000000 
0.043388 -1.854908 0.000000 
-0.000000 -1.824876 0.000000 
-0.043388 -1.854908 0.000000 
0.087158 -1.947105 0.000000 
0.043769 -1.923407 0.000000 
-0.000000 -1.961872 0.000000 
-0.043769 -1.923407 0.000000 
-0.087158 -1.947105 0.000000 
0.130831 -2.038235 0.000000 
0.087824 -2.016636 0.000000 
0.044436 -2.059336 0.000000 
-0.000000 -2.028271 0.000000 
-0.044436 -2.059336 0.000000 
-0.087824 -2.016636 0.000000 
-0.130831 -2.038235 0.000000 
0.174505 -2.129364 0.000000 
0.131782 -2.108798 0.000000 
0.088871 -2.154665 0.000000 
0.044532 -2.126801 0.000000 
-0.000000 -2.163201 0.000000 
-0.044532 -2.126801 0.000000 
-0.088871 -2.154665 0.000000 
-0.131782 -2.108798 0.000000 
-0.174505 -2.129364 0.000000 
0.046960 -1.735863 0.000000 
0.149405 -1.762064 0.000000 
0.098873 -1.777262 0.000000 
0.095301 -1.829909 0.000000 
0.248777 -1.785327 0.000000 
0.203197 -1.804474 0.000000 
0.205981 -1.862677 0.000000 
0.148617 -1.872915 0.000000 
0.140093 -1.921613 0.000000 
0.347255 -1.808001 0.000000 
0.303554 -1.828158 0.000000 
0.309886 -1.888704 0.000000 
0.257893 -1.904076 0.000000 
0.254475 -1.958186 0.000000 
0.194039 -1.965485 0.000000 
0.184111 -2.012576 0.000000 
0.445733 -1.830674 0.000000 
0.403017 -1.851253 0.000000 
0.412122 -1.913399 0.000000 
0.362692 -1.930693 0.000000 
0.363386 -1.988204 0.000000 
0.307162 -2.000325 0.000000 
0.301302 -2.052364 0.000000 
0.238687 -2.057316 0.000000 
0.228129 -2.103540 0.000000 
0.058559 -1.685048 0.000000 
0.142917 -1.621289 0.000000 
0.123292 -1.670273 0.000000 
0.162226 -1.705890 0.000000 
0.223062 -1.558102 0.000000 
0.209613 -1.605676 0.000000 
0.256854 -1.639788 0.000000 
0.229092 -1.691020 0.000000 
0.261851 -1.728047 0.000000 
0.302189 -1.495245 0.000000 
0.290702 -1.541980 0.000000 
0.341985 -1.574779 0.000000 
0.321587 -1.625013 0.000000 
0.361761 -1.661422 0.000000 
0.329787 -1.713224 0.000000 
0.360414 -1.750347 0.000000 
0.381315 -1.432388 0.000000 
0.370772 -1.478616 0.000000 
0.425037 -1.510245 0.000000 
0.407738 -1.559673 0.000000 
0.453135 -1.594988 0.000000 
0.427556 -1.646503 0.000000 
0.464588 -1.683531 0.000000 
0.429420 -1.735572 0.000000 
0.458977 -1.772647 0.000000 
0.026061 -1.644297 0.000000 
0.028809 -1.538591 0.000000 
0.054870 -1.584474 0.000000 
0.106992 -1.576242 0.000000 
0.029377 -1.436533 0.000000 
0.058186 -1.476711 0.000000 
0.114311 -1.461045 0.000000 
0.137056 -1.514692 0.000000 
0.186430 -1.512166 0.000000 
0.029568 -1.335479 0.000000 
0.058945 -1.373599 0.000000 
0.116563 -1.353954 0.000000 
0.143120 -1.401222 0.000000 
0.196633 -1.392513 0.000000 
0.217198 -1.449810 0.000000 
0.265318 -1.449010 0.000000 
0.029759 -1.234425 0.000000 
0.059328 -1.271491 0.000000 
0.117890 -1.248785 0.000000 
0.145749 -1.293128 0.000000 
0.201664 -1.279654 0.000000 
0.225992 -1.331771 0.000000 
0.278030 -1.325904 0.000000 
0.296791 -1.385847 0.000000 
0.344206 -1.385854 0.000000 
CELLS 175 350 
1 0 
1 1 
1 2 
1 3 
1 4 
1 5 
1 6 
1 7 
1 8 
1 9 
1 10 
1 11 
1 12 
1 13 
1 14 
1 15 
1 16 
1 17 
1 18 
1 19 
1 20 
1 21 
1 22 
1 23 
1 24 
1 25 
1 26 
1 27 
1 28 
1 29 
1 30 
1 31 
1 32 
1 33 
1 34 
1 35 
1 36 
1 37 
1 38 
1 39 
1 40 
1 41 
1 42 
1 43 
1 44 
1 45 
1 46 
1 47 
1 48 
1 49 
1 50 
1 51 
1 52 
1 53 
1 54 
1 55 
1 56 
1 57 
1 58 
1 59 
1 60 
1 61 
1 62 
1 63 
1 64 
1 65 
1 66 
1 67 
1 68 
1 69 
1 70 
1 71 
1 72 
1 73 
1 74 
1 75 
1 76 
1 77 
1 78 
1 79 
1 80 
1 81 
1 82 
1 83 
1 84 
1 85 
1 86 
1 87 
1 88 
1 89 
1 90 
1 91 
1 92 
1 93 
1 94 
1 95 
1 96 
1 97 
1 98 
1 99 
1 100 
1 101 
1 102 
1 103 
1 104 
1 105 
1 106 
1 107 
1 108 
1 109 
1 110 
1 111 
1 112 
1 113 
1 114 
1 115 
1 116 
1 117 
1 118 
1 119 
1 120 
1 121 
1 122 
1 123 
1 124 
1 125 
1 126 
1 127 
1 128 
1 129 
1 130 
1 131 
1 132 
1 133 
1 134 
1 135 
1 136 
1 137 
1 138 
1 139 
1 140 
1 141 
1 142 
1 143 
1 144 
1 145 
1 146 
1 147 
1 148 
1 149 
1 150 
1 151 
1 152 
1 153 
1 154 
1 155 
1 156 
1 157 
1 158 
1 159 
1 160 
1 161 
1 162 
1 163 
1 164 
1 165 
1 166 
1 167 
1 168 
1 169 
1 170 
1 171 
1 172 
1 173 
1 174 
CELL_TYPES 175 
1 
1 
1 
1 
1 
1 
1 
1 
1 
1 
1 
1 
1 
1 
1 
1 
1 
1 
1 
1 
1 
1 
1 
1 
1 
1 
1 
1 
1 
1 
1 
1 
1 
1 
1 
1 
1 
1 
1 
1 
1 
1 
1 
1 
1 
1 
1 
1 
1 
1 
1 
1 
1 
1 
1 
1 
1 
1 
1 
1 
1 
1 
1 
1 
1 
1 
1 
1 
1 
1 
1 
1 
1 
1 
1 
1 
1 
1 
1 
1 
1 
1 
1 
1 
1 
1 
1 
1 
1 
1 
1 
1 
1 
1 
1 
1 
1 
1 
1 
1 
1 
1 
1 
1 
1 
1 
1 
1 
1 
1 
1 
1 
1 
1 
1 
1 
1 
1 
1 
1 
1 
1 
1 
1 
1 
1 
1 
1 
1 
1 
1 
1 
1 
1 
1 
1 
1 
1 
1 
1 
1 
1 
1 
1 
1 
1 
1 
1 
1 
1 
1 
1 
1 
1 
1 
1 
1 
1 
1 
1 
1 
1 
1 
1 
1 
1 
1 
1 
1 
1 
1 
1 
1 
1 
1 
POINT_DATA 175 
VECTORS X_GC float 
-0.026061 -1.644297 0.000000 
-0.106992 -1.576242 0.000000 
-0.054870 -1.584474 0.000000 
-0.028809 -1.538591 0.000000 
-0.186430 -1.512166 0.000000 
-0.137056 -1.514692 0.000000 
-0.114311 -1.461045 0.000000 
-0.058186 -1.476711 0.000000 
-0.029377 -1.436533 0.000000 
-0.265318 -1.449010 0.000000 
-0.217198 -1.449810 0.000000 
-0.196633 -1.392513 0.000000 
-0.143120 -1.401222 0.000000 
-0.116563 -1.353954 0.000000 
-0.058945 -1.373599 0.000000 
-0.029568 -1.335479 0.000000 
-0.344206 -1.385854 0.000000 
-0.296791 -1.385847 0.000000 
-0.278030 -1.325904 0.000000 
-0.225992 -1.331771 0.000000 
-0.201664 -1.279654 0.000000 
-0.145749 -1.293128 0.000000 
-0.117890 -1.248785 0.000000 
-0.059328 -1.271491 0.000000 
-0.029759 -1.234425 0.000000 
-0.058559 -1.685048 0.000000 
-0.162226 -1.705890 0.000000 
-0.123292 -1.670273 0.000000 
-0.142917 -1.621289 0.000000 
-0.261851 -1.728047 0.000000 
-0.229092 -1.691020 0.000000 
-0.256854 -1.639788 0.000000 
-0.209613 -1.605676 0.000000 
-0.223062 -1.558102 0.000000 
-0.360414 -1.750347 0.000000 
-0.329787 -1.713224 0.000000 
-0.361761 -1.661422 0.000000 
-0.321587 -1.625013 0.000000 
-0.341985 -1.574779 0.000000 
-0.290702 -1.541980 0.000000 
-0.302189 -1.495245 0.000000 
-0.458977 -1.772647 0.000000 
-0.429420 -1.735572 0.000000 
-0.464588 -1.683531 0.000000 
-0.427556 -1.646503 0.000000 
-0.453135 -1.594988 0.000000 
-0.407738 -1.559673 0.000000 
-0.425037 -1.510245 0.000000 
-0.370772 -1.478616 0.000000 
-0.381315 -1.432388 0.000000 
-0.046960 -1.735863 0.000000 
-0.095301 -1.829909 0.000000 
-0.098873 -1.777262 0.000000 
-0.149405 -1.762064 0.000000 
-0.140093 -1.921613 0.000000 
-0.148617 -1.872915 0.000000 
-0.205981 -1.862677 0.000000 
-0.203197 -1.804474 0.000000 
-0.248777 -1.785327 0.000000 
-0.184111 -2.012576 0.000000 
-0.194039 -1.965485 0.000000 
-0.254475 -1.958186 0.000000 
-0.257893 -1.904076 0.000000 
-0.309886 -1.888704 0.000000 
-0.303554 -1.828158 0.000000 
-0.347255 -1.808001 0.000000 
-0.228129 -2.103540 0.000000 
-0.238687 -2.057316 0.000000 
-0.301302 -2.052364 0.000000 
-0.307162 -2.000325 0.000000 
-0.363386 -1.988204 0.000000 
-0.362692 -1.930693 0.000000 
-0.412122 -1.913399 0.000000 
-0.403017 -1.851253 0.000000 
-0.445733 -1.830674 0.000000 
-0.000000 -1.758478 0.000000 
0.043388 -1.854908 0.000000 
-0.000000 -1.824876 0.000000 
-0.043388 -1.854908 0.000000 
0.087158 -1.947105 0.000000 
0.043769 -1.923407 0.000000 
-0.000000 -1.961872 0.000000 
-0.043769 -1.923407 0.000000 
-0.087158 -1.947105 0.000000 
0.130831 -2.038235 0.000000 
0.087824 -2.016636 0.000000 
0.044436 -2.059336 0.000000 
-0.000000 -2.028271 0.000000 
-0.044436 -2.059336 0.000000 
-0.087824 -2.016636 0.000000 
-0.130831 -2.038235 0.000000 
0.174505 -2.129364 0.000000 
0.131782 -2.108798 0.000000 
0.088871 -2.154665 0.000000 
0.044532 -2.126801 0.000000 
-0.000000 -2.163201 0.000000 
-0.044532 -2.126801 0.000000 
-0.088871 -2.154665 0.000000 
-0.131782 -2.108798 0.000000 
-0.174505 -2.129364 0.000000 
0.046960 -1.735863 0.000000 
0.149405 -1.762064 0.000000 
0.098873 -1.777262 0.000000 
0.095301 -1.829909 0.000000 
0.248777 -1.785327 0.000000 
0.203197 -1.804474 0.000000 
0.205981 -1.862677 0.000000 
0.148617 -1.872915 0.000000 
0.140093 -1.921613 0.000000 
0.347255 -1.808001 0.000000 
0.303554 -1.828158 0.000000 
0.309886 -1.888704 0.000000 
0.257893 -1.904076 0.000000 
0.254475 -1.958186 0.000000 
0.194039 -1.965485 0.000000 
0.184111 -2.012576 0.000000 
0.445733 -1.830674 0.000000 
0.403017 -1.851253 0.000000 
0.412122 -1.913399 0.000000 
0.362692 -1.930693 0.000000 
0.363386 -1.988204 0.000000 
0.307162 -2.000325 0.000000 
0.301302 -2.052364 0.000000 
0.238687 -2.057316 0.000000 
0.228129 -2.103540 0.000000 
0.058559 -1.685048 0.000000 
0.142917 -1.621289 0.000000 
0.123292 -1.670273 0.000000 
0.162226 -1.705890 0.000000 
0.223062 -1.558102 0.000000 
0.209613 -1.605676 0.000000 
0.256854 -1.639788 0.000000 
0.229092 -1.691020 0.000000 
0.261851 -1.728047 0.000000 
0.302189 -1.495245 0.000000 
0.290702 -1.541980 0.000000 
0.341985 -1.574779 0.000000 
0.321587 -1.625013 0.000000 
0.361761 -1.661422 0.000000 
0.329787 -1.713224 0.000000 
0.360414 -1.750347 0.000000 
0.381315 -1.432388 0.000000 
0.370772 -1.478616 0.000000 
0.425037 -1.510245 0.000000 
0.407738 -1.559673 0.000000 
0.453135 -1.594988 0.000000 
0.427556 -1.646503 0.000000 
0.464588 -1.683531 0.000000 
0.429420 -1.735572 0.000000 
0.458977 -1.772647 0.000000 
0.026061 -1.644297 0.000000 
0.028809 -1.538591 0.000000 
0.054870 -1.584474 0.000000 
0.106992 -1.576242 0.000000 
0.029377 -1.436533 0.000000 
0.058186 -1.476711 0.000000 
0.114311 -1.461045 0.000000 
0.137056 -1.514692 0.000000 
0.186430 -1.512166 0.000000 
0.029568 -1.335479 0.000000 
0.058945 -1.373599 0.000000 
0.116563 -1.353954 0.000000 
0.143120 -1.401222 0.000000 
0.196633 -1.392513 0.000000 
0.217198 -1.449810 0.000000 
0.265318 -1.449010 0.000000 
0.029759 -1.234425 0.000000 
0.059328 -1.271491 0.000000 
0.117890 -1.248785 0.000000 
0.145749 -1.293128 0.000000 
0.201664 -1.279654 0.000000 
0.225992 -1.331771 0.000000 
0.278030 -1.325904 0.000000 
0.296791 -1.385847 0.000000 
0.344206 -1.385854 0.000000 
VECTORS X_EC float 
0.338794 0.698009 0.000000 
-0.609100 -0.220739 0.000000 
0.713312 -0.109598 0.000000 
0.374519 -0.729028 0.000000 
0.423588 0.914241 0.000000 
-0.218274 0.948345 0.000000 
-0.513962 0.224106 0.000000 
0.756418 0.435592 0.000000 
0.381900 -0.106800 0.000000 
-0.550868 0.061638 0.000000 
0.823577 0.072434 0.000000 
0.556234 -0.701070 0.000000 
-0.139443 -0.583501 0.000000 
-0.484677 0.778374 0.000000 
0.766286 -0.956411 0.000000 
0.384386 0.528969 0.000000 
0.474677 -0.790965 0.000000 
-0.141715 -0.791061 0.000000 
-0.385608 0.399711 0.000000 
0.937896 0.478906 0.000000 
0.621631 -0.224674 0.000000 
-0.105264 -0.042775 0.000000 
-0.467428 -0.641401 0.000000 
0.771260 -0.334873 0.000000 
0.386873 -0.835262 0.000000 
0.761262 -0.751856 0.000000 
0.108942 -0.470480 0.000000 
-0.397202 -0.951319 0.000000 
-0.142083 0.387406 0.000000 
-0.595936 -0.171369 0.000000 
0.978194 -0.671235 0.000000 
-0.660903 0.637140 0.000000 
0.724964 0.176620 0.000000 
0.899809 -0.465629 0.000000 
0.685384 0.129683 0.000000 
0.287229 -0.371475 0.000000 
0.702895 0.929196 0.000000 
0.180633 0.437677 0.000000 
0.445811 -0.240482 0.000000 
-0.220880 -0.683268 0.000000 
-0.071546 0.685806 0.000000 
-0.033296 0.430735 0.000000 
-0.417537 -0.069774 0.000000 
0.039645 -0.772337 0.000000 
-0.441768 0.727792 0.000000 
-0.109248 0.032341 0.000000 
-0.699407 -0.444414 0.000000 
-0.474522 0.888307 0.000000 
0.820030 0.461313 0.000000 
0.957100 -0.162759 0.000000 
0.610485 -0.065850 0.000000 
-0.761092 -0.796231 0.000000 
-0.714655 0.493032 0.000000 
-0.057734 0.287865 0.000000 
-0.178789 0.441774 0.000000 
-0.067979 -0.215652 0.000000 
0.677748 -0.353856 0.000000 
0.641556 0.860399 0.000000 
-0.765897 0.601920 0.000000 
0.393446 -0.330217 0.000000 
0.522510 -0.965947 0.000000 
-0.691820 0.935508 0.000000 
-0.647393 0.205026 0.000000 
0.028512 -0.002501 0.000000 
-0.053800 -0.819861 0.000000 
0.514316 0.908008 0.000000 
0.965681 0.897792 0.000000 
-0.897068 0.273763 0.000000 
-0.083078 0.206910 0.000000 
-0.006893 -0.495615 0.000000 
0.724017 -0.659248 0.000000 
0.714996 0.564349 0.000000 
-0.642413 0.330892 0.000000 
-0.760780 -0.508089 0.000000 
-0.205471 -0.785904 0.000000 
0.000000 0.239452 0.000000 
-0.564049 -0.458735 0.000000 
0.000000 -0.864171 0.000000 
0.564049 -0.458735 0.000000 
0.866949 0.785920 0.000000 
-0.569003 0.465989 0.000000 
0.000000 0.985277 0.000000 
0.569003 0.465989 0.000000 
-0.866949 0.785920 0.000000 
0.299194 0.016170 0.000000 
0.858290 -0.275414 0.000000 
-0.577662 0.301032 0.000000 
0.000000 -0.118346 0.000000 
0.577662 0.301032 0.000000 
-0.858290 -0.275414 0.000000 
-0.299194 0.016170 0.000000 
-0.268560 -0.753580 0.000000 
0.286830 0.968778 0.000000 
0.844677 -0.412023 0.000000 
-0.578910 -0.788186 0.000000 
0.000000 -0.296782 0.000000 
0.578910 -0.788186 0.000000 
-0.844677 -0.412023 0.000000 
-0.286830 0.968778 0.000000 
0.268560 -0.753580 0.000000 
-0.610485 -0.065850 0.000000 
0.057734 0.287865 0.000000 
0.714655 0.493032 0.000000 
0.761092 -0.796231 0.000000 
0.765897 0.601920 0.000000 
-0.641556 0.860399 0.000000 
-0.677748 -0.353856 0.000000 
0.067979 -0.215652 0.000000 
0.178789 0.441774 0.000000 
-0.514316 0.908008 0.000000 
0.053800 -0.819861 0.000000 
-0.028512 -0.002501 0.000000 
0.647393 0.205026 0.000000 
0.691820 0.935508 0.000000 
-0.522510 -0.965947 0.000000 
-0.393446 -0.330217 0.000000 
0.205471 -0.785904 0.000000 
0.760780 -0.508089 0.000000 
0.642413 0.330892 0.000000 
-0.714996 0.564349 0.000000 
-0.724017 -0.659248 0.000000 
0.006894 -0.495615 0.000000 
0.083078 0.206910 0.000000 
0.897068 0.273763 0.000000 
-0.965681 0.897792 0.000000 
-0.761262 -0.751856 0.000000 
0.142083 0.387406 0.000000 
0.397202 -0.951319 0.000000 
-0.108942 -0.470480 0.000000 
-0.899809 -0.465629 0.000000 
-0.724964 0.176620 0.000000 
0.660903 0.637140 0.000000 
-0.978194 -0.671235 0.000000 
0.595936 -0.171369 0.000000 
0.071546 0.685806 0.000000 
0.220880 -0.683268 0.000000 
-0.445811 -0.240482 0.000000 
-0.180633 0.437677 0.000000 
-0.702895 0.929196 0.000000 
-0.287229 -0.371475 0.000000 
-0.685384 0.129683 0.000000 
-0.957100 -0.162759 0.000000 
-0.820030 0.461313 0.000000 
0.474522 0.888307 0.000000 
0.699407 -0.444414 0.000000 
0.109248 0.032341 0.000000 
0.441768 0.727792 0.000000 
-0.039645 -0.772337 0.000000 
0.417537 -0.069774 0.000000 
0.033296 0.430735 0.000000 
-0.338794 0.698009 0.000000 
-0.374519 -0.729028 0.000000 
-0.713312 -0.109598 0.000000 
0.609100 -0.220739 0.000000 
-0.381900 -0.106800 0.000000 
-0.756418 0.435592 0.000000 
0.513962 0.224106 0.000000 
0.218274 0.948345 0.000000 
-0.423588 0.914241 0.000000 
-0.384386 0.528969 0.000000 
-0.766286 -0.956411 0.000000 
0.484677 0.778374 0.000000 
0.139443 -0.583501 0.000000 
-0.556234 -0.701070 0.000000 
-0.823577 0.072434 0.000000 
0.550868 0.061638 0.000000 
-0.386873 -0.835262 0.000000 
-0.771260 -0.334873 0.000000 
0.467428 -0.641401 0.000000 
0.105264 -0.042775 0.000000 
-0.621631 -0.224674 0.000000 
-0.937896 0.478906 0.000000 
0.385608 0.399711 0.000000 
0.141715 -0.791061 0.000000 
-0.474677 -0.790965 0.000000 
CELL_DATA 175 
SCALARS MASS float 
LOOKUP_TABLE default 
0.078183 
0.086427 
0.094672 
0.086427 
0.088131 
0.092111 
0.085854 
0.092111 
0.088131 
0.088705 
0.091000 
0.086983 
0.091556 
0.086983 
0.091000 
0.088705 
0.089278 
0.091574 
0.089278 
0.092722 
0.089278 
0.092722 
0.089278 
0.091574 
0.089278 
0.078183 
0.086427 
0.094672 
0.086427 
0.088131 
0.092111 
0.085854 
0.092111 
0.088131 
0.088705 
0.091000 
0.086983 
0.091556 
0.086983 
0.091000 
0.088705 
0.089278 
0.091574 
0.089278 
0.092722 
0.089278 
0.092722 
0.089278 
0.091574 
0.089278 
0.078183 
0.086427 
0.094672 
0.086427 
0.088131 
0.092111 
0.085854 
0.092111 
0.088131 
0.088705 
0.091000 
0.086983 
0.091556 
0.086983 
0.091000 
0.088705 
0.089278 
0.091574 
0.089278 
0.092722 
0.089278 
0.092722 
0.089278 
0.091574 
0.089278 
0.078183 
0.086427 
0.094672 
0.086427 
0.088131 
0.092111 
0.085854 
0.092111 
0.088131 
0.088705 
0.091000 
0.086983 
0.091556 
0.086983 
0.091000 
0.088705 
0.089278 
0.091574 
0.089278 
0.092722 
0.089278 
0.092722 
0.089278 
0.091574 
0.089278 
0.078183 
0.086427 
0.094672 
0.086427 
0.088131 
0.092111 
0.085854 
0.092111 
0.088131 
0.088705 
0.091000 
0.086983 
0.091556 
0.086983 
0.091000 
0.088705 
0.089278 
0.091574 
0.089278 
0.092722 
0.089278 
0.092722 
0.089278 
0.091574 
0.089278 
0.078183 
0.086427 
0.094672 
0.086427 
0.088131 
0.092111 
0.085854 
0.092111 
0.088131 
0.088705 
0.091000 
0.086983 
0.091556 
0.086983 
0.091000 
0.088705 
0.089278 
0.091574 
0.089278 
0.092722 
0.089278 
0.092722 
0.089278 
0.091574 
0.089278 
0.078183 
0.086427 
0.094672 
0.086427 
0.088131 
0.092111 
0.085854 
0.092111 
0.088131 
0.088705 
0.091000 
0.086983 
0.091556 
0.086983 
0.091000 
0.088705 
0.089278 
0.091574 
0.089278 
0.092722 
0.089278 
0.092722 
0.089278 
0.091574 
0.089278 
SCALARS MASS float 
LOOKUP_TABLE default 
0.078183 
0.086427 
0.094672 
0.086427 
0.088131 
0.092111 
0.085854 
0.092111 
0.088131 
0.088705 
0.091000 
0.086983 
0.091556 
0.086983 
0.091000 
0.088705 
0.089278 
0.091574 
0.089278 
0.092722 
0.089278 
0.092722 
0.089278 
0.091574 
0.089278 
0.078183 
0.086427 
0.094672 
0.086427 
0.088131 
0.092111 
0.085854 
0.092111 
0.088131 
0.088705 
0.091000 
0.086983 
0.091556 
0.086983 
0.091000 
0.088705 
0.089278 
0.091574 
0.089278 
0.092722 
0.089278 
0.092722 
0.089278 
0.091574 
0.089278 
0.078183 
0.086427 
0.094672 
0.086427 
0.088131 
0.092111 
0.085854 
0.092111 
0.088131 
0.088705 
0.091000 
0.086983 
0.091556 
0.086983 
0.091000 
0.088705 
0.089278 
0.091574 
0.089278 
0.092722 
0.089278 
0.092722 
0.089278 
0.091574 
0.089278 
0.078183 
0.086427 
0.094672 
0.086427 
0.088131 
0.092111 
0.085854 
0.092111 
0.088131 
0.088705 
0.091000 
0.086983 
0.091556 
0.086983 
0.091000 
0.088705 
0.089278 
0.091574 
0.089278 
0.092722 
0.089278 
0.092722 
0.089278 
0.091574 
0.089278 
0.078183 
0.086427 
0.094672 
0.086427 
0.088131 
0.092111 
0.085854 
0.092111 
0.088131 
0.088705 
0.091000 
0.086983 
0.091556 
0.086983 
0.091000 
0.088705 
0.089278 
0.091574 
0.089278 
0.092722 
0.089278 
0.092722 
0.089278 
0.091574 
0.089278 
0.078183 
0.086427 
0.094672 
0.086427 
0.088131 
0.092111 
0.085854 
0.092111 
0.088131 
0.088705 
0.091000 
0.086983 
0.091556 
0.086983 
0.091000 
0.088705 
0.089278 
0.091574 
0.089278 
0.092722 
0.089278 
0.092722 
0.089278 
0.091574 
0.089278 
0.078183 
0.086427 
0.094672 
0.086427 
0.088131 
0.092111 
0.085854 
0.092111 
0.088131 
0.088705 
0.091000 
0.086983 
0.091556 
0.086983 
0.091000 
0.088705 
0.089278 
0.091574 
0.089278 
0.092722 
0.089278 
0.092722 
0.089278 
0.091574 
0.089278 
SCALARS DENSITY float 
LOOKUP_TABLE default 
20.000000 
20.000000 
20.000000 
20.000000 
20.000000 
20.000000 
20.000000 
20.000000 
20.000000 
20.000000 
20.000000 
20.000000 
20.000000 
20.000000 
20.000000 
20.000000 
20.000000 
20.000000 
20.000000 
20.000000 
20.000000 
20.000000 
20.000000 
20.000000 
20.000000 
20.000000 
20.000000 
20.000000 
20.000000 
20.000000 
20.000000 
20.000000 
20.000000 
20.000000 
20.000000 
20.000000 
20.000000 
20.000000 
20.000000 
20.000000 
20.000000 
20.000000 
20.000000 
20.000000 
20.000000 
20.000000 
20.000000 
20.000000 
20.000000 
20.000000 
20.000000 
20.000000 
20.000000 
20.000000 
20.000000 
20.000000 
20.000000 
20.000000 
20.000000 
20.000000 
20.000000 
20.000000 
20.000000 
20.000000 
20.000000 
20.000000 
20.000000 
20.000000 
20.000000 
20.000000 
20.000000 
20.000000 
20.000000 
20.000000 
20.000000 
20.000000 
20.000000 
20.000000 
20.000000 
20.000000 
20.000000 
20.000000 
20.000000 
20.000000 
20.000000 
20.000000 
20.000000 
20.000000 
20.000000 
20.000000 
20.000000 
20.000000 
20.000000 
20.000000 
20.000000 
20.000000 
20.000000 
20.000000 
20.000000 
20.000000 
20.000000 
20.000000 
20.000000 
20.000000 
20.000000 
20.000000 
20.000000 
20.000000 
20.000000 
20.000000 
20.000000 
20.000000 
20.000000 
20.000000 
20.000000 
20.000000 
20.000000 
20.000000 
20.000000 
20.000000 
20.000000 
20.000000 
20.000000 
20.000000 
20.000000 
20.000000 
20.000000 
20.000000 
20.000000 
20.000000 
20.000000 
20.000000 
20.000000 
20.000000 
20.000000 
20.000000 
20.000000 
20.000000 
20.000000 
20.000000 
20.000000 
20.000000 
20.000000 
20.000000 
20.000000 
20.000000 
20.000000 
20.000000 
20.000000 
20.000000 
20.000000 
20.000000 
20.000000 
20.000000 
20.000000 
20.000000 
20.000000 
20.000000 
20.000000 
20.000000 
20.000000 
20.000000 
20.000000 
20.000000 
20.000000 
20.000000 
20.000000 
20.000000 
20.000000 
20.000000 
20.000000 
20.000000 
20.000000 
20.000000 
20.000000 
SCALARS ELEM_i float 
LOOKUP_TABLE default 
171 
198 
171 
171 
199 
199 
199 
172 
172 
226 
199 
199 
199 
200 
172 
173 
226 
226 
227 
200 
200 
200 
200 
173 
173 
170 
197 
197 
198 
224 
197 
225 
198 
198 
224 
224 
225 
225 
225 
225 
226 
251 
251 
251 
252 
252 
252 
253 
226 
226 
170 
196 
197 
197 
196 
196 
196 
197 
224 
195 
195 
223 
223 
223 
223 
224 
195 
222 
222 
222 
222 
223 
250 
250 
250 
170 
169 
169 
169 
142 
169 
169 
169 
196 
141 
141 
168 
168 
168 
195 
195 
140 
141 
140 
167 
167 
167 
194 
195 
194 
170 
143 
143 
142 
116 
143 
142 
142 
142 
116 
115 
115 
115 
115 
141 
141 
88 
88 
88 
115 
114 
114 
114 
114 
141 
170 
144 
143 
143 
144 
144 
117 
143 
116 
118 
117 
117 
117 
117 
116 
116 
118 
118 
91 
90 
90 
90 
89 
89 
89 
171 
171 
171 
144 
172 
172 
145 
145 
145 
173 
172 
146 
145 
145 
145 
118 
173 
173 
146 
146 
146 
146 
119 
118 
118 
VECTORS VELOCITY float 
-0.000000 -5.772204 0.000000 
0.000000 -5.772204 0.000000 
0.000000 -5.772204 0.000000 
-0.000000 -5.772204 0.000000 
0.000000 -5.772204 0.000000 
-0.000000 -5.772204 0.000000 
-0.000000 -5.772204 0.000000 
-0.000000 -5.772204 0.000000 
0.000000 -5.772204 0.000000 
0.000000 -5.772204 0.000000 
0.000000 -5.772204 0.000000 
0.000000 -5.772204 0.000000 
0.000000 -5.772204 0.000000 
0.000000 -5.772204 0.000000 
0.000000 -5.772204 0.000000 
0.000000 -5.772204 0.000000 
0.000000 -5.772204 0.000000 
-0.000000 -5.772204 0.000000 
0.000000 -5.772204 0.000000 
-0.000000 -5.772204 0.000000 
-0.000000 -5.772204 0.000000 
0.000000 -5.772204 0.000000 
0.000000 -5.772204 0.000000 
-0.000000 -5.772204 0.000000 
-0.000000 -5.772204 0.000000 
-0.000000 -5.772204 0.000000 
-0.000000 -5.772204 0.000000 
-0.000000 -5.772204 0.000000 
-0.000000 -5.772204 0.000000 
0.000000 -5.772204 0.000000 
0.000000 -5.772204 0.000000 
0.000000 -5.772204 0.000000 
0.000000 -5.772204 0.000000 
-0.000000 -5.772204 0.000000 
0.000000 -5.772204 0.000000 
0.000000 -5.772204 0.000000 
0.000000 -5.772204 0.000000 
0.000000 -5.772204 0.000000 
0.000000 -5.772204 0.000000 
0.000000 -5.772204 0.000000 
0.000000 -5.772204 0.000000 
-0.000000 -5.772204 0.000000 
-0.000000 -5.772204 0.000000 
-0.000000 -5.772204 0.000000 
-0.000000 -5.772204 0.000000 
-0.000000 -5.772204 0.000000 
0.000000 -5.772204 0.000000 
-0.000000 -5.772204 0.000000 
0.000000 -5.772204 0.000000 
0.000000 -5.772204 0.000000 
-0.000000 -5.772204 0.000000 
-0.000000 -5.772204 0.000000 
-0.000000 -5.772204 0.000000 
-0.000000 -5.772204 0.000000 
0.000000 -5.772204 0.000000 
-0.000000 -5.772204 0.000000 
-0.000000 -5.772204 0.000000 
-0.000000 -5.772204 0.000000 
-0.000000 -5.772204 0.000000 
-0.000000 -5.772204 0.000000 
-0.000000 -5.772204 0.000000 
0.000000 -5.772204 0.000000 
0.000000 -5.772204 0.000000 
-0.000000 -5.772204 0.000000 
-0.000000 -5.772204 0.000000 
-0.000000 -5.772204 0.000000 
-0.000000 -5.772204 0.000000 
-0.000000 -5.772204 0.000000 
-0.000000 -5.772204 0.000000 
-0.000000 -5.772204 0.000000 
0.000000 -5.772204 0.000000 
0.000000 -5.772204 0.000000 
0.000000 -5.772204 0.000000 
0.000000 -5.772204 0.000000 
0.000000 -5.772204 0.000000 
-0.000000 -5.772204 0.000000 
0.000000 -5.772204 0.000000 
0.000000 -5.772204 0.000000 
0.000000 -5.772204 0.000000 
-0.000000 -5.772204 0.000000 
-0.000000 -5.772204 0.000000 
-0.000000 -5.772204 0.000000 
-0.000000 -5.772204 0.000000 
-0.000000 -5.772204 0.000000 
-0.000000 -5.772204 0.000000 
-0.000000 -5.772204 0.000000 
0.000000 -5.772204 0.000000 
-0.000000 -5.772204 0.000000 
-0.000000 -5.772204 0.000000 
-0.000000 -5.772204 0.000000 
-0.000000 -5.772204 0.000000 
-0.000000 -5.772204 0.000000 
-0.000000 -5.772204 0.000000 
-0.000000 -5.772204 0.000000 
-0.000000 -5.772204 0.000000 
-0.000000 -5.772204 0.000000 
-0.000000 -5.772204 0.000000 
-0.000000 -5.772204 0.000000 
-0.000000 -5.772204 0.000000 
0.000000 -5.772204 0.000000 
0.000000 -5.772204 0.000000 
0.000000 -5.772204 0.000000 
0.000000 -5.772204 0.000000 
0.000000 -5.772204 0.000000 
0.000000 -5.772204 0.000000 
0.000000 -5.772204 0.000000 
0.000000 -5.772204 0.000000 
0.000000 -5.772204 0.000000 
-0.000000 -5.772204 0.000000 
0.000000 -5.772204 0.000000 
-0.000000 -5.772204 0.000000 
-0.000000 -5.772204 0.000000 
0.000000 -5.772204 0.000000 
0.000000 -5.772204 0.000000 
0.000000 -5.772204 0.000000 
-0.000000 -5.772204 0.000000 
-0.000000 -5.772204 0.000000 
-0.000000 -5.772204 0.000000 
0.000000 -5.772204 0.000000 
-0.000000 -5.772204 0.000000 
0.000000 -5.772204 0.000000 
-0.000000 -5.772204 0.000000 
0.000000 -5.772204 0.000000 
-0.000000 -5.772204 0.000000 
-0.000000 -5.772204 0.000000 
-0.000000 -5.772204 0.000000 
0.000000 -5.772204 0.000000 
-0.000000 -5.772204 0.000000 
0.000000 -5.772204 0.000000 
-0.000000 -5.772204 0.000000 
0.000000 -5.772204 0.000000 
0.000000 -5.772204 0.000000 
0.000000 -5.772204 0.000000 
0.000000 -5.772204 0.000000 
0.000000 -5.772204 0.000000 
-0.000000 -5.772204 0.000000 
-0.000000 -5.772204 0.000000 
-0.000000 -5.772204 0.000000 
-0.000000 -5.772204 0.000000 
0.000000 -5.772204 0.000000 
0.000000 -5.772204 0.000000 
-0.000000 -5.772204 0.000000 
0.000000 -5.772204 0.000000 
-0.000000 -5.772204 0.000000 
0.000000 -5.772204 0.000000 
0.000000 -5.772204 0.000000 
-0.000000 -5.772204 0.000000 
-0.000000 -5.772204 0.000000 
-0.000000 -5.772204 0.000000 
-0.000000 -5.772204 0.000000 
-0.000000 -5.772204 0.000000 
0.000000 -5.772204 0.000000 
-0.000000 -5.772204 0.000000 
-0.000000 -5.772204 0.000000 
0.000000 -5.772204 0.000000 
0.000000 -5.772204 0.000000 
0.000000 -5.772204 0.000000 
0.000000 -5.772204 0.000000 
0.000000 -5.772204 0.000000 
0.000000 -5.772204 0.000000 
0.000000 -5.772204 0.000000 
0.000000 -5.772204 0.000000 
-0.000000 -5.772204 0.000000 
-0.000000 -5.772204 0.000000 
0.000000 -5.772204 0.000000 
0.000000 -5.772204 0.000000 
0.000000 -5.772204 0.000000 
0.000000 -5.772204 0.000000 
0.000000 -5.772204 0.000000 
0.000000 -5.772204 0.000000 
0.000000 -5.772204 0.000000 
-0.000000 -5.772204 0.000000 
-0.000000 -5.772204 0.000000 
-0.000000 -5.772204 0.000000 
0.000000 -5.772204 0.000000 
TENSORS STRESS float 
-0.000000 0.000000 0.000000 
0.000000 -0.000000 0.000000 
0.000000 0.000000 0.000000 

0.000000 -0.000000 0.000000 
0.000000 0.000000 0.000000 
0.000000 0.000000 0.000000 

-0.000000 0.000000 0.000000 
0.000000 -0.000000 0.000000 
0.000000 0.000000 0.000000 

-0.000000 -0.000000 0.000000 
0.000000 -0.000000 0.000000 
0.000000 0.000000 0.000000 

-0.000000 0.000000 0.000000 
0.000000 -0.000000 0.000000 
0.000000 0.000000 0.000000 

-0.000000 -0.000000 0.000000 
0.000000 0.000000 0.000000 
0.000000 0.000000 0.000000 

-0.000000 0.000000 0.000000 
0.000000 0.000000 0.000000 
0.000000 0.000000 0.000000 

-0.000000 0.000000 0.000000 
0.000000 0.000000 0.000000 
0.000000 0.000000 0.000000 

-0.000000 0.000000 0.000000 
0.000000 -0.000000 0.000000 
0.000000 0.000000 0.000000 

0.000000 -0.000000 0.000000 
0.000000 0.000000 0.000000 
0.000000 0.000000 0.000000 

-0.000000 -0.000000 0.000000 
0.000000 0.000000 0.000000 
0.000000 0.000000 0.000000 

0.000000 0.000000 0.000000 
0.000000 0.000000 0.000000 
0.000000 0.000000 0.000000 

-0.000000 0.000000 0.000000 