# vtk DataFile Version 3.0 
vtk output 
ASCII 
DATASET UNSTRUCTURED_GRID 
POINTS 175 float 
-0.026061 -1.882063 0.000000 
-0.106992 -1.814007 0.000000 
-0.054870 -1.822240 0.000000 
-0.028809 -1.776356 0.000000 
-0.186430 -1.749932 0.000000 
-0.137056 -1.752458 0.000000 
-0.114311 -1.698810 0.000000 
-0.058186 -1.714476 0.000000 
-0.029377 -1.674299 0.000000 
-0.265318 -1.686776 0.000000 
-0.217198 -1.687575 0.000000 
-0.196633 -1.630279 0.000000 
-0.143120 -1.638988 0.000000 
-0.116563 -1.591719 0.000000 
-0.058945 -1.611365 0.000000 
-0.029568 -1.573245 0.000000 
-0.344206 -1.623620 0.000000 
-0.296791 -1.623613 0.000000 
-0.278030 -1.563670 0.000000 
-0.225992 -1.569536 0.000000 
-0.201664 -1.517419 0.000000 
-0.145749 -1.530893 0.000000 
-0.117890 -1.486551 0.000000 
-0.059328 -1.509257 0.000000 
-0.029759 -1.472191 0.000000 
-0.058559 -1.922813 0.000000 
-0.162226 -1.943656 0.000000 
-0.123292 -1.908038 0.000000 
-0.142917 -1.859055 0.000000 
-0.261851 -1.965812 0.000000 
-0.229092 -1.928785 0.000000 
-0.256854 -1.877554 0.000000 
-0.209613 -1.843441 0.000000 
-0.223062 -1.795867 0.000000 
-0.360414 -1.988112 0.000000 
-0.329787 -1.950990 0.000000 
-0.361761 -1.899188 0.000000 
-0.321587 -1.862779 0.000000 
-0.341985 -1.812545 0.000000 
-0.290702 -1.779746 0.000000 
-0.302189 -1.733011 0.000000 
-0.458977 -2.010413 0.000000 
-0.429420 -1.973338 0.000000 
-0.464588 -1.921296 0.000000 
-0.427556 -1.884269 0.000000 
-0.453135 -1.832754 0.000000 
-0.407738 -1.797439 0.000000 
-0.425037 -1.748011 0.000000 
-0.370772 -1.716381 0.000000 
-0.381315 -1.670154 0.000000 
-0.046960 -1.973629 0.000000 
-0.095301 -2.067674 0.000000 
-0.098873 -2.015027 0.000000 
-0.149405 -1.999830 0.000000 
-0.140093 -2.159378 0.000000 
-0.148617 -2.110680 0.000000 
-0.205981 -2.100443 0.000000 
-0.203197 -2.042240 0.000000 
-0.248777 -2.023093 0.000000 
-0.184111 -2.250342 0.000000 
-0.194039 -2.203251 0.000000 
-0.254475 -2.195951 0.000000 
-0.257893 -2.141842 0.000000 
-0.309886 -2.126469 0.000000 
-0.303554 -2.065924 0.000000 
-0.347255 -2.045766 0.000000 
-0.228129 -2.341306 0.000000 
-0.238687 -2.295081 0.000000 
-0.301302 -2.290129 0.000000 
-0.307162 -2.238090 0.000000 
-0.363386 -2.225969 0.000000 
-0.362692 -2.168458 0.000000 
-0.412122 -2.151165 0.000000 
-0.403017 -2.089018 0.000000 
-0.445733 -2.068439 0.000000 
-0.000000 -1.996243 0.000000 
0.043388 -2.092674 0.000000 
-0.000000 -2.062642 0.000000 
-0.043388 -2.092674 0.000000 
0.087158 -2.184871 0.000000 
0.043769 -2.161172 0.000000 
-0.000000 -2.199638 0.000000 
-0.043769 -2.161172 0.000000 
-0.087158 -2.184871 0.000000 
0.130831 -2.276000 0.000000 
0.087824 -2.254402 0.000000 
0.044436 -2.297101 0.000000 
-0.000000 -2.266036 0.000000 
-0.044436 -2.297101 0.000000 
-0.087824 -2.254402 0.000000 
-0.130831 -2.276000 0.000000 
0.174505 -2.367130 0.000000 
0.131782 -2.346564 0.000000 
0.088871 -2.392431 0.000000 
0.044532 -2.364567 0.000000 
-0.000000 -2.400967 0.000000 
-0.044532 -2.364567 0.000000 
-0.088871 -2.392431 0.000000 
-0.131782 -2.346564 0.000000 
-0.174505 -2.367130 0.000000 
0.046960 -1.973629 0.000000 
0.149405 -1.999830 0.000000 
0.098873 -2.015027 0.000000 
0.095301 -2.067674 0.000000 
0.248777 -2.023093 0.000000 
0.203197 -2.042240 0.000000 
0.205981 -2.100443 0.000000 
0.148617 -2.110680 0.000000 
0.140093 -2.159378 0.000000 
0.347255 -2.045766 0.000000 
0.303554 -2.065924 0.000000 
0.309886 -2.126469 0.000000 
0.257893 -2.141842 0.000000 
0.254475 -2.195951 0.000000 
0.194039 -2.203251 0.000000 
0.184111 -2.250342 0.000000 
0.445733 -2.068439 0.000000 
0.403017 -2.089018 0.000000 
0.412122 -2.151165 0.000000 
0.362692 -2.168458 0.000000 
0.363386 -2.225969 0.000000 
0.307162 -2.238090 0.000000 
0.301302 -2.290129 0.000000 
0.238687 -2.295081 0.000000 
0.228129 -2.341306 0.000000 
0.058559 -1.922813 0.000000 
0.142917 -1.859055 0.000000 
0.123292 -1.908038 0.000000 
0.162226 -1.943656 0.000000 
0.223062 -1.795867 0.000000 
0.209613 -1.843441 0.000000 
0.256854 -1.877554 0.000000 
0.229092 -1.928785 0.000000 
0.261851 -1.965812 0.000000 
0.302189 -1.733011 0.000000 
0.290702 -1.779746 0.000000 
0.341985 -1.812545 0.000000 
0.321587 -1.862779 0.000000 
0.361761 -1.899188 0.000000 
0.329787 -1.950990 0.000000 
0.360414 -1.988112 0.000000 
0.381315 -1.670154 0.000000 
0.370772 -1.716381 0.000000 
0.425037 -1.748011 0.000000 
0.407738 -1.797439 0.000000 
0.453135 -1.832754 0.000000 
0.427556 -1.884269 0.000000 
0.464588 -1.921296 0.000000 
0.429420 -1.973338 0.000000 
0.458977 -2.010413 0.000000 
0.026061 -1.882063 0.000000 
0.028809 -1.776356 0.000000 
0.054870 -1.822240 0.000000 
0.106992 -1.814007 0.000000 
0.029377 -1.674299 0.000000 
0.058186 -1.714476 0.000000 
0.114311 -1.698810 0.000000 
0.137056 -1.752458 0.000000 
0.186430 -1.749932 0.000000 
0.029568 -1.573245 0.000000 
0.058945 -1.611365 0.000000 
0.116563 -1.591719 0.000000 
0.143120 -1.638988 0.000000 
0.196633 -1.630279 0.000000 
0.217198 -1.687575 0.000000 
0.265318 -1.686776 0.000000 
0.029759 -1.472191 0.000000 
0.059328 -1.509257 0.000000 
0.117890 -1.486551 0.000000 
0.145749 -1.530893 0.000000 
0.201664 -1.517419 0.000000 
0.225992 -1.569536 0.000000 
0.278030 -1.563670 0.000000 
0.296791 -1.623613 0.000000 
0.344206 -1.623620 0.000000 
CELLS 175 350 
1 0 
1 1 
1 2 
1 3 
1 4 
1 5 
1 6 
1 7 
1 8 
1 9 
1 10 
1 11 
1 12 
1 13 
1 14 
1 15 
1 16 
1 17 
1 18 
1 19 
1 20 
1 21 
1 22 
1 23 
1 24 
1 25 
1 26 
1 27 
1 28 
1 29 
1 30 
1 31 
1 32 
1 33 
1 34 
1 35 
1 36 
1 37 
1 38 
1 39 
1 40 
1 41 
1 42 
1 43 
1 44 
1 45 
1 46 
1 47 
1 48 
1 49 
1 50 
1 51 
1 52 
1 53 
1 54 
1 55 
1 56 
1 57 
1 58 
1 59 
1 60 
1 61 
1 62 
1 63 
1 64 
1 65 
1 66 
1 67 
1 68 
1 69 
1 70 
1 71 
1 72 
1 73 
1 74 
1 75 
1 76 
1 77 
1 78 
1 79 
1 80 
1 81 
1 82 
1 83 
1 84 
1 85 
1 86 
1 87 
1 88 
1 89 
1 90 
1 91 
1 92 
1 93 
1 94 
1 95 
1 96 
1 97 
1 98 
1 99 
1 100 
1 101 
1 102 
1 103 
1 104 
1 105 
1 106 
1 107 
1 108 
1 109 
1 110 
1 111 
1 112 
1 113 
1 114 
1 115 
1 116 
1 117 
1 118 
1 119 
1 120 
1 121 
1 122 
1 123 
1 124 
1 125 
1 126 
1 127 
1 128 
1 129 
1 130 
1 131 
1 132 
1 133 
1 134 
1 135 
1 136 
1 137 
1 138 
1 139 
1 140 
1 141 
1 142 
1 143 
1 144 
1 145 
1 146 
1 147 
1 148 
1 149 
1 150 
1 151 
1 152 
1 153 
1 154 
1 155 
1 156 
1 157 
1 158 
1 159 
1 160 
1 161 
1 162 
1 163 
1 164 
1 165 
1 166 
1 167 
1 168 
1 169 
1 170 
1 171 
1 172 
1 173 
1 174 
CELL_TYPES 175 
1 
1 
1 
1 
1 
1 
1 
1 
1 
1 
1 
1 
1 
1 
1 
1 
1 
1 
1 
1 
1 
1 
1 
1 
1 
1 
1 
1 
1 
1 
1 
1 
1 
1 
1 
1 
1 
1 
1 
1 
1 
1 
1 
1 
1 
1 
1 
1 
1 
1 
1 
1 
1 
1 
1 
1 
1 
1 
1 
1 
1 
1 
1 
1 
1 
1 
1 
1 
1 
1 
1 
1 
1 
1 
1 
1 
1 
1 
1 
1 
1 
1 
1 
1 
1 
1 
1 
1 
1 
1 
1 
1 
1 
1 
1 
1 
1 
1 
1 
1 
1 
1 
1 
1 
1 
1 
1 
1 
1 
1 
1 
1 
1 
1 
1 
1 
1 
1 
1 
1 
1 
1 
1 
1 
1 
1 
1 
1 
1 
1 
1 
1 
1 
1 
1 
1 
1 
1 
1 
1 
1 
1 
1 
1 
1 
1 
1 
1 
1 
1 
1 
1 
1 
1 
1 
1 
1 
1 
1 
1 
1 
1 
1 
1 
1 
1 
1 
1 
1 
1 
1 
1 
1 
1 
1 
POINT_DATA 175 
VECTORS X_GC float 
-0.026061 -1.882063 0.000000 
-0.106992 -1.814007 0.000000 
-0.054870 -1.822240 0.000000 
-0.028809 -1.776356 0.000000 
-0.186430 -1.749932 0.000000 
-0.137056 -1.752458 0.000000 
-0.114311 -1.698810 0.000000 
-0.058186 -1.714476 0.000000 
-0.029377 -1.674299 0.000000 
-0.265318 -1.686776 0.000000 
-0.217198 -1.687575 0.000000 
-0.196633 -1.630279 0.000000 
-0.143120 -1.638988 0.000000 
-0.116563 -1.591719 0.000000 
-0.058945 -1.611365 0.000000 
-0.029568 -1.573245 0.000000 
-0.344206 -1.623620 0.000000 
-0.296791 -1.623613 0.000000 
-0.278030 -1.563670 0.000000 
-0.225992 -1.569536 0.000000 
-0.201664 -1.517419 0.000000 
-0.145749 -1.530893 0.000000 
-0.117890 -1.486551 0.000000 
-0.059328 -1.509257 0.000000 
-0.029759 -1.472191 0.000000 
-0.058559 -1.922813 0.000000 
-0.162226 -1.943656 0.000000 
-0.123292 -1.908038 0.000000 
-0.142917 -1.859055 0.000000 
-0.261851 -1.965812 0.000000 
-0.229092 -1.928785 0.000000 
-0.256854 -1.877554 0.000000 
-0.209613 -1.843441 0.000000 
-0.223062 -1.795867 0.000000 
-0.360414 -1.988112 0.000000 
-0.329787 -1.950990 0.000000 
-0.361761 -1.899188 0.000000 
-0.321587 -1.862779 0.000000 
-0.341985 -1.812545 0.000000 
-0.290702 -1.779746 0.000000 
-0.302189 -1.733011 0.000000 
-0.458977 -2.010413 0.000000 
-0.429420 -1.973338 0.000000 
-0.464588 -1.921296 0.000000 
-0.427556 -1.884269 0.000000 
-0.453135 -1.832754 0.000000 
-0.407738 -1.797439 0.000000 
-0.425037 -1.748011 0.000000 
-0.370772 -1.716381 0.000000 
-0.381315 -1.670154 0.000000 
-0.046960 -1.973629 0.000000 
-0.095301 -2.067674 0.000000 
-0.098873 -2.015027 0.000000 
-0.149405 -1.999830 0.000000 
-0.140093 -2.159378 0.000000 
-0.148617 -2.110680 0.000000 
-0.205981 -2.100443 0.000000 
-0.203197 -2.042240 0.000000 
-0.248777 -2.023093 0.000000 
-0.184111 -2.250342 0.000000 
-0.194039 -2.203251 0.000000 
-0.254475 -2.195951 0.000000 
-0.257893 -2.141842 0.000000 
-0.309886 -2.126469 0.000000 
-0.303554 -2.065924 0.000000 
-0.347255 -2.045766 0.000000 
-0.228129 -2.341306 0.000000 
-0.238687 -2.295081 0.000000 
-0.301302 -2.290129 0.000000 
-0.307162 -2.238090 0.000000 
-0.363386 -2.225969 0.000000 
-0.362692 -2.168458 0.000000 
-0.412122 -2.151165 0.000000 
-0.403017 -2.089018 0.000000 
-0.445733 -2.068439 0.000000 
-0.000000 -1.996243 0.000000 
0.043388 -2.092674 0.000000 
-0.000000 -2.062642 0.000000 
-0.043388 -2.092674 0.000000 
0.087158 -2.184871 0.000000 
0.043769 -2.161172 0.000000 
-0.000000 -2.199638 0.000000 
-0.043769 -2.161172 0.000000 
-0.087158 -2.184871 0.000000 
0.130831 -2.276000 0.000000 
0.087824 -2.254402 0.000000 
0.044436 -2.297101 0.000000 
-0.000000 -2.266036 0.000000 
-0.044436 -2.297101 0.000000 
-0.087824 -2.254402 0.000000 
-0.130831 -2.276000 0.000000 
0.174505 -2.367130 0.000000 
0.131782 -2.346564 0.000000 
0.088871 -2.392431 0.000000 
0.044532 -2.364567 0.000000 
-0.000000 -2.400967 0.000000 
-0.044532 -2.364567 0.000000 
-0.088871 -2.392431 0.000000 
-0.131782 -2.346564 0.000000 
-0.174505 -2.367130 0.000000 
0.046960 -1.973629 0.000000 
0.149405 -1.999830 0.000000 
0.098873 -2.015027 0.000000 
0.095301 -2.067674 0.000000 
0.248777 -2.023093 0.000000 
0.203197 -2.042240 0.000000 
0.205981 -2.100443 0.000000 
0.148617 -2.110680 0.000000 
0.140093 -2.159378 0.000000 
0.347255 -2.045766 0.000000 
0.303554 -2.065924 0.000000 
0.309886 -2.126469 0.000000 
0.257893 -2.141842 0.000000 
0.254475 -2.195951 0.000000 
0.194039 -2.203251 0.000000 
0.184111 -2.250342 0.000000 
0.445733 -2.068439 0.000000 
0.403017 -2.089018 0.000000 
0.412122 -2.151165 0.000000 
0.362692 -2.168458 0.000000 
0.363386 -2.225969 0.000000 
0.307162 -2.238090 0.000000 
0.301302 -2.290129 0.000000 
0.238687 -2.295081 0.000000 
0.228129 -2.341306 0.000000 
0.058559 -1.922813 0.000000 
0.142917 -1.859055 0.000000 
0.123292 -1.908038 0.000000 
0.162226 -1.943656 0.000000 
0.223062 -1.795867 0.000000 
0.209613 -1.843441 0.000000 
0.256854 -1.877554 0.000000 
0.229092 -1.928785 0.000000 
0.261851 -1.965812 0.000000 
0.302189 -1.733011 0.000000 
0.290702 -1.779746 0.000000 
0.341985 -1.812545 0.000000 
0.321587 -1.862779 0.000000 
0.361761 -1.899188 0.000000 
0.329787 -1.950990 0.000000 
0.360414 -1.988112 0.000000 
0.381315 -1.670154 0.000000 
0.370772 -1.716381 0.000000 
0.425037 -1.748011 0.000000 
0.407738 -1.797439 0.000000 
0.453135 -1.832754 0.000000 
0.427556 -1.884269 0.000000 
0.464588 -1.921296 0.000000 
0.429420 -1.973338 0.000000 
0.458977 -2.010413 0.000000 
0.026061 -1.882063 0.000000 
0.028809 -1.776356 0.000000 
0.054870 -1.822240 0.000000 
0.106992 -1.814007 0.000000 
0.029377 -1.674299 0.000000 
0.058186 -1.714476 0.000000 
0.114311 -1.698810 0.000000 
0.137056 -1.752458 0.000000 
0.186430 -1.749932 0.000000 
0.029568 -1.573245 0.000000 
0.058945 -1.611365 0.000000 
0.116563 -1.591719 0.000000 
0.143120 -1.638988 0.000000 
0.196633 -1.630279 0.000000 
0.217198 -1.687575 0.000000 
0.265318 -1.686776 0.000000 
0.029759 -1.472191 0.000000 
0.059328 -1.509257 0.000000 
0.117890 -1.486551 0.000000 
0.145749 -1.530893 0.000000 
0.201664 -1.517419 0.000000 
0.225992 -1.569536 0.000000 
0.278030 -1.563670 0.000000 
0.296791 -1.623613 0.000000 
0.344206 -1.623620 0.000000 
VECTORS X_EC float 
0.338794 -0.092155 0.000000 
-0.609100 0.989096 0.000000 
0.713312 -0.899763 0.000000 
0.374519 0.480807 0.000000 
0.423588 0.124077 0.000000 
-0.218274 0.158180 0.000000 
-0.513962 -0.566058 0.000000 
0.756418 -0.354572 0.000000 
0.381900 -0.896965 0.000000 
-0.550868 -0.728526 0.000000 
0.823577 -0.717731 0.000000 
0.556234 0.508765 0.000000 
-0.139443 0.626334 0.000000 
-0.484677 -0.011791 0.000000 
0.766286 0.253425 0.000000 
0.384386 -0.261196 0.000000 
0.474677 0.418870 0.000000 
-0.141715 0.418774 0.000000 
-0.385608 -0.390454 0.000000 
0.937896 -0.311259 0.000000 
0.621631 0.985161 0.000000 
-0.105264 -0.832939 0.000000 
-0.467428 0.568434 0.000000 
0.771260 0.874963 0.000000 
0.386873 0.374573 0.000000 
0.761262 0.457979 0.000000 
0.108942 0.739356 0.000000 
-0.397202 0.258516 0.000000 
-0.142083 -0.402759 0.000000 
-0.595936 -0.961534 0.000000 
0.978194 0.538600 0.000000 
-0.660903 -0.153025 0.000000 
0.724964 -0.613545 0.000000 
0.899809 0.744207 0.000000 
0.685384 -0.660482 0.000000 
0.287229 0.838360 0.000000 
0.702895 0.139032 0.000000 
0.180633 -0.352487 0.000000 
0.445811 0.969353 0.000000 
-0.220880 0.526567 0.000000 
-0.071546 -0.104358 0.000000 
-0.033296 -0.359429 0.000000 
-0.417537 -0.859939 0.000000 
0.039645 0.437499 0.000000 
-0.441768 -0.062373 0.000000 
-0.109248 -0.757823 0.000000 
-0.699407 0.765421 0.000000 
-0.474522 0.098142 0.000000 
0.820030 -0.328852 0.000000 
0.957100 -0.952923 0.000000 
0.610485 -0.856015 0.000000 
-0.761092 0.413605 0.000000 
-0.714655 -0.297133 0.000000 
-0.057734 -0.502300 0.000000 
-0.178789 -0.348391 0.000000 
-0.067979 0.994183 0.000000 
0.677748 0.855979 0.000000 
0.641556 0.070234 0.000000 
-0.765897 -0.188244 0.000000 
0.393446 0.879618 0.000000 
0.522510 0.243888 0.000000 
-0.691820 0.145344 0.000000 
-0.647393 -0.585139 0.000000 
0.028512 -0.792665 0.000000 
-0.053800 0.389974 0.000000 
0.514316 0.117843 0.000000 
0.965681 0.107627 0.000000 
-0.897068 -0.516402 0.000000 
-0.083078 -0.583255 0.000000 
-0.006893 0.714221 0.000000 
0.724017 0.550588 0.000000 
0.714996 -0.225816 0.000000 
-0.642413 -0.459273 0.000000 
-0.760780 0.701746 0.000000 
-0.205471 0.423931 0.000000 
0.000000 -0.550713 0.000000 
-0.564049 0.751100 0.000000 
0.000000 0.345664 0.000000 
0.564049 0.751100 0.000000 
0.866949 -0.004245 0.000000 
-0.569003 -0.324176 0.000000 
0.000000 0.195112 0.000000 
0.569003 -0.324176 0.000000 
-0.866949 -0.004245 0.000000 
0.299194 -0.773995 0.000000 
0.858290 0.934421 0.000000 
-0.577662 -0.489133 0.000000 
0.000000 -0.908511 0.000000 
0.577662 -0.489133 0.000000 
-0.858290 0.934421 0.000000 
-0.299194 -0.773995 0.000000 
-0.268560 0.456255 0.000000 
0.286830 0.178614 0.000000 
0.844677 0.797812 0.000000 
-0.578910 0.421649 0.000000 
0.000000 0.913053 0.000000 
0.578910 0.421649 0.000000 
-0.844677 0.797812 0.000000 
-0.286830 0.178614 0.000000 
0.268560 0.456255 0.000000 
-0.610485 -0.856015 0.000000 
0.057734 -0.502300 0.000000 
0.714655 -0.297133 0.000000 
0.761092 0.413605 0.000000 
0.765897 -0.188244 0.000000 
-0.641556 0.070234 0.000000 
-0.677748 0.855979 0.000000 
0.067979 0.994183 0.000000 
0.178789 -0.348391 0.000000 
-0.514316 0.117843 0.000000 
0.053800 0.389974 0.000000 
-0.028512 -0.792665 0.000000 
0.647393 -0.585139 0.000000 
0.691820 0.145344 0.000000 
-0.522510 0.243888 0.000000 
-0.393446 0.879618 0.000000 
0.205471 0.423931 0.000000 
0.760780 0.701746 0.000000 
0.642413 -0.459273 0.000000 
-0.714996 -0.225816 0.000000 
-0.724017 0.550588 0.000000 
0.006894 0.714221 0.000000 
0.083078 -0.583255 0.000000 
0.897068 -0.516402 0.000000 
-0.965681 0.107627 0.000000 
-0.761262 0.457979 0.000000 
0.142083 -0.402759 0.000000 
0.397202 0.258516 0.000000 
-0.108942 0.739356 0.000000 
-0.899809 0.744207 0.000000 
-0.724964 -0.613545 0.000000 
0.660903 -0.153025 0.000000 
-0.978194 0.538600 0.000000 
0.595936 -0.961534 0.000000 
0.071546 -0.104358 0.000000 
0.220880 0.526567 0.000000 
-0.445811 0.969353 0.000000 
-0.180633 -0.352487 0.000000 
-0.702895 0.139032 0.000000 
-0.287229 0.838360 0.000000 
-0.685384 -0.660481 0.000000 
-0.957100 -0.952923 0.000000 
-0.820030 -0.328852 0.000000 
0.474522 0.098142 0.000000 
0.699407 0.765421 0.000000 
0.109248 -0.757823 0.000000 
0.441768 -0.062372 0.000000 
-0.039645 0.437499 0.000000 
0.417537 -0.859939 0.000000 
0.033296 -0.359429 0.000000 
-0.338794 -0.092155 0.000000 
-0.374519 0.480807 0.000000 
-0.713312 -0.899763 0.000000 
0.609100 0.989096 0.000000 
-0.381900 -0.896965 0.000000 
-0.756418 -0.354572 0.000000 
0.513962 -0.566058 0.000000 
0.218274 0.158180 0.000000 
-0.423588 0.124077 0.000000 
-0.384386 -0.261196 0.000000 
-0.766286 0.253425 0.000000 
0.484677 -0.011791 0.000000 
0.139443 0.626334 0.000000 
-0.556234 0.508765 0.000000 
-0.823577 -0.717731 0.000000 
0.550868 -0.728526 0.000000 
-0.386873 0.374573 0.000000 
-0.771260 0.874963 0.000000 
0.467428 0.568434 0.000000 
0.105264 -0.832939 0.000000 
-0.621631 0.985161 0.000000 
-0.937896 -0.311259 0.000000 
0.385608 -0.390454 0.000000 
0.141715 0.418774 0.000000 
-0.474677 0.418870 0.000000 
CELL_DATA 175 
SCALARS MASS float 
LOOKUP_TABLE default 
0.078183 
0.086427 
0.094672 
0.086427 
0.088131 
0.092111 
0.085854 
0.092111 
0.088131 
0.088705 
0.091000 
0.086983 
0.091556 
0.086983 
0.091000 
0.088705 
0.089278 
0.091574 
0.089278 
0.092722 
0.089278 
0.092722 
0.089278 
0.091574 
0.089278 
0.078183 
0.086427 
0.094672 
0.086427 
0.088131 
0.092111 
0.085854 
0.092111 
0.088131 
0.088705 
0.091000 
0.086983 
0.091556 
0.086983 
0.091000 
0.088705 
0.089278 
0.091574 
0.089278 
0.092722 
0.089278 
0.092722 
0.089278 
0.091574 
0.089278 
0.078183 
0.086427 
0.094672 
0.086427 
0.088131 
0.092111 
0.085854 
0.092111 
0.088131 
0.088705 
0.091000 
0.086983 
0.091556 
0.086983 
0.091000 
0.088705 
0.089278 
0.091574 
0.089278 
0.092722 
0.089278 
0.092722 
0.089278 
0.091574 
0.089278 
0.078183 
0.086427 
0.094672 
0.086427 
0.088131 
0.092111 
0.085854 
0.092111 
0.088131 
0.088705 
0.091000 
0.086983 
0.091556 
0.086983 
0.091000 
0.088705 
0.089278 
0.091574 
0.089278 
0.092722 
0.089278 
0.092722 
0.089278 
0.091574 
0.089278 
0.078183 
0.086427 
0.094672 
0.086427 
0.088131 
0.092111 
0.085854 
0.092111 
0.088131 
0.088705 
0.091000 
0.086983 
0.091556 
0.086983 
0.091000 
0.088705 
0.089278 
0.091574 
0.089278 
0.092722 
0.089278 
0.092722 
0.089278 
0.091574 
0.089278 
0.078183 
0.086427 
0.094672 
0.086427 
0.088131 
0.092111 
0.085854 
0.092111 
0.088131 
0.088705 
0.091000 
0.086983 
0.091556 
0.086983 
0.091000 
0.088705 
0.089278 
0.091574 
0.089278 
0.092722 
0.089278 
0.092722 
0.089278 
0.091574 
0.089278 
0.078183 
0.086427 
0.094672 
0.086427 
0.088131 
0.092111 
0.085854 
0.092111 
0.088131 
0.088705 
0.091000 
0.086983 
0.091556 
0.086983 
0.091000 
0.088705 
0.089278 
0.091574 
0.089278 
0.092722 
0.089278 
0.092722 
0.089278 
0.091574 
0.089278 
SCALARS MASS float 
LOOKUP_TABLE default 
0.078183 
0.086427 
0.094672 
0.086427 
0.088131 
0.092111 
0.085854 
0.092111 
0.088131 
0.088705 
0.091000 
0.086983 
0.091556 
0.086983 
0.091000 
0.088705 
0.089278 
0.091574 
0.089278 
0.092722 
0.089278 
0.092722 
0.089278 
0.091574 
0.089278 
0.078183 
0.086427 
0.094672 
0.086427 
0.088131 
0.092111 
0.085854 
0.092111 
0.088131 
0.088705 
0.091000 
0.086983 
0.091556 
0.086983 
0.091000 
0.088705 
0.089278 
0.091574 
0.089278 
0.092722 
0.089278 
0.092722 
0.089278 
0.091574 
0.089278 
0.078183 
0.086427 
0.094672 
0.086427 
0.088131 
0.092111 
0.085854 
0.092111 
0.088131 
0.088705 
0.091000 
0.086983 
0.091556 
0.086983 
0.091000 
0.088705 
0.089278 
0.091574 
0.089278 
0.092722 
0.089278 
0.092722 
0.089278 
0.091574 
0.089278 
0.078183 
0.086427 
0.094672 
0.086427 
0.088131 
0.092111 
0.085854 
0.092111 
0.088131 
0.088705 
0.091000 
0.086983 
0.091556 
0.086983 
0.091000 
0.088705 
0.089278 
0.091574 
0.089278 
0.092722 
0.089278 
0.092722 
0.089278 
0.091574 
0.089278 
0.078183 
0.086427 
0.094672 
0.086427 
0.088131 
0.092111 
0.085854 
0.092111 
0.088131 
0.088705 
0.091000 
0.086983 
0.091556 
0.086983 
0.091000 
0.088705 
0.089278 
0.091574 
0.089278 
0.092722 
0.089278 
0.092722 
0.089278 
0.091574 
0.089278 
0.078183 
0.086427 
0.094672 
0.086427 
0.088131 
0.092111 
0.085854 
0.092111 
0.088131 
0.088705 
0.091000 
0.086983 
0.091556 
0.086983 
0.091000 
0.088705 
0.089278 
0.091574 
0.089278 
0.092722 
0.089278 
0.092722 
0.089278 
0.091574 
0.089278 
0.078183 
0.086427 
0.094672 
0.086427 
0.088131 
0.092111 
0.085854 
0.092111 
0.088131 
0.088705 
0.091000 
0.086983 
0.091556 
0.086983 
0.091000 
0.088705 
0.089278 
0.091574 
0.089278 
0.092722 
0.089278 
0.092722 
0.089278 
0.091574 
0.089278 
SCALARS DENSITY float 
LOOKUP_TABLE default 
20.000000 
20.000000 
20.000000 
20.000000 
20.000000 
20.000000 
20.000000 
20.000000 
20.000000 
20.000000 
20.000000 
20.000000 
20.000000 
20.000000 
20.000000 
20.000000 
20.000000 
20.000000 
20.000000 
20.000000 
20.000000 
20.000000 
20.000000 
20.000000 
20.000000 
20.000000 
20.000000 
20.000000 
20.000000 
20.000000 
20.000000 
20.000000 
20.000000 
20.000000 
20.000000 
20.000000 
20.000000 
20.000000 
20.000000 
20.000000 
20.000000 
20.000000 
20.000000 
20.000000 
20.000000 
20.000000 
20.000000 
20.000000 
20.000000 
20.000000 
20.000000 
20.000000 
20.000000 
20.000000 
20.000000 
20.000000 
20.000000 
20.000000 
20.000000 
20.000000 
20.000000 
20.000000 
20.000000 
20.000000 
20.000000 
20.000000 
20.000000 
20.000000 
20.000000 
20.000000 
20.000000 
20.000000 
20.000000 
20.000000 
20.000000 
20.000000 
20.000000 
20.000000 
20.000000 
20.000000 
20.000000 
20.000000 
20.000000 
20.000000 
20.000000 
20.000000 
20.000000 
20.000000 
20.000000 
20.000000 
20.000000 
20.000000 
20.000000 
20.000000 
20.000000 
20.000000 
20.000000 
20.000000 
20.000000 
20.000000 
20.000000 
20.000000 
20.000000 
20.000000 
20.000000 
20.000000 
20.000000 
20.000000 
20.000000 
20.000000 
20.000000 
20.000000 
20.000000 
20.000000 
20.000000 
20.000000 
20.000000 
20.000000 
20.000000 
20.000000 
20.000000 
20.000000 
20.000000 
20.000000 
20.000000 
20.000000 
20.000000 
20.000000 
20.000000 
20.000000 
20.000000 
20.000000 
20.000000 
20.000000 
20.000000 
20.000000 
20.000000 
20.000000 
20.000000 
20.000000 
20.000000 
20.000000 
20.000000 
20.000000 
20.000000 
20.000000 
20.000000 
20.000000 
20.000000 
20.000000 
20.000000 
20.000000 
20.000000 
20.000000 
20.000000 
20.000000 
20.000000 
20.000000 
20.000000 
20.000000 
20.000000 
20.000000 
20.000000 
20.000000 
20.000000 
20.000000 
20.000000 
20.000000 
20.000000 
20.000000 
20.000000 
20.000000 
20.000000 
20.000000 
20.000000 
SCALARS ELEM_i float 
LOOKUP_TABLE default 
169 
197 
169 
170 
197 
197 
197 
170 
170 
224 
197 
198 
198 
198 
171 
171 
225 
225 
225 
198 
199 
198 
199 
172 
172 
169 
196 
196 
196 
222 
196 
223 
196 
197 
222 
223 
223 
223 
224 
224 
224 
249 
249 
250 
250 
250 
251 
251 
224 
224 
168 
195 
195 
195 
194 
195 
195 
195 
222 
194 
194 
221 
221 
221 
222 
222 
193 
220 
220 
221 
221 
221 
248 
249 
249 
168 
168 
168 
168 
140 
167 
167 
167 
194 
139 
140 
166 
166 
166 
194 
193 
139 
139 
139 
166 
166 
166 
193 
193 
193 
168 
141 
141 
141 
114 
141 
141 
141 
140 
114 
114 
113 
113 
113 
140 
140 
87 
87 
86 
113 
113 
113 
112 
112 
139 
169 
142 
142 
142 
143 
142 
115 
142 
114 
116 
116 
116 
115 
115 
115 
114 
116 
116 
89 
89 
88 
88 
88 
87 
87 
169 
170 
169 
143 
170 
170 
143 
143 
143 
171 
171 
144 
144 
144 
143 
116 
172 
172 
145 
144 
145 
144 
117 
117 
117 
VECTORS VELOCITY float 
-0.000000 -6.163034 0.000000 
0.000000 -6.163034 0.000000 
0.000000 -6.163034 0.000000 
-0.000000 -6.163034 0.000000 
-0.000000 -6.163034 0.000000 
-0.000000 -6.163034 0.000000 
-0.000000 -6.163034 0.000000 
-0.000000 -6.163034 0.000000 
-0.000000 -6.163034 0.000000 
-0.000000 -6.163034 0.000000 
-0.000000 -6.163034 0.000000 
-0.000000 -6.163034 0.000000 
-0.000000 -6.163034 0.000000 
0.000000 -6.163034 0.000000 
0.000000 -6.163034 0.000000 
0.000000 -6.163034 0.000000 
0.000000 -6.163034 0.000000 
-0.000000 -6.163034 0.000000 
-0.000000 -6.163034 0.000000 
0.000000 -6.163034 0.000000 
-0.000000 -6.163034 0.000000 
0.000000 -6.163034 0.000000 
-0.000000 -6.163034 0.000000 
0.000000 -6.163034 0.000000 
-0.000000 -6.163034 0.000000 
-0.000000 -6.163034 0.000000 
-0.000000 -6.163034 0.000000 
-0.000000 -6.163034 0.000000 
-0.000000 -6.163034 0.000000 
-0.000000 -6.163034 0.000000 
0.000000 -6.163034 0.000000 
0.000000 -6.163034 0.000000 
0.000000 -6.163034 0.000000 
-0.000000 -6.163034 0.000000 
0.000000 -6.163034 0.000000 
0.000000 -6.163034 0.000000 
0.000000 -6.163034 0.000000 
0.000000 -6.163034 0.000000 
0.000000 -6.163034 0.000000 
0.000000 -6.163034 0.000000 
0.000000 -6.163034 0.000000 
0.000000 -6.163034 0.000000 
0.000000 -6.163034 0.000000 
0.000000 -6.163034 0.000000 
-0.000000 -6.163034 0.000000 
-0.000000 -6.163034 0.000000 
0.000000 -6.163034 0.000000 
-0.000000 -6.163034 0.000000 
0.000000 -6.163034 0.000000 
0.000000 -6.163034 0.000000 
-0.000000 -6.163034 0.000000 
-0.000000 -6.163034 0.000000 
0.000000 -6.163034 0.000000 
0.000000 -6.163034 0.000000 
-0.000000 -6.163034 0.000000 
-0.000000 -6.163034 0.000000 
0.000000 -6.163034 0.000000 
0.000000 -6.163034 0.000000 
-0.000000 -6.163034 0.000000 
-0.000000 -6.163034 0.000000 
-0.000000 -6.163034 0.000000 
-0.000000 -6.163034 0.000000 
0.000000 -6.163034 0.000000 
-0.000000 -6.163034 0.000000 
-0.000000 -6.163034 0.000000 
-0.000000 -6.163034 0.000000 
0.000000 -6.163034 0.000000 
0.000000 -6.163034 0.000000 
0.000000 -6.163034 0.000000 
-0.000000 -6.163034 0.000000 
0.000000 -6.163034 0.000000 
0.000000 -6.163034 0.000000 
0.000000 -6.163034 0.000000 
-0.000000 -6.163034 0.000000 
-0.000000 -6.163034 0.000000 
0.000000 -6.163034 0.000000 
-0.000000 -6.163034 0.000000 
-0.000000 -6.163034 0.000000 
-0.000000 -6.163034 0.000000 
-0.000000 -6.163034 0.000000 
-0.000000 -6.163034 0.000000 
-0.000000 -6.163034 0.000000 
-0.000000 -6.163034 0.000000 
-0.000000 -6.163034 0.000000 
-0.000000 -6.163034 0.000000 
-0.000000 -6.163034 0.000000 
-0.000000 -6.163034 0.000000 
0.000000 -6.163034 0.000000 
-0.000000 -6.163034 0.000000 
0.000000 -6.163034 0.000000 
-0.000000 -6.163034 0.000000 
-0.000000 -6.163034 0.000000 
-0.000000 -6.163034 0.000000 
-0.000000 -6.163034 0.000000 
-0.000000 -6.163034 0.000000 
0.000000 -6.163034 0.000000 
0.000000 -6.163034 0.000000 
0.000000 -6.163034 0.000000 
0.000000 -6.163034 0.000000 
0.000000 -6.163034 0.000000 
0.000000 -6.163034 0.000000 
-0.000000 -6.163034 0.000000 
-0.000000 -6.163034 0.000000 
0.000000 -6.163034 0.000000 
-0.000000 -6.163034 0.000000 
-0.000000 -6.163034 0.000000 
0.000000 -6.163034 0.000000 
-0.000000 -6.163034 0.000000 
-0.000000 -6.163034 0.000000 
-0.000000 -6.163034 0.000000 
-0.000000 -6.163034 0.000000 
0.000000 -6.163034 0.000000 
0.000000 -6.163034 0.000000 
-0.000000 -6.163034 0.000000 
-0.000000 -6.163034 0.000000 
-0.000000 -6.163034 0.000000 
-0.000000 -6.163034 0.000000 
-0.000000 -6.163034 0.000000 
0.000000 -6.163034 0.000000 
0.000000 -6.163034 0.000000 
-0.000000 -6.163034 0.000000 
-0.000000 -6.163034 0.000000 
-0.000000 -6.163034 0.000000 
-0.000000 -6.163034 0.000000 
-0.000000 -6.163034 0.000000 
0.000000 -6.163034 0.000000 
0.000000 -6.163034 0.000000 
0.000000 -6.163034 0.000000 
0.000000 -6.163034 0.000000 
-0.000000 -6.163034 0.000000 
0.000000 -6.163034 0.000000 
0.000000 -6.163034 0.000000 
0.000000 -6.163034 0.000000 
0.000000 -6.163034 0.000000 
0.000000 -6.163034 0.000000 
-0.000000 -6.163034 0.000000 
0.000000 -6.163034 0.000000 
0.000000 -6.163034 0.000000 
0.000000 -6.163034 0.000000 
0.000000 -6.163034 0.000000 
0.000000 -6.163034 0.000000 
0.000000 -6.163034 0.000000 
0.000000 -6.163034 0.000000 
-0.000000 -6.163034 0.000000 
0.000000 -6.163034 0.000000 
-0.000000 -6.163034 0.000000 
-0.000000 -6.163034 0.000000 
-0.000000 -6.163034 0.000000 
0.000000 -6.163034 0.000000 
0.000000 -6.163034 0.000000 
0.000000 -6.163034 0.000000 
-0.000000 -6.163034 0.000000 
-0.000000 -6.163034 0.000000 
-0.000000 -6.163034 0.000000 
0.000000 -6.163034 0.000000 
-0.000000 -6.163034 0.000000 
-0.000000 -6.163034 0.000000 
-0.000000 -6.163034 0.000000 
-0.000000 -6.163034 0.000000 
-0.000000 -6.163034 0.000000 
-0.000000 -6.163034 0.000000 
-0.000000 -6.163034 0.000000 
-0.000000 -6.163034 0.000000 
-0.000000 -6.163034 0.000000 
-0.000000 -6.163034 0.000000 
0.000000 -6.163034 0.000000 
0.000000 -6.163034 0.000000 
0.000000 -6.163034 0.000000 
0.000000 -6.163034 0.000000 
-0.000000 -6.163034 0.000000 
0.000000 -6.163034 0.000000 
-0.000000 -6.163034 0.000000 
0.000000 -6.163034 0.000000 
0.000000 -6.163034 0.000000 
0.000000 -6.163034 0.000000 
TENSORS STRESS float 
0.000000 0.000000 0.000000 
0.000000 0.000000 0.000000 
0.000000 0.000000 0.000000 

0.000000 0.000000 0.000000 
0.000000 0.000000 0.000000 
0.000000 0.000000 0.000000 

0.000000 0.000000 0.000000 
0.000000 -0.000000 0.000000 
0.000000 0.000000 0.000000 

-0.000000 -0.000000 0.000000 
0.000000 -0.000000 0.000000 
0.000000 0.000000 0.000000 

-0.000000 0.000000 0.000000 
0.000000 -0.000000 0.000000 
0.000000 0.000000 0.000000 

0.000000 -0.000000 0.000000 
0.000000 0.000000 0.000000 
0.000000 0.000000 0.000000 

0.000000 0.000000 0.000000 
0.000000 0.000000 0.000000 
0.000000 0.000000 0.000000 

-0.000000 -0.000000 0.000000 
0.000000 -0.000000 0.000000 
0.000000 0.000000 0.000000 

-0.000000 -0.000000 0.000000 
0.000000 -0.000000 0.000000 
0.000000 0.000000 0.000000 

-0.000000 0.000000 0.000000 
0.000000 0.000000 0.000000 
0.000000 0.000000 0.000000 

-0.000000 0.000000 0.000000 
0.000000 -0.000000 0.000000 
0.000000 0.000000 0.000000 

0.000000 0.000000 0.000000 
0.000000 0.000000 0.000000 
0.000000 0.000000 0.000000 

-0.000000 0.000000 0.000000 