# vtk DataFile Version 3.0 
vtk output 
ASCII 
DATASET UNSTRUCTURED_GRID 
POINTS 175 float 
-0.026061 -1.519674 0.000000 
-0.106992 -1.451618 0.000000 
-0.054870 -1.459851 0.000000 
-0.028809 -1.413967 0.000000 
-0.186430 -1.387543 0.000000 
-0.137056 -1.390069 0.000000 
-0.114311 -1.336422 0.000000 
-0.058186 -1.352087 0.000000 
-0.029377 -1.311910 0.000000 
-0.265318 -1.324387 0.000000 
-0.217198 -1.325187 0.000000 
-0.196633 -1.267890 0.000000 
-0.143120 -1.276599 0.000000 
-0.116563 -1.229331 0.000000 
-0.058945 -1.248976 0.000000 
-0.029568 -1.210856 0.000000 
-0.344206 -1.261231 0.000000 
-0.296791 -1.261224 0.000000 
-0.278030 -1.201281 0.000000 
-0.225992 -1.207148 0.000000 
-0.201664 -1.155031 0.000000 
-0.145749 -1.168505 0.000000 
-0.117890 -1.124162 0.000000 
-0.059328 -1.146868 0.000000 
-0.029759 -1.109802 0.000000 
-0.058559 -1.560425 0.000000 
-0.162226 -1.581267 0.000000 
-0.123292 -1.545650 0.000000 
-0.142917 -1.496666 0.000000 
-0.261851 -1.603424 0.000000 
-0.229092 -1.566397 0.000000 
-0.256854 -1.515165 0.000000 
-0.209613 -1.481052 0.000000 
-0.223062 -1.433478 0.000000 
-0.360414 -1.625724 0.000000 
-0.329787 -1.588601 0.000000 
-0.361761 -1.536799 0.000000 
-0.321587 -1.500390 0.000000 
-0.341985 -1.450156 0.000000 
-0.290702 -1.417357 0.000000 
-0.302189 -1.370622 0.000000 
-0.458977 -1.648024 0.000000 
-0.429420 -1.610949 0.000000 
-0.464588 -1.558908 0.000000 
-0.427556 -1.521880 0.000000 
-0.453135 -1.470365 0.000000 
-0.407738 -1.435050 0.000000 
-0.425037 -1.385622 0.000000 
-0.370772 -1.353993 0.000000 
-0.381315 -1.307765 0.000000 
-0.046960 -1.611240 0.000000 
-0.095301 -1.705286 0.000000 
-0.098873 -1.652639 0.000000 
-0.149405 -1.637441 0.000000 
-0.140093 -1.796990 0.000000 
-0.148617 -1.748292 0.000000 
-0.205981 -1.738054 0.000000 
-0.203197 -1.679851 0.000000 
-0.248777 -1.660704 0.000000 
-0.184111 -1.887953 0.000000 
-0.194039 -1.840862 0.000000 
-0.254475 -1.833563 0.000000 
-0.257893 -1.779453 0.000000 
-0.309886 -1.764081 0.000000 
-0.303554 -1.703535 0.000000 
-0.347255 -1.683377 0.000000 
-0.228129 -1.978917 0.000000 
-0.238687 -1.932693 0.000000 
-0.301302 -1.927741 0.000000 
-0.307162 -1.875702 0.000000 
-0.363386 -1.863581 0.000000 
-0.362692 -1.806069 0.000000 
-0.412122 -1.788776 0.000000 
-0.403017 -1.726630 0.000000 
-0.445733 -1.706051 0.000000 
-0.000000 -1.633855 0.000000 
0.043388 -1.730285 0.000000 
-0.000000 -1.700253 0.000000 
-0.043388 -1.730285 0.000000 
0.087158 -1.822482 0.000000 
0.043769 -1.798783 0.000000 
-0.000000 -1.837249 0.000000 
-0.043769 -1.798783 0.000000 
-0.087158 -1.822482 0.000000 
0.130831 -1.913612 0.000000 
0.087824 -1.892013 0.000000 
0.044436 -1.934713 0.000000 
-0.000000 -1.903648 0.000000 
-0.044436 -1.934713 0.000000 
-0.087824 -1.892013 0.000000 
-0.130831 -1.913612 0.000000 
0.174505 -2.004741 0.000000 
0.131782 -1.984175 0.000000 
0.088871 -2.030042 0.000000 
0.044532 -2.002178 0.000000 
-0.000000 -2.038578 0.000000 
-0.044532 -2.002178 0.000000 
-0.088871 -2.030042 0.000000 
-0.131782 -1.984175 0.000000 
-0.174505 -2.004741 0.000000 
0.046960 -1.611240 0.000000 
0.149405 -1.637441 0.000000 
0.098873 -1.652639 0.000000 
0.095301 -1.705286 0.000000 
0.248777 -1.660704 0.000000 
0.203197 -1.679851 0.000000 
0.205981 -1.738054 0.000000 
0.148617 -1.748292 0.000000 
0.140093 -1.796990 0.000000 
0.347255 -1.683377 0.000000 
0.303554 -1.703535 0.000000 
0.309886 -1.764081 0.000000 
0.257893 -1.779453 0.000000 
0.254475 -1.833563 0.000000 
0.194039 -1.840862 0.000000 
0.184111 -1.887953 0.000000 
0.445733 -1.706051 0.000000 
0.403017 -1.726630 0.000000 
0.412122 -1.788776 0.000000 
0.362692 -1.806069 0.000000 
0.363386 -1.863581 0.000000 
0.307162 -1.875702 0.000000 
0.301302 -1.927741 0.000000 
0.238687 -1.932693 0.000000 
0.228129 -1.978917 0.000000 
0.058559 -1.560425 0.000000 
0.142917 -1.496666 0.000000 
0.123292 -1.545650 0.000000 
0.162226 -1.581267 0.000000 
0.223062 -1.433478 0.000000 
0.209613 -1.481052 0.000000 
0.256854 -1.515165 0.000000 
0.229092 -1.566397 0.000000 
0.261851 -1.603424 0.000000 
0.302189 -1.370622 0.000000 
0.290702 -1.417357 0.000000 
0.341985 -1.450156 0.000000 
0.321587 -1.500390 0.000000 
0.361761 -1.536799 0.000000 
0.329787 -1.588601 0.000000 
0.360414 -1.625724 0.000000 
0.381315 -1.307765 0.000000 
0.370772 -1.353993 0.000000 
0.425037 -1.385622 0.000000 
0.407738 -1.435050 0.000000 
0.453135 -1.470365 0.000000 
0.427556 -1.521880 0.000000 
0.464588 -1.558908 0.000000 
0.429420 -1.610949 0.000000 
0.458977 -1.648024 0.000000 
0.026061 -1.519674 0.000000 
0.028809 -1.413967 0.000000 
0.054870 -1.459851 0.000000 
0.106992 -1.451618 0.000000 
0.029377 -1.311910 0.000000 
0.058186 -1.352087 0.000000 
0.114311 -1.336422 0.000000 
0.137056 -1.390069 0.000000 
0.186430 -1.387543 0.000000 
0.029568 -1.210856 0.000000 
0.058945 -1.248976 0.000000 
0.116563 -1.229331 0.000000 
0.143120 -1.276599 0.000000 
0.196633 -1.267890 0.000000 
0.217198 -1.325187 0.000000 
0.265318 -1.324387 0.000000 
0.029759 -1.109802 0.000000 
0.059328 -1.146868 0.000000 
0.117890 -1.124162 0.000000 
0.145749 -1.168505 0.000000 
0.201664 -1.155031 0.000000 
0.225992 -1.207148 0.000000 
0.278030 -1.201281 0.000000 
0.296791 -1.261224 0.000000 
0.344206 -1.261231 0.000000 
CELLS 175 350 
1 0 
1 1 
1 2 
1 3 
1 4 
1 5 
1 6 
1 7 
1 8 
1 9 
1 10 
1 11 
1 12 
1 13 
1 14 
1 15 
1 16 
1 17 
1 18 
1 19 
1 20 
1 21 
1 22 
1 23 
1 24 
1 25 
1 26 
1 27 
1 28 
1 29 
1 30 
1 31 
1 32 
1 33 
1 34 
1 35 
1 36 
1 37 
1 38 
1 39 
1 40 
1 41 
1 42 
1 43 
1 44 
1 45 
1 46 
1 47 
1 48 
1 49 
1 50 
1 51 
1 52 
1 53 
1 54 
1 55 
1 56 
1 57 
1 58 
1 59 
1 60 
1 61 
1 62 
1 63 
1 64 
1 65 
1 66 
1 67 
1 68 
1 69 
1 70 
1 71 
1 72 
1 73 
1 74 
1 75 
1 76 
1 77 
1 78 
1 79 
1 80 
1 81 
1 82 
1 83 
1 84 
1 85 
1 86 
1 87 
1 88 
1 89 
1 90 
1 91 
1 92 
1 93 
1 94 
1 95 
1 96 
1 97 
1 98 
1 99 
1 100 
1 101 
1 102 
1 103 
1 104 
1 105 
1 106 
1 107 
1 108 
1 109 
1 110 
1 111 
1 112 
1 113 
1 114 
1 115 
1 116 
1 117 
1 118 
1 119 
1 120 
1 121 
1 122 
1 123 
1 124 
1 125 
1 126 
1 127 
1 128 
1 129 
1 130 
1 131 
1 132 
1 133 
1 134 
1 135 
1 136 
1 137 
1 138 
1 139 
1 140 
1 141 
1 142 
1 143 
1 144 
1 145 
1 146 
1 147 
1 148 
1 149 
1 150 
1 151 
1 152 
1 153 
1 154 
1 155 
1 156 
1 157 
1 158 
1 159 
1 160 
1 161 
1 162 
1 163 
1 164 
1 165 
1 166 
1 167 
1 168 
1 169 
1 170 
1 171 
1 172 
1 173 
1 174 
CELL_TYPES 175 
1 
1 
1 
1 
1 
1 
1 
1 
1 
1 
1 
1 
1 
1 
1 
1 
1 
1 
1 
1 
1 
1 
1 
1 
1 
1 
1 
1 
1 
1 
1 
1 
1 
1 
1 
1 
1 
1 
1 
1 
1 
1 
1 
1 
1 
1 
1 
1 
1 
1 
1 
1 
1 
1 
1 
1 
1 
1 
1 
1 
1 
1 
1 
1 
1 
1 
1 
1 
1 
1 
1 
1 
1 
1 
1 
1 
1 
1 
1 
1 
1 
1 
1 
1 
1 
1 
1 
1 
1 
1 
1 
1 
1 
1 
1 
1 
1 
1 
1 
1 
1 
1 
1 
1 
1 
1 
1 
1 
1 
1 
1 
1 
1 
1 
1 
1 
1 
1 
1 
1 
1 
1 
1 
1 
1 
1 
1 
1 
1 
1 
1 
1 
1 
1 
1 
1 
1 
1 
1 
1 
1 
1 
1 
1 
1 
1 
1 
1 
1 
1 
1 
1 
1 
1 
1 
1 
1 
1 
1 
1 
1 
1 
1 
1 
1 
1 
1 
1 
1 
1 
1 
1 
1 
1 
1 
POINT_DATA 175 
VECTORS X_GC float 
-0.026061 -1.519674 0.000000 
-0.106992 -1.451618 0.000000 
-0.054870 -1.459851 0.000000 
-0.028809 -1.413967 0.000000 
-0.186430 -1.387543 0.000000 
-0.137056 -1.390069 0.000000 
-0.114311 -1.336422 0.000000 
-0.058186 -1.352087 0.000000 
-0.029377 -1.311910 0.000000 
-0.265318 -1.324387 0.000000 
-0.217198 -1.325187 0.000000 
-0.196633 -1.267890 0.000000 
-0.143120 -1.276599 0.000000 
-0.116563 -1.229331 0.000000 
-0.058945 -1.248976 0.000000 
-0.029568 -1.210856 0.000000 
-0.344206 -1.261231 0.000000 
-0.296791 -1.261224 0.000000 
-0.278030 -1.201281 0.000000 
-0.225992 -1.207148 0.000000 
-0.201664 -1.155031 0.000000 
-0.145749 -1.168505 0.000000 
-0.117890 -1.124162 0.000000 
-0.059328 -1.146868 0.000000 
-0.029759 -1.109802 0.000000 
-0.058559 -1.560425 0.000000 
-0.162226 -1.581267 0.000000 
-0.123292 -1.545650 0.000000 
-0.142917 -1.496666 0.000000 
-0.261851 -1.603424 0.000000 
-0.229092 -1.566397 0.000000 
-0.256854 -1.515165 0.000000 
-0.209613 -1.481052 0.000000 
-0.223062 -1.433478 0.000000 
-0.360414 -1.625724 0.000000 
-0.329787 -1.588601 0.000000 
-0.361761 -1.536799 0.000000 
-0.321587 -1.500390 0.000000 
-0.341985 -1.450156 0.000000 
-0.290702 -1.417357 0.000000 
-0.302189 -1.370622 0.000000 
-0.458977 -1.648024 0.000000 
-0.429420 -1.610949 0.000000 
-0.464588 -1.558908 0.000000 
-0.427556 -1.521880 0.000000 
-0.453135 -1.470365 0.000000 
-0.407738 -1.435050 0.000000 
-0.425037 -1.385622 0.000000 
-0.370772 -1.353993 0.000000 
-0.381315 -1.307765 0.000000 
-0.046960 -1.611240 0.000000 
-0.095301 -1.705286 0.000000 
-0.098873 -1.652639 0.000000 
-0.149405 -1.637441 0.000000 
-0.140093 -1.796990 0.000000 
-0.148617 -1.748292 0.000000 
-0.205981 -1.738054 0.000000 
-0.203197 -1.679851 0.000000 
-0.248777 -1.660704 0.000000 
-0.184111 -1.887953 0.000000 
-0.194039 -1.840862 0.000000 
-0.254475 -1.833563 0.000000 
-0.257893 -1.779453 0.000000 
-0.309886 -1.764081 0.000000 
-0.303554 -1.703535 0.000000 
-0.347255 -1.683377 0.000000 
-0.228129 -1.978917 0.000000 
-0.238687 -1.932693 0.000000 
-0.301302 -1.927741 0.000000 
-0.307162 -1.875702 0.000000 
-0.363386 -1.863581 0.000000 
-0.362692 -1.806069 0.000000 
-0.412122 -1.788776 0.000000 
-0.403017 -1.726630 0.000000 
-0.445733 -1.706051 0.000000 
-0.000000 -1.633855 0.000000 
0.043388 -1.730285 0.000000 
-0.000000 -1.700253 0.000000 
-0.043388 -1.730285 0.000000 
0.087158 -1.822482 0.000000 
0.043769 -1.798783 0.000000 
-0.000000 -1.837249 0.000000 
-0.043769 -1.798783 0.000000 
-0.087158 -1.822482 0.000000 
0.130831 -1.913612 0.000000 
0.087824 -1.892013 0.000000 
0.044436 -1.934713 0.000000 
-0.000000 -1.903648 0.000000 
-0.044436 -1.934713 0.000000 
-0.087824 -1.892013 0.000000 
-0.130831 -1.913612 0.000000 
0.174505 -2.004741 0.000000 
0.131782 -1.984175 0.000000 
0.088871 -2.030042 0.000000 
0.044532 -2.002178 0.000000 
-0.000000 -2.038578 0.000000 
-0.044532 -2.002178 0.000000 
-0.088871 -2.030042 0.000000 
-0.131782 -1.984175 0.000000 
-0.174505 -2.004741 0.000000 
0.046960 -1.611240 0.000000 
0.149405 -1.637441 0.000000 
0.098873 -1.652639 0.000000 
0.095301 -1.705286 0.000000 
0.248777 -1.660704 0.000000 
0.203197 -1.679851 0.000000 
0.205981 -1.738054 0.000000 
0.148617 -1.748292 0.000000 
0.140093 -1.796990 0.000000 
0.347255 -1.683377 0.000000 
0.303554 -1.703535 0.000000 
0.309886 -1.764081 0.000000 
0.257893 -1.779453 0.000000 
0.254475 -1.833563 0.000000 
0.194039 -1.840862 0.000000 
0.184111 -1.887953 0.000000 
0.445733 -1.706051 0.000000 
0.403017 -1.726630 0.000000 
0.412122 -1.788776 0.000000 
0.362692 -1.806069 0.000000 
0.363386 -1.863581 0.000000 
0.307162 -1.875702 0.000000 
0.301302 -1.927741 0.000000 
0.238687 -1.932693 0.000000 
0.228129 -1.978917 0.000000 
0.058559 -1.560425 0.000000 
0.142917 -1.496666 0.000000 
0.123292 -1.545650 0.000000 
0.162226 -1.581267 0.000000 
0.223062 -1.433478 0.000000 
0.209613 -1.481052 0.000000 
0.256854 -1.515165 0.000000 
0.229092 -1.566397 0.000000 
0.261851 -1.603424 0.000000 
0.302189 -1.370622 0.000000 
0.290702 -1.417357 0.000000 
0.341985 -1.450156 0.000000 
0.321587 -1.500390 0.000000 
0.361761 -1.536799 0.000000 
0.329787 -1.588601 0.000000 
0.360414 -1.625724 0.000000 
0.381315 -1.307765 0.000000 
0.370772 -1.353993 0.000000 
0.425037 -1.385622 0.000000 
0.407738 -1.435050 0.000000 
0.453135 -1.470365 0.000000 
0.427556 -1.521880 0.000000 
0.464588 -1.558908 0.000000 
0.429420 -1.610949 0.000000 
0.458977 -1.648024 0.000000 
0.026061 -1.519674 0.000000 
0.028809 -1.413967 0.000000 
0.054870 -1.459851 0.000000 
0.106992 -1.451618 0.000000 
0.029377 -1.311910 0.000000 
0.058186 -1.352087 0.000000 
0.114311 -1.336422 0.000000 
0.137056 -1.390069 0.000000 
0.186430 -1.387543 0.000000 
0.029568 -1.210856 0.000000 
0.058945 -1.248976 0.000000 
0.116563 -1.229331 0.000000 
0.143120 -1.276599 0.000000 
0.196633 -1.267890 0.000000 
0.217198 -1.325187 0.000000 
0.265318 -1.324387 0.000000 
0.029759 -1.109802 0.000000 
0.059328 -1.146868 0.000000 
0.117890 -1.124162 0.000000 
0.145749 -1.168505 0.000000 
0.201664 -1.155031 0.000000 
0.225992 -1.207148 0.000000 
0.278030 -1.201281 0.000000 
0.296791 -1.261224 0.000000 
0.344206 -1.261231 0.000000 
VECTORS X_EC float 
0.338794 -0.984403 0.000000 
-0.609100 0.096849 0.000000 
0.713312 0.207990 0.000000 
0.374519 -0.411440 0.000000 
0.423588 -0.768170 0.000000 
-0.218274 -0.734067 0.000000 
-0.513962 0.541694 0.000000 
0.756418 0.753180 0.000000 
0.381900 0.210788 0.000000 
-0.550868 0.379226 0.000000 
0.823577 0.390022 0.000000 
0.556234 -0.383482 0.000000 
-0.139443 -0.265913 0.000000 
-0.484677 -0.904038 0.000000 
0.766286 -0.638823 0.000000 
0.384386 0.846557 0.000000 
0.474677 -0.473377 0.000000 
-0.141715 -0.473473 0.000000 
-0.385608 0.717299 0.000000 
0.937896 0.796494 0.000000 
0.621631 0.092914 0.000000 
-0.105264 0.274813 0.000000 
-0.467428 -0.323813 0.000000 
0.771260 -0.017284 0.000000 
0.386873 -0.517674 0.000000 
0.761262 -0.434268 0.000000 
0.108942 -0.152892 0.000000 
-0.397202 -0.633731 0.000000 
-0.142083 0.704994 0.000000 
-0.595936 0.146219 0.000000 
0.978194 -0.353647 0.000000 
-0.660903 0.954728 0.000000 
0.724964 0.494208 0.000000 
0.899809 -0.148041 0.000000 
0.685384 0.447271 0.000000 
0.287229 -0.053887 0.000000 
0.702895 -0.753216 0.000000 
0.180633 0.755266 0.000000 
0.445811 0.077106 0.000000 
-0.220880 -0.365680 0.000000 
-0.071546 -0.996605 0.000000 
-0.033296 0.748323 0.000000 
-0.417537 0.247814 0.000000 
0.039645 -0.454749 0.000000 
-0.441768 -0.954620 0.000000 
-0.109248 0.349929 0.000000 
-0.699407 -0.126826 0.000000 
-0.474522 -0.794105 0.000000 
0.820030 0.778901 0.000000 
0.957100 0.154830 0.000000 
0.610485 0.251738 0.000000 
-0.761092 -0.478642 0.000000 
-0.714655 0.810620 0.000000 
-0.057734 0.605453 0.000000 
-0.178789 0.759362 0.000000 
-0.067979 0.101936 0.000000 
0.677748 -0.036268 0.000000 
0.641556 -0.822013 0.000000 
-0.765897 0.919508 0.000000 
0.393446 -0.012629 0.000000 
0.522510 -0.648359 0.000000 
-0.691820 -0.746903 0.000000 
-0.647393 0.522614 0.000000 
0.028512 0.315087 0.000000 
-0.053800 -0.502273 0.000000 
0.514316 -0.774404 0.000000 
0.965681 -0.784620 0.000000 
-0.897068 0.591351 0.000000 
-0.083078 0.524498 0.000000 
-0.006893 -0.178026 0.000000 
0.724017 -0.341659 0.000000 
0.714996 0.881937 0.000000 
-0.642413 0.648480 0.000000 
-0.760780 -0.190501 0.000000 
-0.205471 -0.468316 0.000000 
0.000000 0.557040 0.000000 
-0.564049 -0.141147 0.000000 
0.000000 -0.546583 0.000000 
0.564049 -0.141147 0.000000 
0.866949 -0.896492 0.000000 
-0.569003 0.783577 0.000000 
0.000000 -0.697135 0.000000 
0.569003 0.783577 0.000000 
-0.866949 -0.896492 0.000000 
0.299194 0.333758 0.000000 
0.858290 0.042174 0.000000 
-0.577662 0.618620 0.000000 
0.000000 0.199242 0.000000 
0.577662 0.618620 0.000000 
-0.858290 0.042174 0.000000 
-0.299194 0.333758 0.000000 
-0.268560 -0.435992 0.000000 
0.286830 -0.713634 0.000000 
0.844677 -0.094435 0.000000 
-0.578910 -0.470598 0.000000 
0.000000 0.020806 0.000000 
0.578910 -0.470598 0.000000 
-0.844677 -0.094435 0.000000 
-0.286830 -0.713634 0.000000 
0.268560 -0.435992 0.000000 
-0.610485 0.251738 0.000000 
0.057734 0.605453 0.000000 
0.714655 0.810620 0.000000 
0.761092 -0.478642 0.000000 
0.765897 0.919508 0.000000 
-0.641556 -0.822013 0.000000 
-0.677748 -0.036268 0.000000 
0.067979 0.101936 0.000000 
0.178789 0.759362 0.000000 
-0.514316 -0.774404 0.000000 
0.053800 -0.502273 0.000000 
-0.028512 0.315087 0.000000 
0.647393 0.522614 0.000000 
0.691820 -0.746903 0.000000 
-0.522510 -0.648359 0.000000 
-0.393446 -0.012629 0.000000 
0.205471 -0.468316 0.000000 
0.760780 -0.190501 0.000000 
0.642413 0.648480 0.000000 
-0.714996 0.881937 0.000000 
-0.724017 -0.341659 0.000000 
0.006894 -0.178026 0.000000 
0.083078 0.524498 0.000000 
0.897068 0.591351 0.000000 
-0.965681 -0.784620 0.000000 
-0.761262 -0.434268 0.000000 
0.142083 0.704994 0.000000 
0.397202 -0.633731 0.000000 
-0.108942 -0.152892 0.000000 
-0.899809 -0.148040 0.000000 
-0.724964 0.494208 0.000000 
0.660903 0.954728 0.000000 
-0.978194 -0.353647 0.000000 
0.595936 0.146219 0.000000 
0.071546 -0.996605 0.000000 
0.220880 -0.365680 0.000000 
-0.445811 0.077106 0.000000 
-0.180633 0.755266 0.000000 
-0.702895 -0.753216 0.000000 
-0.287229 -0.053887 0.000000 
-0.685384 0.447271 0.000000 
-0.957100 0.154830 0.000000 
-0.820030 0.778901 0.000000 
0.474522 -0.794105 0.000000 
0.699407 -0.126826 0.000000 
0.109248 0.349929 0.000000 
0.441768 -0.954620 0.000000 
-0.039645 -0.454749 0.000000 
0.417537 0.247814 0.000000 
0.033296 0.748323 0.000000 
-0.338794 -0.984403 0.000000 
-0.374519 -0.411440 0.000000 
-0.713312 0.207990 0.000000 
0.609100 0.096849 0.000000 
-0.381900 0.210788 0.000000 
-0.756418 0.753180 0.000000 
0.513962 0.541694 0.000000 
0.218274 -0.734067 0.000000 
-0.423588 -0.768170 0.000000 
-0.384386 0.846557 0.000000 
-0.766286 -0.638823 0.000000 
0.484677 -0.904038 0.000000 
0.139443 -0.265913 0.000000 
-0.556234 -0.383482 0.000000 
-0.823577 0.390022 0.000000 
0.550868 0.379226 0.000000 
-0.386873 -0.517674 0.000000 
-0.771260 -0.017284 0.000000 
0.467428 -0.323813 0.000000 
0.105264 0.274813 0.000000 
-0.621631 0.092914 0.000000 
-0.937896 0.796494 0.000000 
0.385608 0.717299 0.000000 
0.141715 -0.473473 0.000000 
-0.474677 -0.473377 0.000000 
CELL_DATA 175 
SCALARS MASS float 
LOOKUP_TABLE default 
0.078183 
0.086427 
0.094672 
0.086427 
0.088131 
0.092111 
0.085854 
0.092111 
0.088131 
0.088705 
0.091000 
0.086983 
0.091556 
0.086983 
0.091000 
0.088705 
0.089278 
0.091574 
0.089278 
0.092722 
0.089278 
0.092722 
0.089278 
0.091574 
0.089278 
0.078183 
0.086427 
0.094672 
0.086427 
0.088131 
0.092111 
0.085854 
0.092111 
0.088131 
0.088705 
0.091000 
0.086983 
0.091556 
0.086983 
0.091000 
0.088705 
0.089278 
0.091574 
0.089278 
0.092722 
0.089278 
0.092722 
0.089278 
0.091574 
0.089278 
0.078183 
0.086427 
0.094672 
0.086427 
0.088131 
0.092111 
0.085854 
0.092111 
0.088131 
0.088705 
0.091000 
0.086983 
0.091556 
0.086983 
0.091000 
0.088705 
0.089278 
0.091574 
0.089278 
0.092722 
0.089278 
0.092722 
0.089278 
0.091574 
0.089278 
0.078183 
0.086427 
0.094672 
0.086427 
0.088131 
0.092111 
0.085854 
0.092111 
0.088131 
0.088705 
0.091000 
0.086983 
0.091556 
0.086983 
0.091000 
0.088705 
0.089278 
0.091574 
0.089278 
0.092722 
0.089278 
0.092722 
0.089278 
0.091574 
0.089278 
0.078183 
0.086427 
0.094672 
0.086427 
0.088131 
0.092111 
0.085854 
0.092111 
0.088131 
0.088705 
0.091000 
0.086983 
0.091556 
0.086983 
0.091000 
0.088705 
0.089278 
0.091574 
0.089278 
0.092722 
0.089278 
0.092722 
0.089278 
0.091574 
0.089278 
0.078183 
0.086427 
0.094672 
0.086427 
0.088131 
0.092111 
0.085854 
0.092111 
0.088131 
0.088705 
0.091000 
0.086983 
0.091556 
0.086983 
0.091000 
0.088705 
0.089278 
0.091574 
0.089278 
0.092722 
0.089278 
0.092722 
0.089278 
0.091574 
0.089278 
0.078183 
0.086427 
0.094672 
0.086427 
0.088131 
0.092111 
0.085854 
0.092111 
0.088131 
0.088705 
0.091000 
0.086983 
0.091556 
0.086983 
0.091000 
0.088705 
0.089278 
0.091574 
0.089278 
0.092722 
0.089278 
0.092722 
0.089278 
0.091574 
0.089278 
SCALARS MASS float 
LOOKUP_TABLE default 
0.078183 
0.086427 
0.094672 
0.086427 
0.088131 
0.092111 
0.085854 
0.092111 
0.088131 
0.088705 
0.091000 
0.086983 
0.091556 
0.086983 
0.091000 
0.088705 
0.089278 
0.091574 
0.089278 
0.092722 
0.089278 
0.092722 
0.089278 
0.091574 
0.089278 
0.078183 
0.086427 
0.094672 
0.086427 
0.088131 
0.092111 
0.085854 
0.092111 
0.088131 
0.088705 
0.091000 
0.086983 
0.091556 
0.086983 
0.091000 
0.088705 
0.089278 
0.091574 
0.089278 
0.092722 
0.089278 
0.092722 
0.089278 
0.091574 
0.089278 
0.078183 
0.086427 
0.094672 
0.086427 
0.088131 
0.092111 
0.085854 
0.092111 
0.088131 
0.088705 
0.091000 
0.086983 
0.091556 
0.086983 
0.091000 
0.088705 
0.089278 
0.091574 
0.089278 
0.092722 
0.089278 
0.092722 
0.089278 
0.091574 
0.089278 
0.078183 
0.086427 
0.094672 
0.086427 
0.088131 
0.092111 
0.085854 
0.092111 
0.088131 
0.088705 
0.091000 
0.086983 
0.091556 
0.086983 
0.091000 
0.088705 
0.089278 
0.091574 
0.089278 
0.092722 
0.089278 
0.092722 
0.089278 
0.091574 
0.089278 
0.078183 
0.086427 
0.094672 
0.086427 
0.088131 
0.092111 
0.085854 
0.092111 
0.088131 
0.088705 
0.091000 
0.086983 
0.091556 
0.086983 
0.091000 
0.088705 
0.089278 
0.091574 
0.089278 
0.092722 
0.089278 
0.092722 
0.089278 
0.091574 
0.089278 
0.078183 
0.086427 
0.094672 
0.086427 
0.088131 
0.092111 
0.085854 
0.092111 
0.088131 
0.088705 
0.091000 
0.086983 
0.091556 
0.086983 
0.091000 
0.088705 
0.089278 
0.091574 
0.089278 
0.092722 
0.089278 
0.092722 
0.089278 
0.091574 
0.089278 
0.078183 
0.086427 
0.094672 
0.086427 
0.088131 
0.092111 
0.085854 
0.092111 
0.088131 
0.088705 
0.091000 
0.086983 
0.091556 
0.086983 
0.091000 
0.088705 
0.089278 
0.091574 
0.089278 
0.092722 
0.089278 
0.092722 
0.089278 
0.091574 
0.089278 
SCALARS DENSITY float 
LOOKUP_TABLE default 
20.000000 
20.000000 
20.000000 
20.000000 
20.000000 
20.000000 
20.000000 
20.000000 
20.000000 
20.000000 
20.000000 
20.000000 
20.000000 
20.000000 
20.000000 
20.000000 
20.000000 
20.000000 
20.000000 
20.000000 
20.000000 
20.000000 
20.000000 
20.000000 
20.000000 
20.000000 
20.000000 
20.000000 
20.000000 
20.000000 
20.000000 
20.000000 
20.000000 
20.000000 
20.000000 
20.000000 
20.000000 
20.000000 
20.000000 
20.000000 
20.000000 
20.000000 
20.000000 
20.000000 
20.000000 
20.000000 
20.000000 
20.000000 
20.000000 
20.000000 
20.000000 
20.000000 
20.000000 
20.000000 
20.000000 
20.000000 
20.000000 
20.000000 
20.000000 
20.000000 
20.000000 
20.000000 
20.000000 
20.000000 
20.000000 
20.000000 
20.000000 
20.000000 
20.000000 
20.000000 
20.000000 
20.000000 
20.000000 
20.000000 
20.000000 
20.000000 
20.000000 
20.000000 
20.000000 
20.000000 
20.000000 
20.000000 
20.000000 
20.000000 
20.000000 
20.000000 
20.000000 
20.000000 
20.000000 
20.000000 
20.000000 
20.000000 
20.000000 
20.000000 
20.000000 
20.000000 
20.000000 
20.000000 
20.000000 
20.000000 
20.000000 
20.000000 
20.000000 
20.000000 
20.000000 
20.000000 
20.000000 
20.000000 
20.000000 
20.000000 
20.000000 
20.000000 
20.000000 
20.000000 
20.000000 
20.000000 
20.000000 
20.000000 
20.000000 
20.000000 
20.000000 
20.000000 
20.000000 
20.000000 
20.000000 
20.000000 
20.000000 
20.000000 
20.000000 
20.000000 
20.000000 
20.000000 
20.000000 
20.000000 
20.000000 
20.000000 
20.000000 
20.000000 
20.000000 
20.000000 
20.000000 
20.000000 
20.000000 
20.000000 
20.000000 
20.000000 
20.000000 
20.000000 
20.000000 
20.000000 
20.000000 
20.000000 
20.000000 
20.000000 
20.000000 
20.000000 
20.000000 
20.000000 
20.000000 
20.000000 
20.000000 
20.000000 
20.000000 
20.000000 
20.000000 
20.000000 
20.000000 
20.000000 
20.000000 
20.000000 
20.000000 
20.000000 
20.000000 
20.000000 
20.000000 
SCALARS ELEM_i float 
LOOKUP_TABLE default 
171 
199 
172 
172 
199 
199 
200 
173 
173 
227 
200 
200 
200 
200 
173 
174 
227 
227 
228 
201 
201 
201 
201 
174 
174 
171 
198 
198 
199 
225 
198 
226 
199 
199 
225 
225 
225 
226 
226 
226 
226 
252 
252 
252 
252 
253 
253 
253 
227 
227 
171 
197 
198 
198 
197 
197 
197 
197 
225 
196 
196 
223 
224 
224 
224 
224 
195 
223 
223 
223 
223 
224 
251 
251 
251 
171 
170 
170 
170 
142 
170 
169 
170 
196 
142 
142 
169 
169 
169 
196 
196 
141 
141 
141 
168 
168 
168 
195 
195 
195 
171 
144 
144 
143 
117 
143 
143 
143 
143 
116 
116 
116 
116 
115 
142 
142 
89 
89 
89 
116 
115 
115 
115 
115 
141 
171 
145 
144 
144 
145 
145 
118 
144 
117 
118 
118 
118 
118 
117 
117 
117 
119 
119 
91 
91 
91 
90 
90 
90 
90 
171 
172 
172 
145 
173 
173 
146 
145 
145 
174 
173 
146 
146 
146 
146 
119 
174 
174 
147 
147 
147 
147 
120 
119 
119 
VECTORS VELOCITY float 
0.000000 -5.556384 0.000000 
0.000000 -5.556384 0.000000 
0.000000 -5.556384 0.000000 
-0.000000 -5.556384 0.000000 
0.000000 -5.556384 0.000000 
0.000000 -5.556384 0.000000 
0.000000 -5.556384 0.000000 
0.000000 -5.556384 0.000000 
0.000000 -5.556384 0.000000 
-0.000000 -5.556384 0.000000 
-0.000000 -5.556384 0.000000 
0.000000 -5.556384 0.000000 
0.000000 -5.556384 0.000000 
-0.000000 -5.556384 0.000000 
-0.000000 -5.556384 0.000000 
-0.000000 -5.556384 0.000000 
0.000000 -5.556384 0.000000 
0.000000 -5.556384 0.000000 
0.000000 -5.556384 0.000000 
0.000000 -5.556384 0.000000 
0.000000 -5.556384 0.000000 
-0.000000 -5.556384 0.000000 
0.000000 -5.556384 0.000000 
-0.000000 -5.556384 0.000000 
0.000000 -5.556384 0.000000 
0.000000 -5.556384 0.000000 
0.000000 -5.556384 0.000000 
0.000000 -5.556384 0.000000 
0.000000 -5.556384 0.000000 
0.000000 -5.556384 0.000000 
0.000000 -5.556384 0.000000 
0.000000 -5.556384 0.000000 
0.000000 -5.556384 0.000000 
-0.000000 -5.556384 0.000000 
-0.000000 -5.556384 0.000000 
0.000000 -5.556384 0.000000 
0.000000 -5.556384 0.000000 
0.000000 -5.556384 0.000000 
0.000000 -5.556384 0.000000 
0.000000 -5.556384 0.000000 
0.000000 -5.556384 0.000000 
-0.000000 -5.556384 0.000000 
0.000000 -5.556384 0.000000 
0.000000 -5.556384 0.000000 
0.000000 -5.556384 0.000000 
0.000000 -5.556384 0.000000 
0.000000 -5.556384 0.000000 
-0.000000 -5.556384 0.000000 
0.000000 -5.556384 0.000000 
0.000000 -5.556384 0.000000 
0.000000 -5.556384 0.000000 
-0.000000 -5.556384 0.000000 
-0.000000 -5.556384 0.000000 
0.000000 -5.556384 0.000000 
-0.000000 -5.556384 0.000000 
-0.000000 -5.556384 0.000000 
-0.000000 -5.556384 0.000000 
0.000000 -5.556384 0.000000 
0.000000 -5.556384 0.000000 
-0.000000 -5.556384 0.000000 
-0.000000 -5.556384 0.000000 
-0.000000 -5.556384 0.000000 
-0.000000 -5.556384 0.000000 
-0.000000 -5.556384 0.000000 
0.000000 -5.556384 0.000000 
-0.000000 -5.556384 0.000000 
-0.000000 -5.556384 0.000000 
-0.000000 -5.556384 0.000000 
0.000000 -5.556384 0.000000 
-0.000000 -5.556384 0.000000 
0.000000 -5.556384 0.000000 
-0.000000 -5.556384 0.000000 
-0.000000 -5.556384 0.000000 
-0.000000 -5.556384 0.000000 
-0.000000 -5.556384 0.000000 
-0.000000 -5.556384 0.000000 
0.000000 -5.556384 0.000000 
-0.000000 -5.556384 0.000000 
-0.000000 -5.556384 0.000000 
-0.000000 -5.556384 0.000000 
-0.000000 -5.556384 0.000000 
0.000000 -5.556384 0.000000 
0.000000 -5.556384 0.000000 
0.000000 -5.556384 0.000000 
0.000000 -5.556384 0.000000 
-0.000000 -5.556384 0.000000 
0.000000 -5.556384 0.000000 
-0.000000 -5.556384 0.000000 
-0.000000 -5.556384 0.000000 
0.000000 -5.556384 0.000000 
-0.000000 -5.556384 0.000000 
-0.000000 -5.556384 0.000000 
-0.000000 -5.556384 0.000000 
-0.000000 -5.556384 0.000000 
-0.000000 -5.556384 0.000000 
-0.000000 -5.556384 0.000000 
-0.000000 -5.556384 0.000000 
-0.000000 -5.556384 0.000000 
-0.000000 -5.556384 0.000000 
0.000000 -5.556384 0.000000 
-0.000000 -5.556384 0.000000 
-0.000000 -5.556384 0.000000 
0.000000 -5.556384 0.000000 
0.000000 -5.556384 0.000000 
-0.000000 -5.556384 0.000000 
-0.000000 -5.556384 0.000000 
-0.000000 -5.556384 0.000000 
0.000000 -5.556384 0.000000 
-0.000000 -5.556384 0.000000 
0.000000 -5.556384 0.000000 
-0.000000 -5.556384 0.000000 
-0.000000 -5.556384 0.000000 
-0.000000 -5.556384 0.000000 
0.000000 -5.556384 0.000000 
0.000000 -5.556384 0.000000 
0.000000 -5.556384 0.000000 
-0.000000 -5.556384 0.000000 
-0.000000 -5.556384 0.000000 
0.000000 -5.556384 0.000000 
0.000000 -5.556384 0.000000 
0.000000 -5.556384 0.000000 
0.000000 -5.556384 0.000000 
-0.000000 -5.556384 0.000000 
0.000000 -5.556384 0.000000 
0.000000 -5.556384 0.000000 
-0.000000 -5.556384 0.000000 
-0.000000 -5.556384 0.000000 
-0.000000 -5.556384 0.000000 
-0.000000 -5.556384 0.000000 
-0.000000 -5.556384 0.000000 
-0.000000 -5.556384 0.000000 
-0.000000 -5.556384 0.000000 
0.000000 -5.556384 0.000000 
0.000000 -5.556384 0.000000 
0.000000 -5.556384 0.000000 
-0.000000 -5.556384 0.000000 
-0.000000 -5.556384 0.000000 
-0.000000 -5.556384 0.000000 
-0.000000 -5.556384 0.000000 
0.000000 -5.556384 0.000000 
0.000000 -5.556384 0.000000 
-0.000000 -5.556384 0.000000 
0.000000 -5.556384 0.000000 
-0.000000 -5.556384 0.000000 
0.000000 -5.556384 0.000000 
0.000000 -5.556384 0.000000 
0.000000 -5.556384 0.000000 
0.000000 -5.556384 0.000000 
0.000000 -5.556384 0.000000 
-0.000000 -5.556384 0.000000 
-0.000000 -5.556384 0.000000 
-0.000000 -5.556384 0.000000 
-0.000000 -5.556384 0.000000 
-0.000000 -5.556384 0.000000 
0.000000 -5.556384 0.000000 
-0.000000 -5.556384 0.000000 
-0.000000 -5.556384 0.000000 
-0.000000 -5.556384 0.000000 
-0.000000 -5.556384 0.000000 
0.000000 -5.556384 0.000000 
0.000000 -5.556384 0.000000 
0.000000 -5.556384 0.000000 
0.000000 -5.556384 0.000000 
-0.000000 -5.556384 0.000000 
0.000000 -5.556384 0.000000 
0.000000 -5.556384 0.000000 
0.000000 -5.556384 0.000000 
0.000000 -5.556384 0.000000 
0.000000 -5.556384 0.000000 
0.000000 -5.556384 0.000000 
0.000000 -5.556384 0.000000 
0.000000 -5.556384 0.000000 
0.000000 -5.556384 0.000000 
0.000000 -5.556384 0.000000 
0.000000 -5.556384 0.000000 
TENSORS STRESS float 
-0.000000 -0.000000 0.000000 
0.000000 -0.000000 0.000000 
0.000000 0.000000 0.000000 

0.000000 0.000000 0.000000 
0.000000 0.000000 0.000000 
0.000000 0.000000 0.000000 

-0.000000 -0.000000 0.000000 
0.000000 -0.000000 0.000000 
0.000000 0.000000 0.000000 

-0.000000 -0.000000 0.000000 
0.000000 -0.000000 0.000000 
0.000000 0.000000 0.000000 

-0.000000 0.000000 0.000000 
0.000000 -0.000000 0.000000 
0.000000 0.000000 0.000000 

0.000000 -0.000000 0.000000 
0.000000 0.000000 0.000000 
0.000000 0.000000 0.000000 

0.000000 -0.000000 0.000000 
0.000000 0.000000 0.000000 
0.000000 0.000000 0.000000 

-0.000000 -0.000000 0.000000 
0.000000 -0.000000 0.000000 
0.000000 0.000000 0.000000 

-0.000000 -0.000000 0.000000 
0.000000 -0.000000 0.000000 
0.000000 0.000000 0.000000 

-0.000000 -0.000000 0.000000 
0.000000 -0.000000 0.000000 
0.000000 0.000000 0.000000 

-0.000000 -0.000000 0.000000 
0.000000 -0.000000 0.000000 
0.000000 0.000000 0.000000 

0.000000 0.000000 0.000000 
0.000000 0.000000 0.000000 
0.000000 0.000000 0.000000 

0.000000 0.000000 0.000000 