# vtk DataFile Version 3.0 
vtk output 
ASCII 
DATASET UNSTRUCTURED_GRID 
POINTS 175 float 
-0.026061 -1.356122 0.000000 
-0.106992 -1.288067 0.000000 
-0.054870 -1.296300 0.000000 
-0.028809 -1.250416 0.000000 
-0.186430 -1.223991 0.000000 
-0.137056 -1.226518 0.000000 
-0.114311 -1.172870 0.000000 
-0.058186 -1.188536 0.000000 
-0.029377 -1.148359 0.000000 
-0.265318 -1.160836 0.000000 
-0.217198 -1.161635 0.000000 
-0.196633 -1.104339 0.000000 
-0.143120 -1.113048 0.000000 
-0.116563 -1.065779 0.000000 
-0.058945 -1.085425 0.000000 
-0.029568 -1.047305 0.000000 
-0.344206 -1.097680 0.000000 
-0.296791 -1.097673 0.000000 
-0.278030 -1.037730 0.000000 
-0.225992 -1.043596 0.000000 
-0.201664 -0.991479 0.000000 
-0.145749 -1.004953 0.000000 
-0.117890 -0.960611 0.000000 
-0.059328 -0.983316 0.000000 
-0.029759 -0.946250 0.000000 
-0.058559 -1.396873 0.000000 
-0.162226 -1.417716 0.000000 
-0.123292 -1.382098 0.000000 
-0.142917 -1.333115 0.000000 
-0.261851 -1.439872 0.000000 
-0.229092 -1.402845 0.000000 
-0.256854 -1.351614 0.000000 
-0.209613 -1.317501 0.000000 
-0.223062 -1.269927 0.000000 
-0.360414 -1.462172 0.000000 
-0.329787 -1.425049 0.000000 
-0.361761 -1.373247 0.000000 
-0.321587 -1.336839 0.000000 
-0.341985 -1.286604 0.000000 
-0.290702 -1.253806 0.000000 
-0.302189 -1.207070 0.000000 
-0.458977 -1.484472 0.000000 
-0.429420 -1.447398 0.000000 
-0.464588 -1.395356 0.000000 
-0.427556 -1.358329 0.000000 
-0.453135 -1.306814 0.000000 
-0.407738 -1.271498 0.000000 
-0.425037 -1.222070 0.000000 
-0.370772 -1.190441 0.000000 
-0.381315 -1.144214 0.000000 
-0.046960 -1.447688 0.000000 
-0.095301 -1.541734 0.000000 
-0.098873 -1.489087 0.000000 
-0.149405 -1.473889 0.000000 
-0.140093 -1.633438 0.000000 
-0.148617 -1.584740 0.000000 
-0.205981 -1.574503 0.000000 
-0.203197 -1.516299 0.000000 
-0.248777 -1.497153 0.000000 
-0.184111 -1.724402 0.000000 
-0.194039 -1.677311 0.000000 
-0.254475 -1.670011 0.000000 
-0.257893 -1.615901 0.000000 
-0.309886 -1.600529 0.000000 
-0.303554 -1.539984 0.000000 
-0.347255 -1.519826 0.000000 
-0.228129 -1.815366 0.000000 
-0.238687 -1.769141 0.000000 
-0.301302 -1.764189 0.000000 
-0.307162 -1.712150 0.000000 
-0.363386 -1.700029 0.000000 
-0.362692 -1.642518 0.000000 
-0.412122 -1.625225 0.000000 
-0.403017 -1.563078 0.000000 
-0.445733 -1.542499 0.000000 
-0.000000 -1.470303 0.000000 
0.043388 -1.566734 0.000000 
-0.000000 -1.536702 0.000000 
-0.043388 -1.566734 0.000000 
0.087158 -1.658931 0.000000 
0.043769 -1.635232 0.000000 
-0.000000 -1.673698 0.000000 
-0.043769 -1.635232 0.000000 
-0.087158 -1.658931 0.000000 
0.130831 -1.750060 0.000000 
0.087824 -1.728461 0.000000 
0.044436 -1.771161 0.000000 
-0.000000 -1.740096 0.000000 
-0.044436 -1.771161 0.000000 
-0.087824 -1.728461 0.000000 
-0.130831 -1.750060 0.000000 
0.174505 -1.841190 0.000000 
0.131782 -1.820624 0.000000 
0.088871 -1.866490 0.000000 
0.044532 -1.838626 0.000000 
-0.000000 -1.875027 0.000000 
-0.044532 -1.838626 0.000000 
-0.088871 -1.866490 0.000000 
-0.131782 -1.820624 0.000000 
-0.174505 -1.841190 0.000000 
0.046960 -1.447688 0.000000 
0.149405 -1.473889 0.000000 
0.098873 -1.489087 0.000000 
0.095301 -1.541734 0.000000 
0.248777 -1.497153 0.000000 
0.203197 -1.516299 0.000000 
0.205981 -1.574503 0.000000 
0.148617 -1.584740 0.000000 
0.140093 -1.633438 0.000000 
0.347255 -1.519826 0.000000 
0.303554 -1.539984 0.000000 
0.309886 -1.600529 0.000000 
0.257893 -1.615901 0.000000 
0.254475 -1.670011 0.000000 
0.194039 -1.677311 0.000000 
0.184111 -1.724402 0.000000 
0.445733 -1.542499 0.000000 
0.403017 -1.563078 0.000000 
0.412122 -1.625225 0.000000 
0.362692 -1.642518 0.000000 
0.363386 -1.700029 0.000000 
0.307162 -1.712150 0.000000 
0.301302 -1.764189 0.000000 
0.238687 -1.769141 0.000000 
0.228129 -1.815366 0.000000 
0.058559 -1.396873 0.000000 
0.142917 -1.333115 0.000000 
0.123292 -1.382098 0.000000 
0.162226 -1.417716 0.000000 
0.223062 -1.269927 0.000000 
0.209613 -1.317501 0.000000 
0.256854 -1.351614 0.000000 
0.229092 -1.402845 0.000000 
0.261851 -1.439872 0.000000 
0.302189 -1.207070 0.000000 
0.290702 -1.253806 0.000000 
0.341985 -1.286604 0.000000 
0.321587 -1.336839 0.000000 
0.361761 -1.373247 0.000000 
0.329787 -1.425049 0.000000 
0.360414 -1.462172 0.000000 
0.381315 -1.144214 0.000000 
0.370772 -1.190441 0.000000 
0.425037 -1.222070 0.000000 
0.407738 -1.271498 0.000000 
0.453135 -1.306814 0.000000 
0.427556 -1.358329 0.000000 
0.464588 -1.395356 0.000000 
0.429420 -1.447398 0.000000 
0.458977 -1.484472 0.000000 
0.026061 -1.356122 0.000000 
0.028809 -1.250416 0.000000 
0.054870 -1.296300 0.000000 
0.106992 -1.288067 0.000000 
0.029377 -1.148359 0.000000 
0.058186 -1.188536 0.000000 
0.114311 -1.172870 0.000000 
0.137056 -1.226518 0.000000 
0.186430 -1.223991 0.000000 
0.029568 -1.047305 0.000000 
0.058945 -1.085425 0.000000 
0.116563 -1.065779 0.000000 
0.143120 -1.113048 0.000000 
0.196633 -1.104339 0.000000 
0.217198 -1.161635 0.000000 
0.265318 -1.160836 0.000000 
0.029759 -0.946250 0.000000 
0.059328 -0.983316 0.000000 
0.117890 -0.960611 0.000000 
0.145749 -1.004953 0.000000 
0.201664 -0.991479 0.000000 
0.225992 -1.043596 0.000000 
0.278030 -1.037730 0.000000 
0.296791 -1.097673 0.000000 
0.344206 -1.097680 0.000000 
CELLS 175 350 
1 0 
1 1 
1 2 
1 3 
1 4 
1 5 
1 6 
1 7 
1 8 
1 9 
1 10 
1 11 
1 12 
1 13 
1 14 
1 15 
1 16 
1 17 
1 18 
1 19 
1 20 
1 21 
1 22 
1 23 
1 24 
1 25 
1 26 
1 27 
1 28 
1 29 
1 30 
1 31 
1 32 
1 33 
1 34 
1 35 
1 36 
1 37 
1 38 
1 39 
1 40 
1 41 
1 42 
1 43 
1 44 
1 45 
1 46 
1 47 
1 48 
1 49 
1 50 
1 51 
1 52 
1 53 
1 54 
1 55 
1 56 
1 57 
1 58 
1 59 
1 60 
1 61 
1 62 
1 63 
1 64 
1 65 
1 66 
1 67 
1 68 
1 69 
1 70 
1 71 
1 72 
1 73 
1 74 
1 75 
1 76 
1 77 
1 78 
1 79 
1 80 
1 81 
1 82 
1 83 
1 84 
1 85 
1 86 
1 87 
1 88 
1 89 
1 90 
1 91 
1 92 
1 93 
1 94 
1 95 
1 96 
1 97 
1 98 
1 99 
1 100 
1 101 
1 102 
1 103 
1 104 
1 105 
1 106 
1 107 
1 108 
1 109 
1 110 
1 111 
1 112 
1 113 
1 114 
1 115 
1 116 
1 117 
1 118 
1 119 
1 120 
1 121 
1 122 
1 123 
1 124 
1 125 
1 126 
1 127 
1 128 
1 129 
1 130 
1 131 
1 132 
1 133 
1 134 
1 135 
1 136 
1 137 
1 138 
1 139 
1 140 
1 141 
1 142 
1 143 
1 144 
1 145 
1 146 
1 147 
1 148 
1 149 
1 150 
1 151 
1 152 
1 153 
1 154 
1 155 
1 156 
1 157 
1 158 
1 159 
1 160 
1 161 
1 162 
1 163 
1 164 
1 165 
1 166 
1 167 
1 168 
1 169 
1 170 
1 171 
1 172 
1 173 
1 174 
CELL_TYPES 175 
1 
1 
1 
1 
1 
1 
1 
1 
1 
1 
1 
1 
1 
1 
1 
1 
1 
1 
1 
1 
1 
1 
1 
1 
1 
1 
1 
1 
1 
1 
1 
1 
1 
1 
1 
1 
1 
1 
1 
1 
1 
1 
1 
1 
1 
1 
1 
1 
1 
1 
1 
1 
1 
1 
1 
1 
1 
1 
1 
1 
1 
1 
1 
1 
1 
1 
1 
1 
1 
1 
1 
1 
1 
1 
1 
1 
1 
1 
1 
1 
1 
1 
1 
1 
1 
1 
1 
1 
1 
1 
1 
1 
1 
1 
1 
1 
1 
1 
1 
1 
1 
1 
1 
1 
1 
1 
1 
1 
1 
1 
1 
1 
1 
1 
1 
1 
1 
1 
1 
1 
1 
1 
1 
1 
1 
1 
1 
1 
1 
1 
1 
1 
1 
1 
1 
1 
1 
1 
1 
1 
1 
1 
1 
1 
1 
1 
1 
1 
1 
1 
1 
1 
1 
1 
1 
1 
1 
1 
1 
1 
1 
1 
1 
1 
1 
1 
1 
1 
1 
1 
1 
1 
1 
1 
1 
POINT_DATA 175 
VECTORS X_GC float 
-0.026061 -1.356122 0.000000 
-0.106992 -1.288067 0.000000 
-0.054870 -1.296300 0.000000 
-0.028809 -1.250416 0.000000 
-0.186430 -1.223991 0.000000 
-0.137056 -1.226518 0.000000 
-0.114311 -1.172870 0.000000 
-0.058186 -1.188536 0.000000 
-0.029377 -1.148359 0.000000 
-0.265318 -1.160836 0.000000 
-0.217198 -1.161635 0.000000 
-0.196633 -1.104339 0.000000 
-0.143120 -1.113048 0.000000 
-0.116563 -1.065779 0.000000 
-0.058945 -1.085425 0.000000 
-0.029568 -1.047305 0.000000 
-0.344206 -1.097680 0.000000 
-0.296791 -1.097673 0.000000 
-0.278030 -1.037730 0.000000 
-0.225992 -1.043596 0.000000 
-0.201664 -0.991479 0.000000 
-0.145749 -1.004953 0.000000 
-0.117890 -0.960611 0.000000 
-0.059328 -0.983316 0.000000 
-0.029759 -0.946250 0.000000 
-0.058559 -1.396873 0.000000 
-0.162226 -1.417716 0.000000 
-0.123292 -1.382098 0.000000 
-0.142917 -1.333115 0.000000 
-0.261851 -1.439872 0.000000 
-0.229092 -1.402845 0.000000 
-0.256854 -1.351614 0.000000 
-0.209613 -1.317501 0.000000 
-0.223062 -1.269927 0.000000 
-0.360414 -1.462172 0.000000 
-0.329787 -1.425049 0.000000 
-0.361761 -1.373247 0.000000 
-0.321587 -1.336839 0.000000 
-0.341985 -1.286604 0.000000 
-0.290702 -1.253806 0.000000 
-0.302189 -1.207070 0.000000 
-0.458977 -1.484472 0.000000 
-0.429420 -1.447398 0.000000 
-0.464588 -1.395356 0.000000 
-0.427556 -1.358329 0.000000 
-0.453135 -1.306814 0.000000 
-0.407738 -1.271498 0.000000 
-0.425037 -1.222070 0.000000 
-0.370772 -1.190441 0.000000 
-0.381315 -1.144214 0.000000 
-0.046960 -1.447688 0.000000 
-0.095301 -1.541734 0.000000 
-0.098873 -1.489087 0.000000 
-0.149405 -1.473889 0.000000 
-0.140093 -1.633438 0.000000 
-0.148617 -1.584740 0.000000 
-0.205981 -1.574503 0.000000 
-0.203197 -1.516299 0.000000 
-0.248777 -1.497153 0.000000 
-0.184111 -1.724402 0.000000 
-0.194039 -1.677311 0.000000 
-0.254475 -1.670011 0.000000 
-0.257893 -1.615901 0.000000 
-0.309886 -1.600529 0.000000 
-0.303554 -1.539984 0.000000 
-0.347255 -1.519826 0.000000 
-0.228129 -1.815366 0.000000 
-0.238687 -1.769141 0.000000 
-0.301302 -1.764189 0.000000 
-0.307162 -1.712150 0.000000 
-0.363386 -1.700029 0.000000 
-0.362692 -1.642518 0.000000 
-0.412122 -1.625225 0.000000 
-0.403017 -1.563078 0.000000 
-0.445733 -1.542499 0.000000 
-0.000000 -1.470303 0.000000 
0.043388 -1.566734 0.000000 
-0.000000 -1.536702 0.000000 
-0.043388 -1.566734 0.000000 
0.087158 -1.658931 0.000000 
0.043769 -1.635232 0.000000 
-0.000000 -1.673698 0.000000 
-0.043769 -1.635232 0.000000 
-0.087158 -1.658931 0.000000 
0.130831 -1.750060 0.000000 
0.087824 -1.728461 0.000000 
0.044436 -1.771161 0.000000 
-0.000000 -1.740096 0.000000 
-0.044436 -1.771161 0.000000 
-0.087824 -1.728461 0.000000 
-0.130831 -1.750060 0.000000 
0.174505 -1.841190 0.000000 
0.131782 -1.820624 0.000000 
0.088871 -1.866490 0.000000 
0.044532 -1.838626 0.000000 
-0.000000 -1.875027 0.000000 
-0.044532 -1.838626 0.000000 
-0.088871 -1.866490 0.000000 
-0.131782 -1.820624 0.000000 
-0.174505 -1.841190 0.000000 
0.046960 -1.447688 0.000000 
0.149405 -1.473889 0.000000 
0.098873 -1.489087 0.000000 
0.095301 -1.541734 0.000000 
0.248777 -1.497153 0.000000 
0.203197 -1.516299 0.000000 
0.205981 -1.574503 0.000000 
0.148617 -1.584740 0.000000 
0.140093 -1.633438 0.000000 
0.347255 -1.519826 0.000000 
0.303554 -1.539984 0.000000 
0.309886 -1.600529 0.000000 
0.257893 -1.615901 0.000000 
0.254475 -1.670011 0.000000 
0.194039 -1.677311 0.000000 
0.184111 -1.724402 0.000000 
0.445733 -1.542499 0.000000 
0.403017 -1.563078 0.000000 
0.412122 -1.625225 0.000000 
0.362692 -1.642518 0.000000 
0.363386 -1.700029 0.000000 
0.307162 -1.712150 0.000000 
0.301302 -1.764189 0.000000 
0.238687 -1.769141 0.000000 
0.228129 -1.815366 0.000000 
0.058559 -1.396873 0.000000 
0.142917 -1.333115 0.000000 
0.123292 -1.382098 0.000000 
0.162226 -1.417716 0.000000 
0.223062 -1.269927 0.000000 
0.209613 -1.317501 0.000000 
0.256854 -1.351614 0.000000 
0.229092 -1.402845 0.000000 
0.261851 -1.439872 0.000000 
0.302189 -1.207070 0.000000 
0.290702 -1.253806 0.000000 
0.341985 -1.286604 0.000000 
0.321587 -1.336839 0.000000 
0.361761 -1.373247 0.000000 
0.329787 -1.425049 0.000000 
0.360414 -1.462172 0.000000 
0.381315 -1.144214 0.000000 
0.370772 -1.190441 0.000000 
0.425037 -1.222070 0.000000 
0.407738 -1.271498 0.000000 
0.453135 -1.306814 0.000000 
0.427556 -1.358329 0.000000 
0.464588 -1.395356 0.000000 
0.429420 -1.447398 0.000000 
0.458977 -1.484472 0.000000 
0.026061 -1.356122 0.000000 
0.028809 -1.250416 0.000000 
0.054870 -1.296300 0.000000 
0.106992 -1.288067 0.000000 
0.029377 -1.148359 0.000000 
0.058186 -1.188536 0.000000 
0.114311 -1.172870 0.000000 
0.137056 -1.226518 0.000000 
0.186430 -1.223991 0.000000 
0.029568 -1.047305 0.000000 
0.058945 -1.085425 0.000000 
0.116563 -1.065779 0.000000 
0.143120 -1.113048 0.000000 
0.196633 -1.104339 0.000000 
0.217198 -1.161635 0.000000 
0.265318 -1.160836 0.000000 
0.029759 -0.946250 0.000000 
0.059328 -0.983316 0.000000 
0.117890 -0.960611 0.000000 
0.145749 -1.004953 0.000000 
0.201664 -0.991479 0.000000 
0.225992 -1.043596 0.000000 
0.278030 -1.037730 0.000000 
0.296791 -1.097673 0.000000 
0.344206 -1.097680 0.000000 
VECTORS X_EC float 
0.338794 0.807652 0.000000 
-0.609100 -0.111096 0.000000 
0.713312 0.000044 0.000000 
0.374519 -0.619385 0.000000 
0.423588 -0.976116 0.000000 
-0.218274 -0.942012 0.000000 
-0.513962 0.333749 0.000000 
0.756418 0.545235 0.000000 
0.381900 0.002843 0.000000 
-0.550868 0.171281 0.000000 
0.823577 0.182077 0.000000 
0.556234 -0.591427 0.000000 
-0.139443 -0.473859 0.000000 
-0.484677 0.888017 0.000000 
0.766286 -0.846768 0.000000 
0.384386 0.638612 0.000000 
0.474677 -0.681322 0.000000 
-0.141715 -0.681418 0.000000 
-0.385608 0.509353 0.000000 
0.937896 0.588549 0.000000 
0.621631 -0.115031 0.000000 
-0.105264 0.066868 0.000000 
-0.467428 -0.531758 0.000000 
0.771260 -0.225230 0.000000 
0.386873 -0.725619 0.000000 
0.761262 -0.642214 0.000000 
0.108942 -0.360837 0.000000 
-0.397202 -0.841676 0.000000 
-0.142083 0.497049 0.000000 
-0.595936 -0.061726 0.000000 
0.978194 -0.561592 0.000000 
-0.660903 0.746783 0.000000 
0.724964 0.286263 0.000000 
0.899809 -0.355986 0.000000 
0.685384 0.239326 0.000000 
0.287229 -0.261833 0.000000 
0.702895 -0.961161 0.000000 
0.180633 0.547320 0.000000 
0.445811 -0.130839 0.000000 
-0.220880 -0.573625 0.000000 
-0.071546 0.795449 0.000000 
-0.033296 0.540378 0.000000 
-0.417537 0.039869 0.000000 
0.039645 -0.662694 0.000000 
-0.441768 0.837435 0.000000 
-0.109248 0.141984 0.000000 
-0.699407 -0.334771 0.000000 
-0.474522 0.997949 0.000000 
0.820030 0.570956 0.000000 
0.957100 -0.053116 0.000000 
0.610485 0.043793 0.000000 
-0.761092 -0.686588 0.000000 
-0.714655 0.602675 0.000000 
-0.057734 0.397508 0.000000 
-0.178789 0.551416 0.000000 
-0.067979 -0.106010 0.000000 
0.677748 -0.244213 0.000000 
0.641556 0.970042 0.000000 
-0.765897 0.711563 0.000000 
0.393446 -0.220574 0.000000 
0.522510 -0.856304 0.000000 
-0.691820 -0.954849 0.000000 
-0.647393 0.314669 0.000000 
0.028512 0.107142 0.000000 
-0.053800 -0.710218 0.000000 
0.514316 -0.982349 0.000000 
0.965681 -0.992565 0.000000 
-0.897068 0.383406 0.000000 
-0.083078 0.316553 0.000000 
-0.006893 -0.385972 0.000000 
0.724017 -0.549605 0.000000 
0.714996 0.673992 0.000000 
-0.642413 0.440534 0.000000 
-0.760780 -0.398446 0.000000 
-0.205471 -0.676261 0.000000 
0.000000 0.349094 0.000000 
-0.564049 -0.349093 0.000000 
0.000000 -0.754529 0.000000 
0.564049 -0.349093 0.000000 
0.866949 0.895563 0.000000 
-0.569003 0.575631 0.000000 
0.000000 -0.905080 0.000000 
0.569003 0.575631 0.000000 
-0.866949 0.895563 0.000000 
0.299194 0.125813 0.000000 
0.858290 -0.165771 0.000000 
-0.577662 0.410675 0.000000 
0.000000 -0.008703 0.000000 
0.577662 0.410675 0.000000 
-0.858290 -0.165771 0.000000 
-0.299194 0.125813 0.000000 
-0.268560 -0.643937 0.000000 
0.286830 -0.921579 0.000000 
0.844677 -0.302381 0.000000 
-0.578910 -0.678543 0.000000 
0.000000 -0.187139 0.000000 
0.578910 -0.678543 0.000000 
-0.844677 -0.302381 0.000000 
-0.286830 -0.921579 0.000000 
0.268560 -0.643937 0.000000 
-0.610485 0.043793 0.000000 
0.057734 0.397508 0.000000 
0.714655 0.602675 0.000000 
0.761092 -0.686588 0.000000 
0.765897 0.711563 0.000000 
-0.641556 0.970042 0.000000 
-0.677748 -0.244213 0.000000 
0.067979 -0.106010 0.000000 
0.178789 0.551416 0.000000 
-0.514316 -0.982349 0.000000 
0.053800 -0.710218 0.000000 
-0.028512 0.107142 0.000000 
0.647393 0.314669 0.000000 
0.691820 -0.954849 0.000000 
-0.522510 -0.856304 0.000000 
-0.393446 -0.220574 0.000000 
0.205471 -0.676261 0.000000 
0.760780 -0.398446 0.000000 
0.642413 0.440534 0.000000 
-0.714996 0.673992 0.000000 
-0.724017 -0.549605 0.000000 
0.006894 -0.385972 0.000000 
0.083078 0.316553 0.000000 
0.897068 0.383406 0.000000 
-0.965681 -0.992565 0.000000 
-0.761262 -0.642214 0.000000 
0.142083 0.497049 0.000000 
0.397202 -0.841676 0.000000 
-0.108942 -0.360837 0.000000 
-0.899809 -0.355986 0.000000 
-0.724964 0.286263 0.000000 
0.660903 0.746783 0.000000 
-0.978194 -0.561592 0.000000 
0.595936 -0.061726 0.000000 
0.071546 0.795449 0.000000 
0.220880 -0.573625 0.000000 
-0.445811 -0.130839 0.000000 
-0.180633 0.547320 0.000000 
-0.702895 -0.961161 0.000000 
-0.287229 -0.261833 0.000000 
-0.685384 0.239326 0.000000 
-0.957100 -0.053116 0.000000 
-0.820030 0.570956 0.000000 
0.474522 0.997949 0.000000 
0.699407 -0.334771 0.000000 
0.109248 0.141984 0.000000 
0.441768 0.837435 0.000000 
-0.039645 -0.662694 0.000000 
0.417537 0.039869 0.000000 
0.033296 0.540378 0.000000 
-0.338794 0.807652 0.000000 
-0.374519 -0.619385 0.000000 
-0.713312 0.000044 0.000000 
0.609100 -0.111096 0.000000 
-0.381900 0.002843 0.000000 
-0.756418 0.545235 0.000000 
0.513962 0.333749 0.000000 
0.218274 -0.942012 0.000000 
-0.423588 -0.976116 0.000000 
-0.384386 0.638612 0.000000 
-0.766286 -0.846768 0.000000 
0.484677 0.888017 0.000000 
0.139443 -0.473859 0.000000 
-0.556234 -0.591427 0.000000 
-0.823577 0.182077 0.000000 
0.550868 0.171281 0.000000 
-0.386873 -0.725619 0.000000 
-0.771260 -0.225230 0.000000 
0.467428 -0.531758 0.000000 
0.105264 0.066868 0.000000 
-0.621631 -0.115031 0.000000 
-0.937896 0.588549 0.000000 
0.385608 0.509353 0.000000 
0.141715 -0.681418 0.000000 
-0.474677 -0.681322 0.000000 
CELL_DATA 175 
SCALARS MASS float 
LOOKUP_TABLE default 
0.078183 
0.086427 
0.094672 
0.086427 
0.088131 
0.092111 
0.085854 
0.092111 
0.088131 
0.088705 
0.091000 
0.086983 
0.091556 
0.086983 
0.091000 
0.088705 
0.089278 
0.091574 
0.089278 
0.092722 
0.089278 
0.092722 
0.089278 
0.091574 
0.089278 
0.078183 
0.086427 
0.094672 
0.086427 
0.088131 
0.092111 
0.085854 
0.092111 
0.088131 
0.088705 
0.091000 
0.086983 
0.091556 
0.086983 
0.091000 
0.088705 
0.089278 
0.091574 
0.089278 
0.092722 
0.089278 
0.092722 
0.089278 
0.091574 
0.089278 
0.078183 
0.086427 
0.094672 
0.086427 
0.088131 
0.092111 
0.085854 
0.092111 
0.088131 
0.088705 
0.091000 
0.086983 
0.091556 
0.086983 
0.091000 
0.088705 
0.089278 
0.091574 
0.089278 
0.092722 
0.089278 
0.092722 
0.089278 
0.091574 
0.089278 
0.078183 
0.086427 
0.094672 
0.086427 
0.088131 
0.092111 
0.085854 
0.092111 
0.088131 
0.088705 
0.091000 
0.086983 
0.091556 
0.086983 
0.091000 
0.088705 
0.089278 
0.091574 
0.089278 
0.092722 
0.089278 
0.092722 
0.089278 
0.091574 
0.089278 
0.078183 
0.086427 
0.094672 
0.086427 
0.088131 
0.092111 
0.085854 
0.092111 
0.088131 
0.088705 
0.091000 
0.086983 
0.091556 
0.086983 
0.091000 
0.088705 
0.089278 
0.091574 
0.089278 
0.092722 
0.089278 
0.092722 
0.089278 
0.091574 
0.089278 
0.078183 
0.086427 
0.094672 
0.086427 
0.088131 
0.092111 
0.085854 
0.092111 
0.088131 
0.088705 
0.091000 
0.086983 
0.091556 
0.086983 
0.091000 
0.088705 
0.089278 
0.091574 
0.089278 
0.092722 
0.089278 
0.092722 
0.089278 
0.091574 
0.089278 
0.078183 
0.086427 
0.094672 
0.086427 
0.088131 
0.092111 
0.085854 
0.092111 
0.088131 
0.088705 
0.091000 
0.086983 
0.091556 
0.086983 
0.091000 
0.088705 
0.089278 
0.091574 
0.089278 
0.092722 
0.089278 
0.092722 
0.089278 
0.091574 
0.089278 
SCALARS MASS float 
LOOKUP_TABLE default 
0.078183 
0.086427 
0.094672 
0.086427 
0.088131 
0.092111 
0.085854 
0.092111 
0.088131 
0.088705 
0.091000 
0.086983 
0.091556 
0.086983 
0.091000 
0.088705 
0.089278 
0.091574 
0.089278 
0.092722 
0.089278 
0.092722 
0.089278 
0.091574 
0.089278 
0.078183 
0.086427 
0.094672 
0.086427 
0.088131 
0.092111 
0.085854 
0.092111 
0.088131 
0.088705 
0.091000 
0.086983 
0.091556 
0.086983 
0.091000 
0.088705 
0.089278 
0.091574 
0.089278 
0.092722 
0.089278 
0.092722 
0.089278 
0.091574 
0.089278 
0.078183 
0.086427 
0.094672 
0.086427 
0.088131 
0.092111 
0.085854 
0.092111 
0.088131 
0.088705 
0.091000 
0.086983 
0.091556 
0.086983 
0.091000 
0.088705 
0.089278 
0.091574 
0.089278 
0.092722 
0.089278 
0.092722 
0.089278 
0.091574 
0.089278 
0.078183 
0.086427 
0.094672 
0.086427 
0.088131 
0.092111 
0.085854 
0.092111 
0.088131 
0.088705 
0.091000 
0.086983 
0.091556 
0.086983 
0.091000 
0.088705 
0.089278 
0.091574 
0.089278 
0.092722 
0.089278 
0.092722 
0.089278 
0.091574 
0.089278 
0.078183 
0.086427 
0.094672 
0.086427 
0.088131 
0.092111 
0.085854 
0.092111 
0.088131 
0.088705 
0.091000 
0.086983 
0.091556 
0.086983 
0.091000 
0.088705 
0.089278 
0.091574 
0.089278 
0.092722 
0.089278 
0.092722 
0.089278 
0.091574 
0.089278 
0.078183 
0.086427 
0.094672 
0.086427 
0.088131 
0.092111 
0.085854 
0.092111 
0.088131 
0.088705 
0.091000 
0.086983 
0.091556 
0.086983 
0.091000 
0.088705 
0.089278 
0.091574 
0.089278 
0.092722 
0.089278 
0.092722 
0.089278 
0.091574 
0.089278 
0.078183 
0.086427 
0.094672 
0.086427 
0.088131 
0.092111 
0.085854 
0.092111 
0.088131 
0.088705 
0.091000 
0.086983 
0.091556 
0.086983 
0.091000 
0.088705 
0.089278 
0.091574 
0.089278 
0.092722 
0.089278 
0.092722 
0.089278 
0.091574 
0.089278 
SCALARS DENSITY float 
LOOKUP_TABLE default 
20.000000 
20.000000 
20.000000 
20.000000 
20.000000 
20.000000 
20.000000 
20.000000 
20.000000 
20.000000 
20.000000 
20.000000 
20.000000 
20.000000 
20.000000 
20.000000 
20.000000 
20.000000 
20.000000 
20.000000 
20.000000 
20.000000 
20.000000 
20.000000 
20.000000 
20.000000 
20.000000 
20.000000 
20.000000 
20.000000 
20.000000 
20.000000 
20.000000 
20.000000 
20.000000 
20.000000 
20.000000 
20.000000 
20.000000 
20.000000 
20.000000 
20.000000 
20.000000 
20.000000 
20.000000 
20.000000 
20.000000 
20.000000 
20.000000 
20.000000 
20.000000 
20.000000 
20.000000 
20.000000 
20.000000 
20.000000 
20.000000 
20.000000 
20.000000 
20.000000 
20.000000 
20.000000 
20.000000 
20.000000 
20.000000 
20.000000 
20.000000 
20.000000 
20.000000 
20.000000 
20.000000 
20.000000 
20.000000 
20.000000 
20.000000 
20.000000 
20.000000 
20.000000 
20.000000 
20.000000 
20.000000 
20.000000 
20.000000 
20.000000 
20.000000 
20.000000 
20.000000 
20.000000 
20.000000 
20.000000 
20.000000 
20.000000 
20.000000 
20.000000 
20.000000 
20.000000 
20.000000 
20.000000 
20.000000 
20.000000 
20.000000 
20.000000 
20.000000 
20.000000 
20.000000 
20.000000 
20.000000 
20.000000 
20.000000 
20.000000 
20.000000 
20.000000 
20.000000 
20.000000 
20.000000 
20.000000 
20.000000 
20.000000 
20.000000 
20.000000 
20.000000 
20.000000 
20.000000 
20.000000 
20.000000 
20.000000 
20.000000 
20.000000 
20.000000 
20.000000 
20.000000 
20.000000 
20.000000 
20.000000 
20.000000 
20.000000 
20.000000 
20.000000 
20.000000 
20.000000 
20.000000 
20.000000 
20.000000 
20.000000 
20.000000 
20.000000 
20.000000 
20.000000 
20.000000 
20.000000 
20.000000 
20.000000 
20.000000 
20.000000 
20.000000 
20.000000 
20.000000 
20.000000 
20.000000 
20.000000 
20.000000 
20.000000 
20.000000 
20.000000 
20.000000 
20.000000 
20.000000 
20.000000 
20.000000 
20.000000 
20.000000 
20.000000 
20.000000 
20.000000 
20.000000 
SCALARS ELEM_i float 
LOOKUP_TABLE default 
173 
200 
173 
173 
200 
200 
201 
174 
174 
228 
201 
201 
201 
202 
174 
175 
228 
228 
229 
202 
202 
202 
202 
175 
175 
172 
199 
199 
200 
226 
199 
227 
200 
200 
226 
226 
226 
227 
227 
227 
228 
253 
253 
253 
254 
254 
254 
255 
228 
228 
172 
198 
199 
199 
198 
198 
198 
199 
226 
197 
197 
224 
225 
225 
225 
225 
196 
224 
224 
224 
224 
225 
252 
252 
252 
172 
171 
171 
171 
144 
171 
170 
171 
198 
143 
143 
170 
170 
170 
197 
197 
142 
142 
142 
169 
169 
169 
196 
196 
196 
172 
145 
145 
144 
118 
145 
144 
144 
144 
117 
117 
117 
117 
116 
143 
143 
90 
90 
90 
117 
116 
116 
116 
116 
142 
172 
146 
145 
145 
146 
146 
119 
145 
118 
120 
119 
119 
119 
118 
118 
118 
120 
120 
93 
92 
92 
92 
91 
91 
91 
173 
173 
173 
146 
174 
174 
147 
146 
146 
175 
174 
148 
147 
147 
147 
120 
175 
175 
148 
148 
148 
148 
121 
120 
120 
VECTORS VELOCITY float 
0.000000 -5.259730 0.000000 
0.000000 -5.259730 0.000000 
0.000000 -5.259730 0.000000 
-0.000000 -5.259730 0.000000 
0.000000 -5.259730 0.000000 
-0.000000 -5.259730 0.000000 
-0.000000 -5.259730 0.000000 
-0.000000 -5.259730 0.000000 
-0.000000 -5.259730 0.000000 
0.000000 -5.259730 0.000000 
0.000000 -5.259730 0.000000 
0.000000 -5.259730 0.000000 
0.000000 -5.259730 0.000000 
-0.000000 -5.259730 0.000000 
-0.000000 -5.259730 0.000000 
-0.000000 -5.259730 0.000000 
-0.000000 -5.259730 0.000000 
-0.000000 -5.259730 0.000000 
0.000000 -5.259730 0.000000 
0.000000 -5.259730 0.000000 
-0.000000 -5.259730 0.000000 
0.000000 -5.259730 0.000000 
0.000000 -5.259730 0.000000 
0.000000 -5.259730 0.000000 
0.000000 -5.259730 0.000000 
-0.000000 -5.259730 0.000000 
-0.000000 -5.259730 0.000000 
0.000000 -5.259730 0.000000 
-0.000000 -5.259730 0.000000 
0.000000 -5.259730 0.000000 
0.000000 -5.259730 0.000000 
-0.000000 -5.259730 0.000000 
-0.000000 -5.259730 0.000000 
0.000000 -5.259730 0.000000 
-0.000000 -5.259730 0.000000 
-0.000000 -5.259730 0.000000 
-0.000000 -5.259730 0.000000 
-0.000000 -5.259730 0.000000 
0.000000 -5.259730 0.000000 
0.000000 -5.259730 0.000000 
0.000000 -5.259730 0.000000 
-0.000000 -5.259730 0.000000 
-0.000000 -5.259730 0.000000 
-0.000000 -5.259730 0.000000 
-0.000000 -5.259730 0.000000 
0.000000 -5.259730 0.000000 
0.000000 -5.259730 0.000000 
0.000000 -5.259730 0.000000 
0.000000 -5.259730 0.000000 
0.000000 -5.259730 0.000000 
-0.000000 -5.259730 0.000000 
0.000000 -5.259730 0.000000 
-0.000000 -5.259730 0.000000 
0.000000 -5.259730 0.000000 
-0.000000 -5.259730 0.000000 
-0.000000 -5.259730 0.000000 
-0.000000 -5.259730 0.000000 
-0.000000 -5.259730 0.000000 
-0.000000 -5.259730 0.000000 
0.000000 -5.259730 0.000000 
-0.000000 -5.259730 0.000000 
0.000000 -5.259730 0.000000 
-0.000000 -5.259730 0.000000 
-0.000000 -5.259730 0.000000 
-0.000000 -5.259730 0.000000 
-0.000000 -5.259730 0.000000 
0.000000 -5.259730 0.000000 
0.000000 -5.259730 0.000000 
-0.000000 -5.259730 0.000000 
-0.000000 -5.259730 0.000000 
-0.000000 -5.259730 0.000000 
-0.000000 -5.259730 0.000000 
-0.000000 -5.259730 0.000000 
-0.000000 -5.259730 0.000000 
0.000000 -5.259730 0.000000 
-0.000000 -5.259730 0.000000 
-0.000000 -5.259730 0.000000 
-0.000000 -5.259730 0.000000 
0.000000 -5.259730 0.000000 
-0.000000 -5.259730 0.000000 
0.000000 -5.259730 0.000000 
-0.000000 -5.259730 0.000000 
-0.000000 -5.259730 0.000000 
-0.000000 -5.259730 0.000000 
-0.000000 -5.259730 0.000000 
-0.000000 -5.259730 0.000000 
-0.000000 -5.259730 0.000000 
-0.000000 -5.259730 0.000000 
0.000000 -5.259730 0.000000 
0.000000 -5.259730 0.000000 
0.000000 -5.259730 0.000000 
0.000000 -5.259730 0.000000 
-0.000000 -5.259730 0.000000 
0.000000 -5.259730 0.000000 
-0.000000 -5.259730 0.000000 
0.000000 -5.259730 0.000000 
-0.000000 -5.259730 0.000000 
0.000000 -5.259730 0.000000 
-0.000000 -5.259730 0.000000 
0.000000 -5.259730 0.000000 
-0.000000 -5.259730 0.000000 
-0.000000 -5.259730 0.000000 
-0.000000 -5.259730 0.000000 
-0.000000 -5.259730 0.000000 
-0.000000 -5.259730 0.000000 
-0.000000 -5.259730 0.000000 
-0.000000 -5.259730 0.000000 
-0.000000 -5.259730 0.000000 
-0.000000 -5.259730 0.000000 
0.000000 -5.259730 0.000000 
-0.000000 -5.259730 0.000000 
0.000000 -5.259730 0.000000 
-0.000000 -5.259730 0.000000 
0.000000 -5.259730 0.000000 
0.000000 -5.259730 0.000000 
-0.000000 -5.259730 0.000000 
-0.000000 -5.259730 0.000000 
0.000000 -5.259730 0.000000 
0.000000 -5.259730 0.000000 
0.000000 -5.259730 0.000000 
0.000000 -5.259730 0.000000 
-0.000000 -5.259730 0.000000 
-0.000000 -5.259730 0.000000 
-0.000000 -5.259730 0.000000 
-0.000000 -5.259730 0.000000 
0.000000 -5.259730 0.000000 
0.000000 -5.259730 0.000000 
-0.000000 -5.259730 0.000000 
-0.000000 -5.259730 0.000000 
0.000000 -5.259730 0.000000 
0.000000 -5.259730 0.000000 
-0.000000 -5.259730 0.000000 
-0.000000 -5.259730 0.000000 
-0.000000 -5.259730 0.000000 
0.000000 -5.259730 0.000000 
0.000000 -5.259730 0.000000 
0.000000 -5.259730 0.000000 
-0.000000 -5.259730 0.000000 
-0.000000 -5.259730 0.000000 
-0.000000 -5.259730 0.000000 
0.000000 -5.259730 0.000000 
-0.000000 -5.259730 0.000000 
0.000000 -5.259730 0.000000 
-0.000000 -5.259730 0.000000 
0.000000 -5.259730 0.000000 
0.000000 -5.259730 0.000000 
0.000000 -5.259730 0.000000 
0.000000 -5.259730 0.000000 
0.000000 -5.259730 0.000000 
0.000000 -5.259730 0.000000 
0.000000 -5.259730 0.000000 
-0.000000 -5.259730 0.000000 
0.000000 -5.259730 0.000000 
-0.000000 -5.259730 0.000000 
-0.000000 -5.259730 0.000000 
-0.000000 -5.259730 0.000000 
-0.000000 -5.259730 0.000000 
0.000000 -5.259730 0.000000 
0.000000 -5.259730 0.000000 
0.000000 -5.259730 0.000000 
0.000000 -5.259730 0.000000 
0.000000 -5.259730 0.000000 
-0.000000 -5.259730 0.000000 
-0.000000 -5.259730 0.000000 
0.000000 -5.259730 0.000000 
0.000000 -5.259730 0.000000 
0.000000 -5.259730 0.000000 
0.000000 -5.259730 0.000000 
-0.000000 -5.259730 0.000000 
0.000000 -5.259730 0.000000 
-0.000000 -5.259730 0.000000 
0.000000 -5.259730 0.000000 
-0.000000 -5.259730 0.000000 
0.000000 -5.259730 0.000000 
0.000000 -5.259730 0.000000 
TENSORS STRESS float 
-0.000000 0.000000 0.000000 
0.000000 -0.000000 0.000000 
0.000000 0.000000 0.000000 

0.000000 0.000000 0.000000 
0.000000 0.000000 0.000000 
0.000000 0.000000 0.000000 

-0.000000 0.000000 0.000000 
0.000000 -0.000000 0.000000 
0.000000 0.000000 0.000000 

-0.000000 -0.000000 0.000000 
0.000000 -0.000000 0.000000 
0.000000 0.000000 0.000000 

-0.000000 0.000000 0.000000 
0.000000 -0.000000 0.000000 
0.000000 0.000000 0.000000 

0.000000 -0.000000 0.000000 
0.000000 0.000000 0.000000 
0.000000 0.000000 0.000000 

-0.000000 0.000000 0.000000 
0.000000 -0.000000 0.000000 
0.000000 0.000000 0.000000 

-0.000000 0.000000 0.000000 
0.000000 -0.000000 0.000000 
0.000000 0.000000 0.000000 

-0.000000 -0.000000 0.000000 
0.000000 -0.000000 0.000000 
0.000000 0.000000 0.000000 

0.000000 0.000000 0.000000 
0.000000 0.000000 0.000000 
0.000000 0.000000 0.000000 

-0.000000 0.000000 0.000000 
0.000000 -0.000000 0.000000 
0.000000 0.000000 0.000000 

-0.000000 0.000000 0.000000 
0.000000 0.000000 0.000000 
0.000000 0.000000 0.000000 

-0.000000 0.000000 0.000000 