# vtk DataFile Version 3.0 
vtk output 
ASCII 
DATASET UNSTRUCTURED_GRID 
POINTS 175 float 
-0.026061 -1.775585 0.000000 
-0.106992 -1.707529 0.000000 
-0.054870 -1.715762 0.000000 
-0.028809 -1.669878 0.000000 
-0.186430 -1.643454 0.000000 
-0.137056 -1.645980 0.000000 
-0.114311 -1.592333 0.000000 
-0.058186 -1.607998 0.000000 
-0.029377 -1.567821 0.000000 
-0.265318 -1.580298 0.000000 
-0.217198 -1.581098 0.000000 
-0.196633 -1.523801 0.000000 
-0.143120 -1.532510 0.000000 
-0.116563 -1.485242 0.000000 
-0.058945 -1.504887 0.000000 
-0.029568 -1.466767 0.000000 
-0.344206 -1.517142 0.000000 
-0.296791 -1.517135 0.000000 
-0.278030 -1.457192 0.000000 
-0.225992 -1.463059 0.000000 
-0.201664 -1.410942 0.000000 
-0.145749 -1.424416 0.000000 
-0.117890 -1.380073 0.000000 
-0.059328 -1.402779 0.000000 
-0.029759 -1.365713 0.000000 
-0.058559 -1.816336 0.000000 
-0.162226 -1.837178 0.000000 
-0.123292 -1.801561 0.000000 
-0.142917 -1.752577 0.000000 
-0.261851 -1.859335 0.000000 
-0.229092 -1.822308 0.000000 
-0.256854 -1.771076 0.000000 
-0.209613 -1.736963 0.000000 
-0.223062 -1.689390 0.000000 
-0.360414 -1.881635 0.000000 
-0.329787 -1.844512 0.000000 
-0.361761 -1.792710 0.000000 
-0.321587 -1.756301 0.000000 
-0.341985 -1.706067 0.000000 
-0.290702 -1.673268 0.000000 
-0.302189 -1.626533 0.000000 
-0.458977 -1.903935 0.000000 
-0.429420 -1.866860 0.000000 
-0.464588 -1.814819 0.000000 
-0.427556 -1.777791 0.000000 
-0.453135 -1.726276 0.000000 
-0.407738 -1.690961 0.000000 
-0.425037 -1.641533 0.000000 
-0.370772 -1.609904 0.000000 
-0.381315 -1.563676 0.000000 
-0.046960 -1.867151 0.000000 
-0.095301 -1.961197 0.000000 
-0.098873 -1.908550 0.000000 
-0.149405 -1.893352 0.000000 
-0.140093 -2.052901 0.000000 
-0.148617 -2.004203 0.000000 
-0.205981 -1.993965 0.000000 
-0.203197 -1.935762 0.000000 
-0.248777 -1.916615 0.000000 
-0.184111 -2.143864 0.000000 
-0.194039 -2.096773 0.000000 
-0.254475 -2.089474 0.000000 
-0.257893 -2.035364 0.000000 
-0.309886 -2.019992 0.000000 
-0.303554 -1.959446 0.000000 
-0.347255 -1.939289 0.000000 
-0.228129 -2.234828 0.000000 
-0.238687 -2.188604 0.000000 
-0.301302 -2.183652 0.000000 
-0.307162 -2.131613 0.000000 
-0.363386 -2.119492 0.000000 
-0.362692 -2.061980 0.000000 
-0.412122 -2.044687 0.000000 
-0.403017 -1.982541 0.000000 
-0.445733 -1.961962 0.000000 
-0.000000 -1.889766 0.000000 
0.043388 -1.986196 0.000000 
-0.000000 -1.956164 0.000000 
-0.043388 -1.986196 0.000000 
0.087158 -2.078393 0.000000 
0.043769 -2.054695 0.000000 
-0.000000 -2.093160 0.000000 
-0.043769 -2.054695 0.000000 
-0.087158 -2.078393 0.000000 
0.130831 -2.169523 0.000000 
0.087824 -2.147924 0.000000 
0.044436 -2.190624 0.000000 
-0.000000 -2.159559 0.000000 
-0.044436 -2.190624 0.000000 
-0.087824 -2.147924 0.000000 
-0.130831 -2.169523 0.000000 
0.174505 -2.260652 0.000000 
0.131782 -2.240086 0.000000 
0.088871 -2.285953 0.000000 
0.044532 -2.258089 0.000000 
-0.000000 -2.294489 0.000000 
-0.044532 -2.258089 0.000000 
-0.088871 -2.285953 0.000000 
-0.131782 -2.240086 0.000000 
-0.174505 -2.260652 0.000000 
0.046960 -1.867151 0.000000 
0.149405 -1.893352 0.000000 
0.098873 -1.908550 0.000000 
0.095301 -1.961197 0.000000 
0.248777 -1.916615 0.000000 
0.203197 -1.935762 0.000000 
0.205981 -1.993965 0.000000 
0.148617 -2.004203 0.000000 
0.140093 -2.052901 0.000000 
0.347255 -1.939289 0.000000 
0.303554 -1.959446 0.000000 
0.309886 -2.019992 0.000000 
0.257893 -2.035364 0.000000 
0.254475 -2.089474 0.000000 
0.194039 -2.096773 0.000000 
0.184111 -2.143864 0.000000 
0.445733 -1.961962 0.000000 
0.403017 -1.982541 0.000000 
0.412122 -2.044687 0.000000 
0.362692 -2.061980 0.000000 
0.363386 -2.119492 0.000000 
0.307162 -2.131613 0.000000 
0.301302 -2.183652 0.000000 
0.238687 -2.188604 0.000000 
0.228129 -2.234828 0.000000 
0.058559 -1.816336 0.000000 
0.142917 -1.752577 0.000000 
0.123292 -1.801561 0.000000 
0.162226 -1.837178 0.000000 
0.223062 -1.689390 0.000000 
0.209613 -1.736963 0.000000 
0.256854 -1.771076 0.000000 
0.229092 -1.822308 0.000000 
0.261851 -1.859335 0.000000 
0.302189 -1.626533 0.000000 
0.290702 -1.673268 0.000000 
0.341985 -1.706067 0.000000 
0.321587 -1.756301 0.000000 
0.361761 -1.792710 0.000000 
0.329787 -1.844512 0.000000 
0.360414 -1.881635 0.000000 
0.381315 -1.563676 0.000000 
0.370772 -1.609904 0.000000 
0.425037 -1.641533 0.000000 
0.407738 -1.690961 0.000000 
0.453135 -1.726276 0.000000 
0.427556 -1.777791 0.000000 
0.464588 -1.814819 0.000000 
0.429420 -1.866860 0.000000 
0.458977 -1.903935 0.000000 
0.026061 -1.775585 0.000000 
0.028809 -1.669878 0.000000 
0.054870 -1.715762 0.000000 
0.106992 -1.707529 0.000000 
0.029377 -1.567821 0.000000 
0.058186 -1.607998 0.000000 
0.114311 -1.592333 0.000000 
0.137056 -1.645980 0.000000 
0.186430 -1.643454 0.000000 
0.029568 -1.466767 0.000000 
0.058945 -1.504887 0.000000 
0.116563 -1.485242 0.000000 
0.143120 -1.532510 0.000000 
0.196633 -1.523801 0.000000 
0.217198 -1.581098 0.000000 
0.265318 -1.580298 0.000000 
0.029759 -1.365713 0.000000 
0.059328 -1.402779 0.000000 
0.117890 -1.380073 0.000000 
0.145749 -1.424416 0.000000 
0.201664 -1.410942 0.000000 
0.225992 -1.463059 0.000000 
0.278030 -1.457192 0.000000 
0.296791 -1.517135 0.000000 
0.344206 -1.517142 0.000000 
CELLS 175 350 
1 0 
1 1 
1 2 
1 3 
1 4 
1 5 
1 6 
1 7 
1 8 
1 9 
1 10 
1 11 
1 12 
1 13 
1 14 
1 15 
1 16 
1 17 
1 18 
1 19 
1 20 
1 21 
1 22 
1 23 
1 24 
1 25 
1 26 
1 27 
1 28 
1 29 
1 30 
1 31 
1 32 
1 33 
1 34 
1 35 
1 36 
1 37 
1 38 
1 39 
1 40 
1 41 
1 42 
1 43 
1 44 
1 45 
1 46 
1 47 
1 48 
1 49 
1 50 
1 51 
1 52 
1 53 
1 54 
1 55 
1 56 
1 57 
1 58 
1 59 
1 60 
1 61 
1 62 
1 63 
1 64 
1 65 
1 66 
1 67 
1 68 
1 69 
1 70 
1 71 
1 72 
1 73 
1 74 
1 75 
1 76 
1 77 
1 78 
1 79 
1 80 
1 81 
1 82 
1 83 
1 84 
1 85 
1 86 
1 87 
1 88 
1 89 
1 90 
1 91 
1 92 
1 93 
1 94 
1 95 
1 96 
1 97 
1 98 
1 99 
1 100 
1 101 
1 102 
1 103 
1 104 
1 105 
1 106 
1 107 
1 108 
1 109 
1 110 
1 111 
1 112 
1 113 
1 114 
1 115 
1 116 
1 117 
1 118 
1 119 
1 120 
1 121 
1 122 
1 123 
1 124 
1 125 
1 126 
1 127 
1 128 
1 129 
1 130 
1 131 
1 132 
1 133 
1 134 
1 135 
1 136 
1 137 
1 138 
1 139 
1 140 
1 141 
1 142 
1 143 
1 144 
1 145 
1 146 
1 147 
1 148 
1 149 
1 150 
1 151 
1 152 
1 153 
1 154 
1 155 
1 156 
1 157 
1 158 
1 159 
1 160 
1 161 
1 162 
1 163 
1 164 
1 165 
1 166 
1 167 
1 168 
1 169 
1 170 
1 171 
1 172 
1 173 
1 174 
CELL_TYPES 175 
1 
1 
1 
1 
1 
1 
1 
1 
1 
1 
1 
1 
1 
1 
1 
1 
1 
1 
1 
1 
1 
1 
1 
1 
1 
1 
1 
1 
1 
1 
1 
1 
1 
1 
1 
1 
1 
1 
1 
1 
1 
1 
1 
1 
1 
1 
1 
1 
1 
1 
1 
1 
1 
1 
1 
1 
1 
1 
1 
1 
1 
1 
1 
1 
1 
1 
1 
1 
1 
1 
1 
1 
1 
1 
1 
1 
1 
1 
1 
1 
1 
1 
1 
1 
1 
1 
1 
1 
1 
1 
1 
1 
1 
1 
1 
1 
1 
1 
1 
1 
1 
1 
1 
1 
1 
1 
1 
1 
1 
1 
1 
1 
1 
1 
1 
1 
1 
1 
1 
1 
1 
1 
1 
1 
1 
1 
1 
1 
1 
1 
1 
1 
1 
1 
1 
1 
1 
1 
1 
1 
1 
1 
1 
1 
1 
1 
1 
1 
1 
1 
1 
1 
1 
1 
1 
1 
1 
1 
1 
1 
1 
1 
1 
1 
1 
1 
1 
1 
1 
1 
1 
1 
1 
1 
1 
POINT_DATA 175 
VECTORS X_GC float 
-0.026061 -1.775585 0.000000 
-0.106992 -1.707529 0.000000 
-0.054870 -1.715762 0.000000 
-0.028809 -1.669878 0.000000 
-0.186430 -1.643454 0.000000 
-0.137056 -1.645980 0.000000 
-0.114311 -1.592333 0.000000 
-0.058186 -1.607998 0.000000 
-0.029377 -1.567821 0.000000 
-0.265318 -1.580298 0.000000 
-0.217198 -1.581098 0.000000 
-0.196633 -1.523801 0.000000 
-0.143120 -1.532510 0.000000 
-0.116563 -1.485242 0.000000 
-0.058945 -1.504887 0.000000 
-0.029568 -1.466767 0.000000 
-0.344206 -1.517142 0.000000 
-0.296791 -1.517135 0.000000 
-0.278030 -1.457192 0.000000 
-0.225992 -1.463059 0.000000 
-0.201664 -1.410942 0.000000 
-0.145749 -1.424416 0.000000 
-0.117890 -1.380073 0.000000 
-0.059328 -1.402779 0.000000 
-0.029759 -1.365713 0.000000 
-0.058559 -1.816336 0.000000 
-0.162226 -1.837178 0.000000 
-0.123292 -1.801561 0.000000 
-0.142917 -1.752577 0.000000 
-0.261851 -1.859335 0.000000 
-0.229092 -1.822308 0.000000 
-0.256854 -1.771076 0.000000 
-0.209613 -1.736963 0.000000 
-0.223062 -1.689390 0.000000 
-0.360414 -1.881635 0.000000 
-0.329787 -1.844512 0.000000 
-0.361761 -1.792710 0.000000 
-0.321587 -1.756301 0.000000 
-0.341985 -1.706067 0.000000 
-0.290702 -1.673268 0.000000 
-0.302189 -1.626533 0.000000 
-0.458977 -1.903935 0.000000 
-0.429420 -1.866860 0.000000 
-0.464588 -1.814819 0.000000 
-0.427556 -1.777791 0.000000 
-0.453135 -1.726276 0.000000 
-0.407738 -1.690961 0.000000 
-0.425037 -1.641533 0.000000 
-0.370772 -1.609904 0.000000 
-0.381315 -1.563676 0.000000 
-0.046960 -1.867151 0.000000 
-0.095301 -1.961197 0.000000 
-0.098873 -1.908550 0.000000 
-0.149405 -1.893352 0.000000 
-0.140093 -2.052901 0.000000 
-0.148617 -2.004203 0.000000 
-0.205981 -1.993965 0.000000 
-0.203197 -1.935762 0.000000 
-0.248777 -1.916615 0.000000 
-0.184111 -2.143864 0.000000 
-0.194039 -2.096773 0.000000 
-0.254475 -2.089474 0.000000 
-0.257893 -2.035364 0.000000 
-0.309886 -2.019992 0.000000 
-0.303554 -1.959446 0.000000 
-0.347255 -1.939289 0.000000 
-0.228129 -2.234828 0.000000 
-0.238687 -2.188604 0.000000 
-0.301302 -2.183652 0.000000 
-0.307162 -2.131613 0.000000 
-0.363386 -2.119492 0.000000 
-0.362692 -2.061980 0.000000 
-0.412122 -2.044687 0.000000 
-0.403017 -1.982541 0.000000 
-0.445733 -1.961962 0.000000 
-0.000000 -1.889766 0.000000 
0.043388 -1.986196 0.000000 
-0.000000 -1.956164 0.000000 
-0.043388 -1.986196 0.000000 
0.087158 -2.078393 0.000000 
0.043769 -2.054695 0.000000 
-0.000000 -2.093160 0.000000 
-0.043769 -2.054695 0.000000 
-0.087158 -2.078393 0.000000 
0.130831 -2.169523 0.000000 
0.087824 -2.147924 0.000000 
0.044436 -2.190624 0.000000 
-0.000000 -2.159559 0.000000 
-0.044436 -2.190624 0.000000 
-0.087824 -2.147924 0.000000 
-0.130831 -2.169523 0.000000 
0.174505 -2.260652 0.000000 
0.131782 -2.240086 0.000000 
0.088871 -2.285953 0.000000 
0.044532 -2.258089 0.000000 
-0.000000 -2.294489 0.000000 
-0.044532 -2.258089 0.000000 
-0.088871 -2.285953 0.000000 
-0.131782 -2.240086 0.000000 
-0.174505 -2.260652 0.000000 
0.046960 -1.867151 0.000000 
0.149405 -1.893352 0.000000 
0.098873 -1.908550 0.000000 
0.095301 -1.961197 0.000000 
0.248777 -1.916615 0.000000 
0.203197 -1.935762 0.000000 
0.205981 -1.993965 0.000000 
0.148617 -2.004203 0.000000 
0.140093 -2.052901 0.000000 
0.347255 -1.939289 0.000000 
0.303554 -1.959446 0.000000 
0.309886 -2.019992 0.000000 
0.257893 -2.035364 0.000000 
0.254475 -2.089474 0.000000 
0.194039 -2.096773 0.000000 
0.184111 -2.143864 0.000000 
0.445733 -1.961962 0.000000 
0.403017 -1.982541 0.000000 
0.412122 -2.044687 0.000000 
0.362692 -2.061980 0.000000 
0.363386 -2.119492 0.000000 
0.307162 -2.131613 0.000000 
0.301302 -2.183652 0.000000 
0.238687 -2.188604 0.000000 
0.228129 -2.234828 0.000000 
0.058559 -1.816336 0.000000 
0.142917 -1.752577 0.000000 
0.123292 -1.801561 0.000000 
0.162226 -1.837178 0.000000 
0.223062 -1.689390 0.000000 
0.209613 -1.736963 0.000000 
0.256854 -1.771076 0.000000 
0.229092 -1.822308 0.000000 
0.261851 -1.859335 0.000000 
0.302189 -1.626533 0.000000 
0.290702 -1.673268 0.000000 
0.341985 -1.706067 0.000000 
0.321587 -1.756301 0.000000 
0.361761 -1.792710 0.000000 
0.329787 -1.844512 0.000000 
0.360414 -1.881635 0.000000 
0.381315 -1.563676 0.000000 
0.370772 -1.609904 0.000000 
0.425037 -1.641533 0.000000 
0.407738 -1.690961 0.000000 
0.453135 -1.726276 0.000000 
0.427556 -1.777791 0.000000 
0.464588 -1.814819 0.000000 
0.429420 -1.866860 0.000000 
0.458977 -1.903935 0.000000 
0.026061 -1.775585 0.000000 
0.028809 -1.669878 0.000000 
0.054870 -1.715762 0.000000 
0.106992 -1.707529 0.000000 
0.029377 -1.567821 0.000000 
0.058186 -1.607998 0.000000 
0.114311 -1.592333 0.000000 
0.137056 -1.645980 0.000000 
0.186430 -1.643454 0.000000 
0.029568 -1.466767 0.000000 
0.058945 -1.504887 0.000000 
0.116563 -1.485242 0.000000 
0.143120 -1.532510 0.000000 
0.196633 -1.523801 0.000000 
0.217198 -1.581098 0.000000 
0.265318 -1.580298 0.000000 
0.029759 -1.365713 0.000000 
0.059328 -1.402779 0.000000 
0.117890 -1.380073 0.000000 
0.145749 -1.424416 0.000000 
0.201664 -1.410942 0.000000 
0.225992 -1.463059 0.000000 
0.278030 -1.457192 0.000000 
0.296791 -1.517135 0.000000 
0.344206 -1.517142 0.000000 
VECTORS X_EC float 
0.338794 0.470396 0.000000 
-0.609100 -0.448352 0.000000 
0.713312 -0.337211 0.000000 
0.374519 -0.956641 0.000000 
0.423588 0.686629 0.000000 
-0.218274 0.720732 0.000000 
-0.513962 -0.003507 0.000000 
0.756418 0.207979 0.000000 
0.381900 -0.334413 0.000000 
-0.550868 -0.165975 0.000000 
0.823577 -0.155179 0.000000 
0.556234 -0.928683 0.000000 
-0.139443 -0.811114 0.000000 
-0.484677 0.550761 0.000000 
0.766286 0.815976 0.000000 
0.384386 0.301356 0.000000 
0.474677 0.981422 0.000000 
-0.141715 0.981326 0.000000 
-0.385608 0.172098 0.000000 
0.937896 0.251293 0.000000 
0.621631 -0.452287 0.000000 
-0.105264 -0.270388 0.000000 
-0.467428 -0.869014 0.000000 
0.771260 -0.562485 0.000000 
0.386873 0.937125 0.000000 
0.761262 -0.979469 0.000000 
0.108942 -0.698093 0.000000 
-0.397202 0.821068 0.000000 
-0.142083 0.159793 0.000000 
-0.595936 -0.398982 0.000000 
0.978194 -0.898848 0.000000 
-0.660903 0.409527 0.000000 
0.724964 -0.050993 0.000000 
0.899809 -0.693242 0.000000 
0.685384 -0.097930 0.000000 
0.287229 -0.599088 0.000000 
0.702895 0.701583 0.000000 
0.180633 0.210065 0.000000 
0.445811 -0.468095 0.000000 
-0.220880 -0.910881 0.000000 
-0.071546 0.458193 0.000000 
-0.033296 0.203122 0.000000 
-0.417537 -0.297387 0.000000 
0.039645 -0.999950 0.000000 
-0.441768 0.500179 0.000000 
-0.109248 -0.195272 0.000000 
-0.699407 -0.672027 0.000000 
-0.474522 0.660694 0.000000 
0.820030 0.233700 0.000000 
0.957100 -0.390371 0.000000 
0.610485 -0.293463 0.000000 
-0.761092 0.976157 0.000000 
-0.714655 0.265419 0.000000 
-0.057734 0.060252 0.000000 
-0.178789 0.214161 0.000000 
-0.067979 -0.443265 0.000000 
0.677748 -0.581469 0.000000 
0.641556 0.632786 0.000000 
-0.765897 0.374307 0.000000 
0.393446 -0.557830 0.000000 
0.522510 0.806440 0.000000 
-0.691820 0.707896 0.000000 
-0.647393 -0.022587 0.000000 
0.028512 -0.230114 0.000000 
-0.053800 0.952526 0.000000 
0.514316 0.680395 0.000000 
0.965681 0.670179 0.000000 
-0.897068 0.046150 0.000000 
-0.083078 -0.020703 0.000000 
-0.006893 -0.723227 0.000000 
0.724017 -0.886860 0.000000 
0.714996 0.336736 0.000000 
-0.642413 0.103279 0.000000 
-0.760780 -0.735702 0.000000 
-0.205471 0.986483 0.000000 
0.000000 0.011839 0.000000 
-0.564049 -0.686348 0.000000 
0.000000 0.908216 0.000000 
0.564049 -0.686348 0.000000 
0.866949 0.558307 0.000000 
-0.569003 0.238376 0.000000 
0.000000 0.757664 0.000000 
0.569003 0.238376 0.000000 
-0.866949 0.558307 0.000000 
0.299194 -0.211443 0.000000 
0.858290 -0.503027 0.000000 
-0.577662 0.073419 0.000000 
0.000000 -0.345959 0.000000 
0.577662 0.073419 0.000000 
-0.858290 -0.503027 0.000000 
-0.299194 -0.211443 0.000000 
-0.268560 -0.981193 0.000000 
0.286830 0.741165 0.000000 
0.844677 -0.639636 0.000000 
-0.578910 0.984201 0.000000 
0.000000 -0.524395 0.000000 
0.578910 0.984201 0.000000 
-0.844677 -0.639636 0.000000 
-0.286830 0.741165 0.000000 
0.268560 -0.981193 0.000000 
-0.610485 -0.293463 0.000000 
0.057734 0.060252 0.000000 
0.714655 0.265419 0.000000 
0.761092 0.976157 0.000000 
0.765897 0.374307 0.000000 
-0.641556 0.632786 0.000000 
-0.677748 -0.581469 0.000000 
0.067979 -0.443265 0.000000 
0.178789 0.214161 0.000000 
-0.514316 0.680395 0.000000 
0.053800 0.952526 0.000000 
-0.028512 -0.230114 0.000000 
0.647393 -0.022587 0.000000 
0.691820 0.707896 0.000000 
-0.522510 0.806440 0.000000 
-0.393446 -0.557830 0.000000 
0.205471 0.986483 0.000000 
0.760780 -0.735702 0.000000 
0.642413 0.103279 0.000000 
-0.714996 0.336736 0.000000 
-0.724017 -0.886860 0.000000 
0.006894 -0.723227 0.000000 
0.083078 -0.020703 0.000000 
0.897068 0.046150 0.000000 
-0.965681 0.670179 0.000000 
-0.761262 -0.979469 0.000000 
0.142083 0.159793 0.000000 
0.397202 0.821068 0.000000 
-0.108942 -0.698093 0.000000 
-0.899809 -0.693242 0.000000 
-0.724964 -0.050993 0.000000 
0.660903 0.409527 0.000000 
-0.978194 -0.898848 0.000000 
0.595936 -0.398982 0.000000 
0.071546 0.458194 0.000000 
0.220880 -0.910881 0.000000 
-0.445811 -0.468095 0.000000 
-0.180633 0.210065 0.000000 
-0.702895 0.701583 0.000000 
-0.287229 -0.599088 0.000000 
-0.685384 -0.097930 0.000000 
-0.957100 -0.390371 0.000000 
-0.820030 0.233700 0.000000 
0.474522 0.660694 0.000000 
0.699407 -0.672027 0.000000 
0.109248 -0.195272 0.000000 
0.441768 0.500179 0.000000 
-0.039645 -0.999950 0.000000 
0.417537 -0.297387 0.000000 
0.033296 0.203122 0.000000 
-0.338794 0.470396 0.000000 
-0.374519 -0.956641 0.000000 
-0.713312 -0.337211 0.000000 
0.609100 -0.448352 0.000000 
-0.381900 -0.334413 0.000000 
-0.756418 0.207979 0.000000 
0.513962 -0.003507 0.000000 
0.218274 0.720732 0.000000 
-0.423588 0.686629 0.000000 
-0.384386 0.301356 0.000000 
-0.766286 0.815976 0.000000 
0.484677 0.550761 0.000000 
0.139443 -0.811114 0.000000 
-0.556234 -0.928683 0.000000 
-0.823577 -0.155179 0.000000 
0.550868 -0.165975 0.000000 
-0.386873 0.937125 0.000000 
-0.771260 -0.562485 0.000000 
0.467428 -0.869014 0.000000 
0.105264 -0.270388 0.000000 
-0.621631 -0.452287 0.000000 
-0.937896 0.251293 0.000000 
0.385608 0.172098 0.000000 
0.141715 0.981326 0.000000 
-0.474677 0.981422 0.000000 
CELL_DATA 175 
SCALARS MASS float 
LOOKUP_TABLE default 
0.078183 
0.086427 
0.094672 
0.086427 
0.088131 
0.092111 
0.085854 
0.092111 
0.088131 
0.088705 
0.091000 
0.086983 
0.091556 
0.086983 
0.091000 
0.088705 
0.089278 
0.091574 
0.089278 
0.092722 
0.089278 
0.092722 
0.089278 
0.091574 
0.089278 
0.078183 
0.086427 
0.094672 
0.086427 
0.088131 
0.092111 
0.085854 
0.092111 
0.088131 
0.088705 
0.091000 
0.086983 
0.091556 
0.086983 
0.091000 
0.088705 
0.089278 
0.091574 
0.089278 
0.092722 
0.089278 
0.092722 
0.089278 
0.091574 
0.089278 
0.078183 
0.086427 
0.094672 
0.086427 
0.088131 
0.092111 
0.085854 
0.092111 
0.088131 
0.088705 
0.091000 
0.086983 
0.091556 
0.086983 
0.091000 
0.088705 
0.089278 
0.091574 
0.089278 
0.092722 
0.089278 
0.092722 
0.089278 
0.091574 
0.089278 
0.078183 
0.086427 
0.094672 
0.086427 
0.088131 
0.092111 
0.085854 
0.092111 
0.088131 
0.088705 
0.091000 
0.086983 
0.091556 
0.086983 
0.091000 
0.088705 
0.089278 
0.091574 
0.089278 
0.092722 
0.089278 
0.092722 
0.089278 
0.091574 
0.089278 
0.078183 
0.086427 
0.094672 
0.086427 
0.088131 
0.092111 
0.085854 
0.092111 
0.088131 
0.088705 
0.091000 
0.086983 
0.091556 
0.086983 
0.091000 
0.088705 
0.089278 
0.091574 
0.089278 
0.092722 
0.089278 
0.092722 
0.089278 
0.091574 
0.089278 
0.078183 
0.086427 
0.094672 
0.086427 
0.088131 
0.092111 
0.085854 
0.092111 
0.088131 
0.088705 
0.091000 
0.086983 
0.091556 
0.086983 
0.091000 
0.088705 
0.089278 
0.091574 
0.089278 
0.092722 
0.089278 
0.092722 
0.089278 
0.091574 
0.089278 
0.078183 
0.086427 
0.094672 
0.086427 
0.088131 
0.092111 
0.085854 
0.092111 
0.088131 
0.088705 
0.091000 
0.086983 
0.091556 
0.086983 
0.091000 
0.088705 
0.089278 
0.091574 
0.089278 
0.092722 
0.089278 
0.092722 
0.089278 
0.091574 
0.089278 
SCALARS MASS float 
LOOKUP_TABLE default 
0.078183 
0.086427 
0.094672 
0.086427 
0.088131 
0.092111 
0.085854 
0.092111 
0.088131 
0.088705 
0.091000 
0.086983 
0.091556 
0.086983 
0.091000 
0.088705 
0.089278 
0.091574 
0.089278 
0.092722 
0.089278 
0.092722 
0.089278 
0.091574 
0.089278 
0.078183 
0.086427 
0.094672 
0.086427 
0.088131 
0.092111 
0.085854 
0.092111 
0.088131 
0.088705 
0.091000 
0.086983 
0.091556 
0.086983 
0.091000 
0.088705 
0.089278 
0.091574 
0.089278 
0.092722 
0.089278 
0.092722 
0.089278 
0.091574 
0.089278 
0.078183 
0.086427 
0.094672 
0.086427 
0.088131 
0.092111 
0.085854 
0.092111 
0.088131 
0.088705 
0.091000 
0.086983 
0.091556 
0.086983 
0.091000 
0.088705 
0.089278 
0.091574 
0.089278 
0.092722 
0.089278 
0.092722 
0.089278 
0.091574 
0.089278 
0.078183 
0.086427 
0.094672 
0.086427 
0.088131 
0.092111 
0.085854 
0.092111 
0.088131 
0.088705 
0.091000 
0.086983 
0.091556 
0.086983 
0.091000 
0.088705 
0.089278 
0.091574 
0.089278 
0.092722 
0.089278 
0.092722 
0.089278 
0.091574 
0.089278 
0.078183 
0.086427 
0.094672 
0.086427 
0.088131 
0.092111 
0.085854 
0.092111 
0.088131 
0.088705 
0.091000 
0.086983 
0.091556 
0.086983 
0.091000 
0.088705 
0.089278 
0.091574 
0.089278 
0.092722 
0.089278 
0.092722 
0.089278 
0.091574 
0.089278 
0.078183 
0.086427 
0.094672 
0.086427 
0.088131 
0.092111 
0.085854 
0.092111 
0.088131 
0.088705 
0.091000 
0.086983 
0.091556 
0.086983 
0.091000 
0.088705 
0.089278 
0.091574 
0.089278 
0.092722 
0.089278 
0.092722 
0.089278 
0.091574 
0.089278 
0.078183 
0.086427 
0.094672 
0.086427 
0.088131 
0.092111 
0.085854 
0.092111 
0.088131 
0.088705 
0.091000 
0.086983 
0.091556 
0.086983 
0.091000 
0.088705 
0.089278 
0.091574 
0.089278 
0.092722 
0.089278 
0.092722 
0.089278 
0.091574 
0.089278 
SCALARS DENSITY float 
LOOKUP_TABLE default 
20.000000 
20.000000 
20.000000 
20.000000 
20.000000 
20.000000 
20.000000 
20.000000 
20.000000 
20.000000 
20.000000 
20.000000 
20.000000 
20.000000 
20.000000 
20.000000 
20.000000 
20.000000 
20.000000 
20.000000 
20.000000 
20.000000 
20.000000 
20.000000 
20.000000 
20.000000 
20.000000 
20.000000 
20.000000 
20.000000 
20.000000 
20.000000 
20.000000 
20.000000 
20.000000 
20.000000 
20.000000 
20.000000 
20.000000 
20.000000 
20.000000 
20.000000 
20.000000 
20.000000 
20.000000 
20.000000 
20.000000 
20.000000 
20.000000 
20.000000 
20.000000 
20.000000 
20.000000 
20.000000 
20.000000 
20.000000 
20.000000 
20.000000 
20.000000 
20.000000 
20.000000 
20.000000 
20.000000 
20.000000 
20.000000 
20.000000 
20.000000 
20.000000 
20.000000 
20.000000 
20.000000 
20.000000 
20.000000 
20.000000 
20.000000 
20.000000 
20.000000 
20.000000 
20.000000 
20.000000 
20.000000 
20.000000 
20.000000 
20.000000 
20.000000 
20.000000 
20.000000 
20.000000 
20.000000 
20.000000 
20.000000 
20.000000 
20.000000 
20.000000 
20.000000 
20.000000 
20.000000 
20.000000 
20.000000 
20.000000 
20.000000 
20.000000 
20.000000 
20.000000 
20.000000 
20.000000 
20.000000 
20.000000 
20.000000 
20.000000 
20.000000 
20.000000 
20.000000 
20.000000 
20.000000 
20.000000 
20.000000 
20.000000 
20.000000 
20.000000 
20.000000 
20.000000 
20.000000 
20.000000 
20.000000 
20.000000 
20.000000 
20.000000 
20.000000 
20.000000 
20.000000 
20.000000 
20.000000 
20.000000 
20.000000 
20.000000 
20.000000 
20.000000 
20.000000 
20.000000 
20.000000 
20.000000 
20.000000 
20.000000 
20.000000 
20.000000 
20.000000 
20.000000 
20.000000 
20.000000 
20.000000 
20.000000 
20.000000 
20.000000 
20.000000 
20.000000 
20.000000 
20.000000 
20.000000 
20.000000 
20.000000 
20.000000 
20.000000 
20.000000 
20.000000 
20.000000 
20.000000 
20.000000 
20.000000 
20.000000 
20.000000 
20.000000 
20.000000 
20.000000 
20.000000 
SCALARS ELEM_i float 
LOOKUP_TABLE default 
170 
197 
170 
170 
198 
198 
198 
171 
171 
225 
198 
198 
198 
199 
172 
172 
226 
226 
226 
199 
199 
199 
199 
172 
173 
169 
196 
197 
197 
223 
196 
224 
197 
197 
223 
223 
224 
224 
224 
224 
225 
250 
250 
250 
251 
251 
251 
252 
225 
225 
169 
196 
196 
196 
195 
195 
195 
196 
223 
194 
195 
222 
222 
222 
223 
223 
194 
221 
221 
221 
221 
222 
249 
249 
250 
169 
168 
169 
168 
141 
168 
168 
168 
195 
140 
140 
167 
167 
167 
194 
194 
139 
140 
139 
167 
166 
167 
193 
194 
193 
169 
142 
142 
142 
115 
142 
141 
141 
141 
115 
115 
114 
114 
114 
141 
140 
88 
87 
87 
114 
113 
113 
113 
113 
140 
169 
143 
143 
142 
143 
143 
116 
142 
115 
117 
116 
116 
116 
116 
115 
115 
117 
117 
90 
89 
89 
89 
88 
88 
88 
170 
170 
170 
143 
171 
171 
144 
144 
144 
172 
172 
145 
144 
144 
144 
117 
173 
172 
145 
145 
145 
145 
118 
118 
118 
VECTORS VELOCITY float 
0.000000 -5.991163 0.000000 
0.000000 -5.991163 0.000000 
0.000000 -5.991163 0.000000 
0.000000 -5.991163 0.000000 
0.000000 -5.991163 0.000000 
0.000000 -5.991163 0.000000 
-0.000000 -5.991163 0.000000 
-0.000000 -5.991163 0.000000 
-0.000000 -5.991163 0.000000 
0.000000 -5.991163 0.000000 
0.000000 -5.991163 0.000000 
0.000000 -5.991163 0.000000 
-0.000000 -5.991163 0.000000 
-0.000000 -5.991163 0.000000 
-0.000000 -5.991163 0.000000 
-0.000000 -5.991163 0.000000 
-0.000000 -5.991163 0.000000 
-0.000000 -5.991163 0.000000 
0.000000 -5.991163 0.000000 
0.000000 -5.991163 0.000000 
0.000000 -5.991163 0.000000 
0.000000 -5.991163 0.000000 
0.000000 -5.991163 0.000000 
-0.000000 -5.991163 0.000000 
0.000000 -5.991163 0.000000 
0.000000 -5.991163 0.000000 
-0.000000 -5.991163 0.000000 
0.000000 -5.991163 0.000000 
0.000000 -5.991163 0.000000 
-0.000000 -5.991163 0.000000 
0.000000 -5.991163 0.000000 
0.000000 -5.991163 0.000000 
0.000000 -5.991163 0.000000 
0.000000 -5.991163 0.000000 
-0.000000 -5.991163 0.000000 
-0.000000 -5.991163 0.000000 
-0.000000 -5.991163 0.000000 
0.000000 -5.991163 0.000000 
-0.000000 -5.991163 0.000000 
0.000000 -5.991163 0.000000 
0.000000 -5.991163 0.000000 
0.000000 -5.991163 0.000000 
0.000000 -5.991163 0.000000 
0.000000 -5.991163 0.000000 
-0.000000 -5.991163 0.000000 
0.000000 -5.991163 0.000000 
0.000000 -5.991163 0.000000 
0.000000 -5.991163 0.000000 
0.000000 -5.991163 0.000000 
0.000000 -5.991163 0.000000 
0.000000 -5.991163 0.000000 
-0.000000 -5.991163 0.000000 
0.000000 -5.991163 0.000000 
0.000000 -5.991163 0.000000 
-0.000000 -5.991163 0.000000 
-0.000000 -5.991163 0.000000 
0.000000 -5.991163 0.000000 
0.000000 -5.991163 0.000000 
-0.000000 -5.991163 0.000000 
-0.000000 -5.991163 0.000000 
-0.000000 -5.991163 0.000000 
-0.000000 -5.991163 0.000000 
0.000000 -5.991163 0.000000 
0.000000 -5.991163 0.000000 
-0.000000 -5.991163 0.000000 
-0.000000 -5.991163 0.000000 
-0.000000 -5.991163 0.000000 
-0.000000 -5.991163 0.000000 
0.000000 -5.991163 0.000000 
-0.000000 -5.991163 0.000000 
-0.000000 -5.991163 0.000000 
-0.000000 -5.991163 0.000000 
0.000000 -5.991163 0.000000 
-0.000000 -5.991163 0.000000 
0.000000 -5.991163 0.000000 
0.000000 -5.991163 0.000000 
0.000000 -5.991163 0.000000 
-0.000000 -5.991163 0.000000 
-0.000000 -5.991163 0.000000 
-0.000000 -5.991163 0.000000 
-0.000000 -5.991163 0.000000 
-0.000000 -5.991163 0.000000 
-0.000000 -5.991163 0.000000 
-0.000000 -5.991163 0.000000 
0.000000 -5.991163 0.000000 
0.000000 -5.991163 0.000000 
0.000000 -5.991163 0.000000 
0.000000 -5.991163 0.000000 
0.000000 -5.991163 0.000000 
0.000000 -5.991163 0.000000 
-0.000000 -5.991163 0.000000 
-0.000000 -5.991163 0.000000 
-0.000000 -5.991163 0.000000 
0.000000 -5.991163 0.000000 
-0.000000 -5.991163 0.000000 
-0.000000 -5.991163 0.000000 
0.000000 -5.991163 0.000000 
-0.000000 -5.991163 0.000000 
-0.000000 -5.991163 0.000000 
-0.000000 -5.991163 0.000000 
0.000000 -5.991163 0.000000 
-0.000000 -5.991163 0.000000 
0.000000 -5.991163 0.000000 
0.000000 -5.991163 0.000000 
-0.000000 -5.991163 0.000000 
-0.000000 -5.991163 0.000000 
0.000000 -5.991163 0.000000 
0.000000 -5.991163 0.000000 
0.000000 -5.991163 0.000000 
-0.000000 -5.991163 0.000000 
-0.000000 -5.991163 0.000000 
-0.000000 -5.991163 0.000000 
0.000000 -5.991163 0.000000 
0.000000 -5.991163 0.000000 
0.000000 -5.991163 0.000000 
0.000000 -5.991163 0.000000 
-0.000000 -5.991163 0.000000 
-0.000000 -5.991163 0.000000 
-0.000000 -5.991163 0.000000 
0.000000 -5.991163 0.000000 
0.000000 -5.991163 0.000000 
-0.000000 -5.991163 0.000000 
0.000000 -5.991163 0.000000 
0.000000 -5.991163 0.000000 
-0.000000 -5.991163 0.000000 
-0.000000 -5.991163 0.000000 
0.000000 -5.991163 0.000000 
-0.000000 -5.991163 0.000000 
-0.000000 -5.991163 0.000000 
-0.000000 -5.991163 0.000000 
-0.000000 -5.991163 0.000000 
-0.000000 -5.991163 0.000000 
-0.000000 -5.991163 0.000000 
-0.000000 -5.991163 0.000000 
-0.000000 -5.991163 0.000000 
-0.000000 -5.991163 0.000000 
-0.000000 -5.991163 0.000000 
-0.000000 -5.991163 0.000000 
0.000000 -5.991163 0.000000 
0.000000 -5.991163 0.000000 
0.000000 -5.991163 0.000000 
-0.000000 -5.991163 0.000000 
0.000000 -5.991163 0.000000 
-0.000000 -5.991163 0.000000 
0.000000 -5.991163 0.000000 
-0.000000 -5.991163 0.000000 
-0.000000 -5.991163 0.000000 
-0.000000 -5.991163 0.000000 
0.000000 -5.991163 0.000000 
0.000000 -5.991163 0.000000 
0.000000 -5.991163 0.000000 
0.000000 -5.991163 0.000000 
0.000000 -5.991163 0.000000 
-0.000000 -5.991163 0.000000 
0.000000 -5.991163 0.000000 
0.000000 -5.991163 0.000000 
0.000000 -5.991163 0.000000 
-0.000000 -5.991163 0.000000 
-0.000000 -5.991163 0.000000 
0.000000 -5.991163 0.000000 
0.000000 -5.991163 0.000000 
0.000000 -5.991163 0.000000 
0.000000 -5.991163 0.000000 
-0.000000 -5.991163 0.000000 
0.000000 -5.991163 0.000000 
0.000000 -5.991163 0.000000 
0.000000 -5.991163 0.000000 
-0.000000 -5.991163 0.000000 
-0.000000 -5.991163 0.000000 
-0.000000 -5.991163 0.000000 
0.000000 -5.991163 0.000000 
-0.000000 -5.991163 0.000000 
-0.000000 -5.991163 0.000000 
-0.000000 -5.991163 0.000000 
-0.000000 -5.991163 0.000000 
TENSORS STRESS float 
-0.000000 0.000000 0.000000 
0.000000 0.000000 0.000000 
0.000000 0.000000 0.000000 

-0.000000 0.000000 0.000000 
0.000000 0.000000 0.000000 
0.000000 0.000000 0.000000 

-0.000000 0.000000 0.000000 
0.000000 -0.000000 0.000000 
0.000000 0.000000 0.000000 

-0.000000 -0.000000 0.000000 
0.000000 -0.000000 0.000000 
0.000000 0.000000 0.000000 

-0.000000 0.000000 0.000000 
0.000000 -0.000000 0.000000 
0.000000 0.000000 0.000000 

-0.000000 -0.000000 0.000000 
0.000000 0.000000 0.000000 
0.000000 0.000000 0.000000 

0.000000 0.000000 0.000000 
0.000000 0.000000 0.000000 
0.000000 0.000000 0.000000 

0.000000 0.000000 0.000000 
0.000000 0.000000 0.000000 
0.000000 0.000000 0.000000 

-0.000000 0.000000 0.000000 
0.000000 0.000000 0.000000 
0.000000 0.000000 0.000000 

0.000000 0.000000 0.000000 
0.000000 0.000000 0.000000 
0.000000 0.000000 0.000000 

-0.000000 0.000000 0.000000 
0.000000 -0.000000 0.000000 
0.000000 0.000000 0.000000 

-0.000000 0.000000 0.000000 
0.000000 0.000000 0.000000 
0.000000 0.000000 0.000000 

-0.000000 0.000000 0.000000 
0.000000 0.000000 0.000000 