# vtk DataFile Version 3.0 
vtk output 
ASCII 
DATASET UNSTRUCTURED_GRID 
POINTS 175 float 
-0.026061 -2.158004 0.000000 
-0.106992 -2.089948 0.000000 
-0.054870 -2.098181 0.000000 
-0.028809 -2.052297 0.000000 
-0.186430 -2.025873 0.000000 
-0.137056 -2.028399 0.000000 
-0.114311 -1.974751 0.000000 
-0.058186 -1.990417 0.000000 
-0.029377 -1.950240 0.000000 
-0.265318 -1.962717 0.000000 
-0.217198 -1.963516 0.000000 
-0.196633 -1.906220 0.000000 
-0.143120 -1.914929 0.000000 
-0.116563 -1.867660 0.000000 
-0.058945 -1.887306 0.000000 
-0.029568 -1.849186 0.000000 
-0.344206 -1.899561 0.000000 
-0.296791 -1.899554 0.000000 
-0.278030 -1.839611 0.000000 
-0.225992 -1.845477 0.000000 
-0.201664 -1.793360 0.000000 
-0.145749 -1.806834 0.000000 
-0.117890 -1.762492 0.000000 
-0.059328 -1.785197 0.000000 
-0.029759 -1.748132 0.000000 
-0.058559 -2.198754 0.000000 
-0.162226 -2.219597 0.000000 
-0.123292 -2.183979 0.000000 
-0.142917 -2.134996 0.000000 
-0.261851 -2.241753 0.000000 
-0.229092 -2.204726 0.000000 
-0.256854 -2.153495 0.000000 
-0.209613 -2.119382 0.000000 
-0.223062 -2.071808 0.000000 
-0.360414 -2.264053 0.000000 
-0.329787 -2.226931 0.000000 
-0.361761 -2.175128 0.000000 
-0.321587 -2.138720 0.000000 
-0.341985 -2.088486 0.000000 
-0.290702 -2.055687 0.000000 
-0.302189 -2.008951 0.000000 
-0.458977 -2.286354 0.000000 
-0.429420 -2.249279 0.000000 
-0.464588 -2.197237 0.000000 
-0.427556 -2.160210 0.000000 
-0.453135 -2.108695 0.000000 
-0.407738 -2.073380 0.000000 
-0.425037 -2.023951 0.000000 
-0.370772 -1.992322 0.000000 
-0.381315 -1.946095 0.000000 
-0.046960 -2.249570 0.000000 
-0.095301 -2.343615 0.000000 
-0.098873 -2.290968 0.000000 
-0.149405 -2.275771 0.000000 
-0.140093 -2.435319 0.000000 
-0.148617 -2.386621 0.000000 
-0.205981 -2.376384 0.000000 
-0.203197 -2.318181 0.000000 
-0.248777 -2.299034 0.000000 
-0.184111 -2.526283 0.000000 
-0.194039 -2.479192 0.000000 
-0.254475 -2.471892 0.000000 
-0.257893 -2.417783 0.000000 
-0.309886 -2.402410 0.000000 
-0.303554 -2.341865 0.000000 
-0.347255 -2.321707 0.000000 
-0.228129 -2.617247 0.000000 
-0.238687 -2.571022 0.000000 
-0.301302 -2.566070 0.000000 
-0.307162 -2.514031 0.000000 
-0.363386 -2.501910 0.000000 
-0.362692 -2.444399 0.000000 
-0.412122 -2.427106 0.000000 
-0.403017 -2.364959 0.000000 
-0.445733 -2.344380 0.000000 
-0.000000 -2.272184 0.000000 
0.043388 -2.368615 0.000000 
-0.000000 -2.338583 0.000000 
-0.043388 -2.368615 0.000000 
0.087158 -2.460812 0.000000 
0.043769 -2.437113 0.000000 
-0.000000 -2.475579 0.000000 
-0.043769 -2.437113 0.000000 
-0.087158 -2.460812 0.000000 
0.130831 -2.551941 0.000000 
0.087824 -2.530343 0.000000 
0.044436 -2.573042 0.000000 
-0.000000 -2.541977 0.000000 
-0.044436 -2.573042 0.000000 
-0.087824 -2.530343 0.000000 
-0.130831 -2.551941 0.000000 
0.174505 -2.643071 0.000000 
0.131782 -2.622505 0.000000 
0.088871 -2.668371 0.000000 
0.044532 -2.640508 0.000000 
-0.000000 -2.676908 0.000000 
-0.044532 -2.640508 0.000000 
-0.088871 -2.668371 0.000000 
-0.131782 -2.622505 0.000000 
-0.174505 -2.643071 0.000000 
0.046960 -2.249570 0.000000 
0.149405 -2.275771 0.000000 
0.098873 -2.290968 0.000000 
0.095301 -2.343615 0.000000 
0.248777 -2.299034 0.000000 
0.203197 -2.318181 0.000000 
0.205981 -2.376384 0.000000 
0.148617 -2.386621 0.000000 
0.140093 -2.435319 0.000000 
0.347255 -2.321707 0.000000 
0.303554 -2.341865 0.000000 
0.309886 -2.402410 0.000000 
0.257893 -2.417783 0.000000 
0.254475 -2.471892 0.000000 
0.194039 -2.479192 0.000000 
0.184111 -2.526283 0.000000 
0.445733 -2.344380 0.000000 
0.403017 -2.364959 0.000000 
0.412122 -2.427106 0.000000 
0.362692 -2.444399 0.000000 
0.363386 -2.501910 0.000000 
0.307162 -2.514031 0.000000 
0.301302 -2.566070 0.000000 
0.238687 -2.571022 0.000000 
0.228129 -2.617247 0.000000 
0.058559 -2.198754 0.000000 
0.142917 -2.134996 0.000000 
0.123292 -2.183979 0.000000 
0.162226 -2.219597 0.000000 
0.223062 -2.071808 0.000000 
0.209613 -2.119382 0.000000 
0.256854 -2.153495 0.000000 
0.229092 -2.204726 0.000000 
0.261851 -2.241753 0.000000 
0.302189 -2.008951 0.000000 
0.290702 -2.055687 0.000000 
0.341985 -2.088486 0.000000 
0.321587 -2.138720 0.000000 
0.361761 -2.175128 0.000000 
0.329787 -2.226931 0.000000 
0.360414 -2.264053 0.000000 
0.381315 -1.946095 0.000000 
0.370772 -1.992322 0.000000 
0.425037 -2.023951 0.000000 
0.407738 -2.073380 0.000000 
0.453135 -2.108695 0.000000 
0.427556 -2.160210 0.000000 
0.464588 -2.197237 0.000000 
0.429420 -2.249279 0.000000 
0.458977 -2.286354 0.000000 
0.026061 -2.158004 0.000000 
0.028809 -2.052297 0.000000 
0.054870 -2.098181 0.000000 
0.106992 -2.089948 0.000000 
0.029377 -1.950240 0.000000 
0.058186 -1.990417 0.000000 
0.114311 -1.974751 0.000000 
0.137056 -2.028399 0.000000 
0.186430 -2.025873 0.000000 
0.029568 -1.849186 0.000000 
0.058945 -1.887306 0.000000 
0.116563 -1.867660 0.000000 
0.143120 -1.914929 0.000000 
0.196633 -1.906220 0.000000 
0.217198 -1.963516 0.000000 
0.265318 -1.962717 0.000000 
0.029759 -1.748132 0.000000 
0.059328 -1.785197 0.000000 
0.117890 -1.762492 0.000000 
0.145749 -1.806834 0.000000 
0.201664 -1.793360 0.000000 
0.225992 -1.845477 0.000000 
0.278030 -1.839611 0.000000 
0.296791 -1.899554 0.000000 
0.344206 -1.899561 0.000000 
CELLS 175 350 
1 0 
1 1 
1 2 
1 3 
1 4 
1 5 
1 6 
1 7 
1 8 
1 9 
1 10 
1 11 
1 12 
1 13 
1 14 
1 15 
1 16 
1 17 
1 18 
1 19 
1 20 
1 21 
1 22 
1 23 
1 24 
1 25 
1 26 
1 27 
1 28 
1 29 
1 30 
1 31 
1 32 
1 33 
1 34 
1 35 
1 36 
1 37 
1 38 
1 39 
1 40 
1 41 
1 42 
1 43 
1 44 
1 45 
1 46 
1 47 
1 48 
1 49 
1 50 
1 51 
1 52 
1 53 
1 54 
1 55 
1 56 
1 57 
1 58 
1 59 
1 60 
1 61 
1 62 
1 63 
1 64 
1 65 
1 66 
1 67 
1 68 
1 69 
1 70 
1 71 
1 72 
1 73 
1 74 
1 75 
1 76 
1 77 
1 78 
1 79 
1 80 
1 81 
1 82 
1 83 
1 84 
1 85 
1 86 
1 87 
1 88 
1 89 
1 90 
1 91 
1 92 
1 93 
1 94 
1 95 
1 96 
1 97 
1 98 
1 99 
1 100 
1 101 
1 102 
1 103 
1 104 
1 105 
1 106 
1 107 
1 108 
1 109 
1 110 
1 111 
1 112 
1 113 
1 114 
1 115 
1 116 
1 117 
1 118 
1 119 
1 120 
1 121 
1 122 
1 123 
1 124 
1 125 
1 126 
1 127 
1 128 
1 129 
1 130 
1 131 
1 132 
1 133 
1 134 
1 135 
1 136 
1 137 
1 138 
1 139 
1 140 
1 141 
1 142 
1 143 
1 144 
1 145 
1 146 
1 147 
1 148 
1 149 
1 150 
1 151 
1 152 
1 153 
1 154 
1 155 
1 156 
1 157 
1 158 
1 159 
1 160 
1 161 
1 162 
1 163 
1 164 
1 165 
1 166 
1 167 
1 168 
1 169 
1 170 
1 171 
1 172 
1 173 
1 174 
CELL_TYPES 175 
1 
1 
1 
1 
1 
1 
1 
1 
1 
1 
1 
1 
1 
1 
1 
1 
1 
1 
1 
1 
1 
1 
1 
1 
1 
1 
1 
1 
1 
1 
1 
1 
1 
1 
1 
1 
1 
1 
1 
1 
1 
1 
1 
1 
1 
1 
1 
1 
1 
1 
1 
1 
1 
1 
1 
1 
1 
1 
1 
1 
1 
1 
1 
1 
1 
1 
1 
1 
1 
1 
1 
1 
1 
1 
1 
1 
1 
1 
1 
1 
1 
1 
1 
1 
1 
1 
1 
1 
1 
1 
1 
1 
1 
1 
1 
1 
1 
1 
1 
1 
1 
1 
1 
1 
1 
1 
1 
1 
1 
1 
1 
1 
1 
1 
1 
1 
1 
1 
1 
1 
1 
1 
1 
1 
1 
1 
1 
1 
1 
1 
1 
1 
1 
1 
1 
1 
1 
1 
1 
1 
1 
1 
1 
1 
1 
1 
1 
1 
1 
1 
1 
1 
1 
1 
1 
1 
1 
1 
1 
1 
1 
1 
1 
1 
1 
1 
1 
1 
1 
1 
1 
1 
1 
1 
1 
POINT_DATA 175 
VECTORS X_GC float 
-0.026061 -2.158004 0.000000 
-0.106992 -2.089948 0.000000 
-0.054870 -2.098181 0.000000 
-0.028809 -2.052297 0.000000 
-0.186430 -2.025873 0.000000 
-0.137056 -2.028399 0.000000 
-0.114311 -1.974751 0.000000 
-0.058186 -1.990417 0.000000 
-0.029377 -1.950240 0.000000 
-0.265318 -1.962717 0.000000 
-0.217198 -1.963516 0.000000 
-0.196633 -1.906220 0.000000 
-0.143120 -1.914929 0.000000 
-0.116563 -1.867660 0.000000 
-0.058945 -1.887306 0.000000 
-0.029568 -1.849186 0.000000 
-0.344206 -1.899561 0.000000 
-0.296791 -1.899554 0.000000 
-0.278030 -1.839611 0.000000 
-0.225992 -1.845477 0.000000 
-0.201664 -1.793360 0.000000 
-0.145749 -1.806834 0.000000 
-0.117890 -1.762492 0.000000 
-0.059328 -1.785197 0.000000 
-0.029759 -1.748132 0.000000 
-0.058559 -2.198754 0.000000 
-0.162226 -2.219597 0.000000 
-0.123292 -2.183979 0.000000 
-0.142917 -2.134996 0.000000 
-0.261851 -2.241753 0.000000 
-0.229092 -2.204726 0.000000 
-0.256854 -2.153495 0.000000 
-0.209613 -2.119382 0.000000 
-0.223062 -2.071808 0.000000 
-0.360414 -2.264053 0.000000 
-0.329787 -2.226931 0.000000 
-0.361761 -2.175128 0.000000 
-0.321587 -2.138720 0.000000 
-0.341985 -2.088486 0.000000 
-0.290702 -2.055687 0.000000 
-0.302189 -2.008951 0.000000 
-0.458977 -2.286354 0.000000 
-0.429420 -2.249279 0.000000 
-0.464588 -2.197237 0.000000 
-0.427556 -2.160210 0.000000 
-0.453135 -2.108695 0.000000 
-0.407738 -2.073380 0.000000 
-0.425037 -2.023951 0.000000 
-0.370772 -1.992322 0.000000 
-0.381315 -1.946095 0.000000 
-0.046960 -2.249570 0.000000 
-0.095301 -2.343615 0.000000 
-0.098873 -2.290968 0.000000 
-0.149405 -2.275771 0.000000 
-0.140093 -2.435319 0.000000 
-0.148617 -2.386621 0.000000 
-0.205981 -2.376384 0.000000 
-0.203197 -2.318181 0.000000 
-0.248777 -2.299034 0.000000 
-0.184111 -2.526283 0.000000 
-0.194039 -2.479192 0.000000 
-0.254475 -2.471892 0.000000 
-0.257893 -2.417783 0.000000 
-0.309886 -2.402410 0.000000 
-0.303554 -2.341865 0.000000 
-0.347255 -2.321707 0.000000 
-0.228129 -2.617247 0.000000 
-0.238687 -2.571022 0.000000 
-0.301302 -2.566070 0.000000 
-0.307162 -2.514031 0.000000 
-0.363386 -2.501910 0.000000 
-0.362692 -2.444399 0.000000 
-0.412122 -2.427106 0.000000 
-0.403017 -2.364959 0.000000 
-0.445733 -2.344380 0.000000 
-0.000000 -2.272184 0.000000 
0.043388 -2.368615 0.000000 
-0.000000 -2.338583 0.000000 
-0.043388 -2.368615 0.000000 
0.087158 -2.460812 0.000000 
0.043769 -2.437113 0.000000 
-0.000000 -2.475579 0.000000 
-0.043769 -2.437113 0.000000 
-0.087158 -2.460812 0.000000 
0.130831 -2.551941 0.000000 
0.087824 -2.530343 0.000000 
0.044436 -2.573042 0.000000 
-0.000000 -2.541977 0.000000 
-0.044436 -2.573042 0.000000 
-0.087824 -2.530343 0.000000 
-0.130831 -2.551941 0.000000 
0.174505 -2.643071 0.000000 
0.131782 -2.622505 0.000000 
0.088871 -2.668371 0.000000 
0.044532 -2.640508 0.000000 
-0.000000 -2.676908 0.000000 
-0.044532 -2.640508 0.000000 
-0.088871 -2.668371 0.000000 
-0.131782 -2.622505 0.000000 
-0.174505 -2.643071 0.000000 
0.046960 -2.249570 0.000000 
0.149405 -2.275771 0.000000 
0.098873 -2.290968 0.000000 
0.095301 -2.343615 0.000000 
0.248777 -2.299034 0.000000 
0.203197 -2.318181 0.000000 
0.205981 -2.376384 0.000000 
0.148617 -2.386621 0.000000 
0.140093 -2.435319 0.000000 
0.347255 -2.321707 0.000000 
0.303554 -2.341865 0.000000 
0.309886 -2.402410 0.000000 
0.257893 -2.417783 0.000000 
0.254475 -2.471892 0.000000 
0.194039 -2.479192 0.000000 
0.184111 -2.526283 0.000000 
0.445733 -2.344380 0.000000 
0.403017 -2.364959 0.000000 
0.412122 -2.427106 0.000000 
0.362692 -2.444399 0.000000 
0.363386 -2.501910 0.000000 
0.307162 -2.514031 0.000000 
0.301302 -2.566070 0.000000 
0.238687 -2.571022 0.000000 
0.228129 -2.617247 0.000000 
0.058559 -2.198754 0.000000 
0.142917 -2.134996 0.000000 
0.123292 -2.183979 0.000000 
0.162226 -2.219597 0.000000 
0.223062 -2.071808 0.000000 
0.209613 -2.119382 0.000000 
0.256854 -2.153495 0.000000 
0.229092 -2.204726 0.000000 
0.261851 -2.241753 0.000000 
0.302189 -2.008951 0.000000 
0.290702 -2.055687 0.000000 
0.341985 -2.088486 0.000000 
0.321587 -2.138720 0.000000 
0.361761 -2.175128 0.000000 
0.329787 -2.226931 0.000000 
0.360414 -2.264053 0.000000 
0.381315 -1.946095 0.000000 
0.370772 -1.992322 0.000000 
0.425037 -2.023951 0.000000 
0.407738 -2.073380 0.000000 
0.453135 -2.108695 0.000000 
0.427556 -2.160210 0.000000 
0.464588 -2.197237 0.000000 
0.429420 -2.249279 0.000000 
0.458977 -2.286354 0.000000 
0.026061 -2.158004 0.000000 
0.028809 -2.052297 0.000000 
0.054870 -2.098181 0.000000 
0.106992 -2.089948 0.000000 
0.029377 -1.950240 0.000000 
0.058186 -1.990417 0.000000 
0.114311 -1.974751 0.000000 
0.137056 -2.028399 0.000000 
0.186430 -2.025873 0.000000 
0.029568 -1.849186 0.000000 
0.058945 -1.887306 0.000000 
0.116563 -1.867660 0.000000 
0.143120 -1.914929 0.000000 
0.196633 -1.906220 0.000000 
0.217198 -1.963516 0.000000 
0.265318 -1.962717 0.000000 
0.029759 -1.748132 0.000000 
0.059328 -1.785197 0.000000 
0.117890 -1.762492 0.000000 
0.145749 -1.806834 0.000000 
0.201664 -1.793360 0.000000 
0.225992 -1.845477 0.000000 
0.278030 -1.839611 0.000000 
0.296791 -1.899554 0.000000 
0.344206 -1.899561 0.000000 
VECTORS X_EC float 
0.338794 -0.366953 0.000000 
-0.609100 0.714299 0.000000 
0.713312 0.825440 0.000000 
0.374519 0.206010 0.000000 
0.423588 -0.150720 0.000000 
-0.218274 -0.116617 0.000000 
-0.513962 -0.840856 0.000000 
0.756418 -0.629369 0.000000 
0.381900 0.828238 0.000000 
-0.550868 0.996677 0.000000 
0.823577 -0.992528 0.000000 
0.556234 0.233968 0.000000 
-0.139443 0.351537 0.000000 
-0.484677 -0.286588 0.000000 
0.766286 -0.021372 0.000000 
0.384386 -0.535993 0.000000 
0.474677 0.144073 0.000000 
-0.141715 0.143977 0.000000 
-0.385608 -0.665251 0.000000 
0.937896 -0.586056 0.000000 
0.621631 0.710364 0.000000 
-0.105264 0.892264 0.000000 
-0.467428 0.293637 0.000000 
0.771260 0.600166 0.000000 
0.386873 0.099776 0.000000 
0.761262 0.183182 0.000000 
0.108942 0.464558 0.000000 
-0.397202 -0.016281 0.000000 
-0.142083 -0.677556 0.000000 
-0.595936 0.763669 0.000000 
0.978194 0.263803 0.000000 
-0.660903 -0.427822 0.000000 
0.724964 -0.888342 0.000000 
0.899809 0.469410 0.000000 
0.685384 -0.935279 0.000000 
0.287229 0.563563 0.000000 
0.702895 -0.135766 0.000000 
0.180633 -0.627284 0.000000 
0.445811 0.694556 0.000000 
-0.220880 0.251770 0.000000 
-0.071546 -0.379155 0.000000 
-0.033296 -0.634227 0.000000 
-0.417537 0.865264 0.000000 
0.039645 0.162701 0.000000 
-0.441768 -0.337170 0.000000 
-0.109248 0.967380 0.000000 
-0.699407 0.490624 0.000000 
-0.474522 -0.176655 0.000000 
0.820030 -0.603649 0.000000 
0.957100 0.772280 0.000000 
0.610485 0.869188 0.000000 
-0.761092 0.138808 0.000000 
-0.714655 -0.571930 0.000000 
-0.057734 -0.777097 0.000000 
-0.178789 -0.623188 0.000000 
-0.067979 0.719386 0.000000 
0.677748 0.581182 0.000000 
0.641556 -0.204563 0.000000 
-0.765897 -0.463042 0.000000 
0.393446 0.604821 0.000000 
0.522510 -0.030909 0.000000 
-0.691820 -0.129453 0.000000 
-0.647393 -0.859936 0.000000 
0.028512 0.932537 0.000000 
-0.053800 0.115177 0.000000 
0.514316 -0.156954 0.000000 
0.965681 -0.167170 0.000000 
-0.897068 -0.791199 0.000000 
-0.083078 -0.858052 0.000000 
-0.006893 0.439424 0.000000 
0.724017 0.275791 0.000000 
0.714996 -0.500613 0.000000 
-0.642413 -0.734070 0.000000 
-0.760780 0.426949 0.000000 
-0.205471 0.149134 0.000000 
0.000000 -0.825510 0.000000 
-0.564049 0.476303 0.000000 
0.000000 0.070867 0.000000 
0.564049 0.476303 0.000000 
0.866949 -0.279042 0.000000 
-0.569003 -0.598973 0.000000 
0.000000 -0.079685 0.000000 
0.569003 -0.598973 0.000000 
-0.866949 -0.279042 0.000000 
0.299194 0.951208 0.000000 
0.858290 0.659624 0.000000 
-0.577662 -0.763930 0.000000 
0.000000 0.816692 0.000000 
0.577662 -0.763930 0.000000 
-0.858290 0.659624 0.000000 
-0.299194 0.951208 0.000000 
-0.268560 0.181458 0.000000 
0.286830 -0.096183 0.000000 
0.844677 0.523015 0.000000 
-0.578910 0.146852 0.000000 
0.000000 0.638256 0.000000 
0.578910 0.146852 0.000000 
-0.844677 0.523015 0.000000 
-0.286830 -0.096183 0.000000 
0.268560 0.181458 0.000000 
-0.610485 0.869188 0.000000 
0.057734 -0.777097 0.000000 
0.714655 -0.571930 0.000000 
0.761092 0.138808 0.000000 
0.765897 -0.463042 0.000000 
-0.641556 -0.204563 0.000000 
-0.677748 0.581182 0.000000 
0.067979 0.719386 0.000000 
0.178789 -0.623188 0.000000 
-0.514316 -0.156954 0.000000 
0.053800 0.115177 0.000000 
-0.028512 0.932537 0.000000 
0.647393 -0.859936 0.000000 
0.691820 -0.129453 0.000000 
-0.522510 -0.030909 0.000000 
-0.393446 0.604821 0.000000 
0.205471 0.149134 0.000000 
0.760780 0.426949 0.000000 
0.642413 -0.734070 0.000000 
-0.714996 -0.500613 0.000000 
-0.724017 0.275791 0.000000 
0.006894 0.439424 0.000000 
0.083078 -0.858052 0.000000 
0.897068 -0.791199 0.000000 
-0.965681 -0.167170 0.000000 
-0.761262 0.183182 0.000000 
0.142083 -0.677556 0.000000 
0.397202 -0.016281 0.000000 
-0.108942 0.464558 0.000000 
-0.899809 0.469410 0.000000 
-0.724964 -0.888342 0.000000 
0.660903 -0.427822 0.000000 
-0.978194 0.263803 0.000000 
0.595936 0.763669 0.000000 
0.071546 -0.379155 0.000000 
0.220880 0.251770 0.000000 
-0.445811 0.694556 0.000000 
-0.180633 -0.627284 0.000000 
-0.702895 -0.135766 0.000000 
-0.287229 0.563563 0.000000 
-0.685384 -0.935279 0.000000 
-0.957100 0.772280 0.000000 
-0.820030 -0.603649 0.000000 
0.474522 -0.176655 0.000000 
0.699407 0.490624 0.000000 
0.109248 0.967380 0.000000 
0.441768 -0.337170 0.000000 
-0.039645 0.162701 0.000000 
0.417537 0.865264 0.000000 
0.033296 -0.634227 0.000000 
-0.338794 -0.366953 0.000000 
-0.374519 0.206010 0.000000 
-0.713312 0.825440 0.000000 
0.609100 0.714299 0.000000 
-0.381900 0.828238 0.000000 
-0.756418 -0.629369 0.000000 
0.513962 -0.840856 0.000000 
0.218274 -0.116617 0.000000 
-0.423588 -0.150720 0.000000 
-0.384386 -0.535993 0.000000 
-0.766286 -0.021372 0.000000 
0.484677 -0.286588 0.000000 
0.139443 0.351537 0.000000 
-0.556234 0.233968 0.000000 
-0.823577 -0.992528 0.000000 
0.550868 0.996677 0.000000 
-0.386873 0.099776 0.000000 
-0.771260 0.600166 0.000000 
0.467428 0.293637 0.000000 
0.105264 0.892264 0.000000 
-0.621631 0.710364 0.000000 
-0.937896 -0.586056 0.000000 
0.385608 -0.665251 0.000000 
0.141715 0.143977 0.000000 
-0.474677 0.144073 0.000000 
CELL_DATA 175 
SCALARS MASS float 
LOOKUP_TABLE default 
0.078183 
0.086427 
0.094672 
0.086427 
0.088131 
0.092111 
0.085854 
0.092111 
0.088131 
0.088705 
0.091000 
0.086983 
0.091556 
0.086983 
0.091000 
0.088705 
0.089278 
0.091574 
0.089278 
0.092722 
0.089278 
0.092722 
0.089278 
0.091574 
0.089278 
0.078183 
0.086427 
0.094672 
0.086427 
0.088131 
0.092111 
0.085854 
0.092111 
0.088131 
0.088705 
0.091000 
0.086983 
0.091556 
0.086983 
0.091000 
0.088705 
0.089278 
0.091574 
0.089278 
0.092722 
0.089278 
0.092722 
0.089278 
0.091574 
0.089278 
0.078183 
0.086427 
0.094672 
0.086427 
0.088131 
0.092111 
0.085854 
0.092111 
0.088131 
0.088705 
0.091000 
0.086983 
0.091556 
0.086983 
0.091000 
0.088705 
0.089278 
0.091574 
0.089278 
0.092722 
0.089278 
0.092722 
0.089278 
0.091574 
0.089278 
0.078183 
0.086427 
0.094672 
0.086427 
0.088131 
0.092111 
0.085854 
0.092111 
0.088131 
0.088705 
0.091000 
0.086983 
0.091556 
0.086983 
0.091000 
0.088705 
0.089278 
0.091574 
0.089278 
0.092722 
0.089278 
0.092722 
0.089278 
0.091574 
0.089278 
0.078183 
0.086427 
0.094672 
0.086427 
0.088131 
0.092111 
0.085854 
0.092111 
0.088131 
0.088705 
0.091000 
0.086983 
0.091556 
0.086983 
0.091000 
0.088705 
0.089278 
0.091574 
0.089278 
0.092722 
0.089278 
0.092722 
0.089278 
0.091574 
0.089278 
0.078183 
0.086427 
0.094672 
0.086427 
0.088131 
0.092111 
0.085854 
0.092111 
0.088131 
0.088705 
0.091000 
0.086983 
0.091556 
0.086983 
0.091000 
0.088705 
0.089278 
0.091574 
0.089278 
0.092722 
0.089278 
0.092722 
0.089278 
0.091574 
0.089278 
0.078183 
0.086427 
0.094672 
0.086427 
0.088131 
0.092111 
0.085854 
0.092111 
0.088131 
0.088705 
0.091000 
0.086983 
0.091556 
0.086983 
0.091000 
0.088705 
0.089278 
0.091574 
0.089278 
0.092722 
0.089278 
0.092722 
0.089278 
0.091574 
0.089278 
SCALARS MASS float 
LOOKUP_TABLE default 
0.078183 
0.086427 
0.094672 
0.086427 
0.088131 
0.092111 
0.085854 
0.092111 
0.088131 
0.088705 
0.091000 
0.086983 
0.091556 
0.086983 
0.091000 
0.088705 
0.089278 
0.091574 
0.089278 
0.092722 
0.089278 
0.092722 
0.089278 
0.091574 
0.089278 
0.078183 
0.086427 
0.094672 
0.086427 
0.088131 
0.092111 
0.085854 
0.092111 
0.088131 
0.088705 
0.091000 
0.086983 
0.091556 
0.086983 
0.091000 
0.088705 
0.089278 
0.091574 
0.089278 
0.092722 
0.089278 
0.092722 
0.089278 
0.091574 
0.089278 
0.078183 
0.086427 
0.094672 
0.086427 
0.088131 
0.092111 
0.085854 
0.092111 
0.088131 
0.088705 
0.091000 
0.086983 
0.091556 
0.086983 
0.091000 
0.088705 
0.089278 
0.091574 
0.089278 
0.092722 
0.089278 
0.092722 
0.089278 
0.091574 
0.089278 
0.078183 
0.086427 
0.094672 
0.086427 
0.088131 
0.092111 
0.085854 
0.092111 
0.088131 
0.088705 
0.091000 
0.086983 
0.091556 
0.086983 
0.091000 
0.088705 
0.089278 
0.091574 
0.089278 
0.092722 
0.089278 
0.092722 
0.089278 
0.091574 
0.089278 
0.078183 
0.086427 
0.094672 
0.086427 
0.088131 
0.092111 
0.085854 
0.092111 
0.088131 
0.088705 
0.091000 
0.086983 
0.091556 
0.086983 
0.091000 
0.088705 
0.089278 
0.091574 
0.089278 
0.092722 
0.089278 
0.092722 
0.089278 
0.091574 
0.089278 
0.078183 
0.086427 
0.094672 
0.086427 
0.088131 
0.092111 
0.085854 
0.092111 
0.088131 
0.088705 
0.091000 
0.086983 
0.091556 
0.086983 
0.091000 
0.088705 
0.089278 
0.091574 
0.089278 
0.092722 
0.089278 
0.092722 
0.089278 
0.091574 
0.089278 
0.078183 
0.086427 
0.094672 
0.086427 
0.088131 
0.092111 
0.085854 
0.092111 
0.088131 
0.088705 
0.091000 
0.086983 
0.091556 
0.086983 
0.091000 
0.088705 
0.089278 
0.091574 
0.089278 
0.092722 
0.089278 
0.092722 
0.089278 
0.091574 
0.089278 
SCALARS DENSITY float 
LOOKUP_TABLE default 
20.000000 
20.000000 
20.000000 
20.000000 
20.000000 
20.000000 
20.000000 
20.000000 
20.000000 
20.000000 
20.000000 
20.000000 
20.000000 
20.000000 
20.000000 
20.000000 
20.000000 
20.000000 
20.000000 
20.000000 
20.000000 
20.000000 
20.000000 
20.000000 
20.000000 
20.000000 
20.000000 
20.000000 
20.000000 
20.000000 
20.000000 
20.000000 
20.000000 
20.000000 
20.000000 
20.000000 
20.000000 
20.000000 
20.000000 
20.000000 
20.000000 
20.000000 
20.000000 
20.000000 
20.000000 
20.000000 
20.000000 
20.000000 
20.000000 
20.000000 
20.000000 
20.000000 
20.000000 
20.000000 
20.000000 
20.000000 
20.000000 
20.000000 
20.000000 
20.000000 
20.000000 
20.000000 
20.000000 
20.000000 
20.000000 
20.000000 
20.000000 
20.000000 
20.000000 
20.000000 
20.000000 
20.000000 
20.000000 
20.000000 
20.000000 
20.000000 
20.000000 
20.000000 
20.000000 
20.000000 
20.000000 
20.000000 
20.000000 
20.000000 
20.000000 
20.000000 
20.000000 
20.000000 
20.000000 
20.000000 
20.000000 
20.000000 
20.000000 
20.000000 
20.000000 
20.000000 
20.000000 
20.000000 
20.000000 
20.000000 
20.000000 
20.000000 
20.000000 
20.000000 
20.000000 
20.000000 
20.000000 
20.000000 
20.000000 
20.000000 
20.000000 
20.000000 
20.000000 
20.000000 
20.000000 
20.000000 
20.000000 
20.000000 
20.000000 
20.000000 
20.000000 
20.000000 
20.000000 
20.000000 
20.000000 
20.000000 
20.000000 
20.000000 
20.000000 
20.000000 
20.000000 
20.000000 
20.000000 
20.000000 
20.000000 
20.000000 
20.000000 
20.000000 
20.000000 
20.000000 
20.000000 
20.000000 
20.000000 
20.000000 
20.000000 
20.000000 
20.000000 
20.000000 
20.000000 
20.000000 
20.000000 
20.000000 
20.000000 
20.000000 
20.000000 
20.000000 
20.000000 
20.000000 
20.000000 
20.000000 
20.000000 
20.000000 
20.000000 
20.000000 
20.000000 
20.000000 
20.000000 
20.000000 
20.000000 
20.000000 
20.000000 
20.000000 
20.000000 
20.000000 
20.000000 
SCALARS ELEM_i float 
LOOKUP_TABLE default 
167 
195 
168 
168 
195 
195 
195 
168 
169 
223 
195 
196 
196 
196 
169 
169 
223 
223 
223 
196 
197 
197 
197 
170 
170 
167 
194 
194 
194 
221 
194 
221 
194 
195 
220 
221 
221 
221 
222 
222 
222 
247 
248 
248 
248 
249 
249 
249 
222 
223 
167 
193 
193 
193 
192 
193 
193 
193 
220 
192 
192 
219 
219 
220 
220 
220 
191 
218 
218 
219 
219 
219 
246 
247 
247 
166 
166 
166 
166 
138 
165 
165 
165 
192 
138 
138 
164 
165 
164 
192 
192 
137 
137 
137 
164 
164 
164 
191 
191 
191 
167 
139 
139 
139 
112 
139 
139 
139 
138 
112 
112 
112 
111 
111 
138 
138 
85 
85 
84 
111 
111 
111 
110 
110 
137 
167 
140 
140 
140 
141 
140 
113 
140 
113 
114 
114 
114 
113 
113 
113 
112 
115 
114 
87 
87 
87 
86 
86 
86 
85 
167 
168 
168 
141 
169 
168 
141 
141 
141 
169 
169 
142 
142 
142 
141 
115 
170 
170 
143 
143 
143 
142 
115 
115 
115 
VECTORS VELOCITY float 
-0.000000 -6.587611 0.000000 
-0.000000 -6.587611 0.000000 
-0.000000 -6.587611 0.000000 
-0.000000 -6.587611 0.000000 
0.000000 -6.587611 0.000000 
0.000000 -6.587611 0.000000 
0.000000 -6.587611 0.000000 
0.000000 -6.587611 0.000000 
0.000000 -6.587611 0.000000 
-0.000000 -6.587611 0.000000 
-0.000000 -6.587611 0.000000 
-0.000000 -6.587611 0.000000 
-0.000000 -6.587611 0.000000 
0.000000 -6.587611 0.000000 
0.000000 -6.587611 0.000000 
0.000000 -6.587611 0.000000 
-0.000000 -6.587611 0.000000 
-0.000000 -6.587611 0.000000 
0.000000 -6.587611 0.000000 
0.000000 -6.587611 0.000000 
0.000000 -6.587611 0.000000 
0.000000 -6.587611 0.000000 
0.000000 -6.587611 0.000000 
-0.000000 -6.587611 0.000000 
0.000000 -6.587611 0.000000 
0.000000 -6.587611 0.000000 
0.000000 -6.587611 0.000000 
-0.000000 -6.587611 0.000000 
-0.000000 -6.587611 0.000000 
0.000000 -6.587611 0.000000 
0.000000 -6.587611 0.000000 
-0.000000 -6.587611 0.000000 
0.000000 -6.587611 0.000000 
0.000000 -6.587611 0.000000 
-0.000000 -6.587611 0.000000 
-0.000000 -6.587611 0.000000 
0.000000 -6.587611 0.000000 
0.000000 -6.587611 0.000000 
-0.000000 -6.587611 0.000000 
0.000000 -6.587611 0.000000 
0.000000 -6.587611 0.000000 
0.000000 -6.587611 0.000000 
-0.000000 -6.587611 0.000000 
-0.000000 -6.587611 0.000000 
-0.000000 -6.587611 0.000000 
0.000000 -6.587611 0.000000 
-0.000000 -6.587611 0.000000 
0.000000 -6.587611 0.000000 
-0.000000 -6.587611 0.000000 
-0.000000 -6.587611 0.000000 
-0.000000 -6.587611 0.000000 
-0.000000 -6.587611 0.000000 
-0.000000 -6.587611 0.000000 
0.000000 -6.587611 0.000000 
0.000000 -6.587611 0.000000 
-0.000000 -6.587611 0.000000 
-0.000000 -6.587611 0.000000 
0.000000 -6.587611 0.000000 
0.000000 -6.587611 0.000000 
-0.000000 -6.587611 0.000000 
-0.000000 -6.587611 0.000000 
-0.000000 -6.587611 0.000000 
0.000000 -6.587611 0.000000 
-0.000000 -6.587611 0.000000 
0.000000 -6.587611 0.000000 
0.000000 -6.587611 0.000000 
0.000000 -6.587611 0.000000 
-0.000000 -6.587611 0.000000 
-0.000000 -6.587611 0.000000 
0.000000 -6.587611 0.000000 
0.000000 -6.587611 0.000000 
-0.000000 -6.587611 0.000000 
-0.000000 -6.587611 0.000000 
0.000000 -6.587611 0.000000 
0.000000 -6.587611 0.000000 
0.000000 -6.587611 0.000000 
0.000000 -6.587611 0.000000 
-0.000000 -6.587611 0.000000 
-0.000000 -6.587611 0.000000 
-0.000000 -6.587611 0.000000 
-0.000000 -6.587611 0.000000 
0.000000 -6.587611 0.000000 
-0.000000 -6.587611 0.000000 
0.000000 -6.587611 0.000000 
0.000000 -6.587611 0.000000 
0.000000 -6.587611 0.000000 
0.000000 -6.587611 0.000000 
0.000000 -6.587611 0.000000 
0.000000 -6.587611 0.000000 
0.000000 -6.587611 0.000000 
-0.000000 -6.587611 0.000000 
-0.000000 -6.587611 0.000000 
-0.000000 -6.587611 0.000000 
-0.000000 -6.587611 0.000000 
-0.000000 -6.587611 0.000000 
-0.000000 -6.587611 0.000000 
-0.000000 -6.587611 0.000000 
-0.000000 -6.587611 0.000000 
-0.000000 -6.587611 0.000000 
0.000000 -6.587611 0.000000 
0.000000 -6.587611 0.000000 
0.000000 -6.587611 0.000000 
0.000000 -6.587611 0.000000 
0.000000 -6.587611 0.000000 
0.000000 -6.587611 0.000000 
0.000000 -6.587611 0.000000 
0.000000 -6.587611 0.000000 
0.000000 -6.587611 0.000000 
-0.000000 -6.587611 0.000000 
-0.000000 -6.587611 0.000000 
-0.000000 -6.587611 0.000000 
-0.000000 -6.587611 0.000000 
0.000000 -6.587611 0.000000 
-0.000000 -6.587611 0.000000 
-0.000000 -6.587611 0.000000 
0.000000 -6.587611 0.000000 
0.000000 -6.587611 0.000000 
-0.000000 -6.587611 0.000000 
0.000000 -6.587611 0.000000 
-0.000000 -6.587611 0.000000 
0.000000 -6.587611 0.000000 
0.000000 -6.587611 0.000000 
-0.000000 -6.587611 0.000000 
0.000000 -6.587611 0.000000 
-0.000000 -6.587611 0.000000 
0.000000 -6.587611 0.000000 
0.000000 -6.587611 0.000000 
0.000000 -6.587611 0.000000 
-0.000000 -6.587611 0.000000 
-0.000000 -6.587611 0.000000 
0.000000 -6.587611 0.000000 
-0.000000 -6.587611 0.000000 
-0.000000 -6.587611 0.000000 
-0.000000 -6.587611 0.000000 
-0.000000 -6.587611 0.000000 
-0.000000 -6.587611 0.000000 
0.000000 -6.587611 0.000000 
0.000000 -6.587611 0.000000 
0.000000 -6.587611 0.000000 
-0.000000 -6.587611 0.000000 
-0.000000 -6.587611 0.000000 
-0.000000 -6.587611 0.000000 
-0.000000 -6.587611 0.000000 
0.000000 -6.587611 0.000000 
0.000000 -6.587611 0.000000 
-0.000000 -6.587611 0.000000 
-0.000000 -6.587611 0.000000 
-0.000000 -6.587611 0.000000 
-0.000000 -6.587611 0.000000 
0.000000 -6.587611 0.000000 
0.000000 -6.587611 0.000000 
0.000000 -6.587611 0.000000 
0.000000 -6.587611 0.000000 
0.000000 -6.587611 0.000000 
0.000000 -6.587611 0.000000 
0.000000 -6.587611 0.000000 
0.000000 -6.587611 0.000000 
0.000000 -6.587611 0.000000 
0.000000 -6.587611 0.000000 
-0.000000 -6.587611 0.000000 
0.000000 -6.587611 0.000000 
-0.000000 -6.587611 0.000000 
0.000000 -6.587611 0.000000 
-0.000000 -6.587611 0.000000 
0.000000 -6.587611 0.000000 
-0.000000 -6.587611 0.000000 
0.000000 -6.587611 0.000000 
0.000000 -6.587611 0.000000 
-0.000000 -6.587611 0.000000 
-0.000000 -6.587611 0.000000 
0.000000 -6.587611 0.000000 
0.000000 -6.587611 0.000000 
0.000000 -6.587611 0.000000 
-0.000000 -6.587611 0.000000 
-0.000000 -6.587611 0.000000 
TENSORS STRESS float 
-0.000000 -0.000000 0.000000 
0.000000 0.000000 0.000000 
0.000000 0.000000 0.000000 

-0.000000 -0.000000 0.000000 
0.000000 0.000000 0.000000 
0.000000 0.000000 0.000000 

-0.000000 0.000000 0.000000 
0.000000 -0.000000 0.000000 
0.000000 0.000000 0.000000 

-0.000000 0.000000 0.000000 
0.000000 -0.000000 0.000000 
0.000000 0.000000 0.000000 

-0.000000 -0.000000 0.000000 
0.000000 -0.000000 0.000000 
0.000000 0.000000 0.000000 

-0.000000 -0.000000 0.000000 
0.000000 0.000000 0.000000 
0.000000 0.000000 0.000000 

-0.000000 0.000000 0.000000 
0.000000 0.000000 0.000000 
0.000000 0.000000 0.000000 

-0.000000 -0.000000 0.000000 
0.000000 -0.000000 0.000000 
0.000000 0.000000 0.000000 

-0.000000 0.000000 0.000000 
0.000000 -0.000000 0.000000 
0.000000 0.000000 0.000000 

-0.000000 -0.000000 0.000000 
0.000000 0.000000 0.000000 
0.000000 0.000000 0.000000 

-0.000000 -0.000000 0.000000 
0.000000 -0.000000 0.000000 
0.000000 0.000000 0.000000 

0.000000 -0.000000 0.000000 
0.000000 0.000000 0.000000 
0.000000 0.000000 0.000000 

-0.000000 -0.000000 0.000000 