# vtk DataFile Version 3.0 
vtk output 
ASCII 
DATASET UNSTRUCTURED_GRID 
POINTS 175 float 
-0.026061 -0.159975 0.000000 
-0.106992 -0.091920 0.000000 
-0.054870 -0.100152 0.000000 
-0.028809 -0.054269 0.000000 
-0.186430 -0.027844 0.000000 
-0.137056 -0.030370 0.000000 
-0.114311 0.023277 0.000000 
-0.058186 0.007611 0.000000 
-0.029377 0.047789 0.000000 
-0.265318 0.035312 0.000000 
-0.217198 0.034512 0.000000 
-0.196633 0.091809 0.000000 
-0.143120 0.083100 0.000000 
-0.116563 0.130368 0.000000 
-0.058945 0.110723 0.000000 
-0.029568 0.148843 0.000000 
-0.344206 0.098468 0.000000 
-0.296791 0.098475 0.000000 
-0.278030 0.158418 0.000000 
-0.225992 0.152551 0.000000 
-0.201664 0.204668 0.000000 
-0.145749 0.191194 0.000000 
-0.117890 0.235537 0.000000 
-0.059328 0.212831 0.000000 
-0.029759 0.249897 0.000000 
-0.058559 -0.200726 0.000000 
-0.162226 -0.221568 0.000000 
-0.123292 -0.185951 0.000000 
-0.142917 -0.136967 0.000000 
-0.261851 -0.243725 0.000000 
-0.229092 -0.206698 0.000000 
-0.256854 -0.155466 0.000000 
-0.209613 -0.121354 0.000000 
-0.223062 -0.073780 0.000000 
-0.360414 -0.266025 0.000000 
-0.329787 -0.228902 0.000000 
-0.361761 -0.177100 0.000000 
-0.321587 -0.140691 0.000000 
-0.341985 -0.090457 0.000000 
-0.290702 -0.057658 0.000000 
-0.302189 -0.010923 0.000000 
-0.458977 -0.288325 0.000000 
-0.429420 -0.251250 0.000000 
-0.464588 -0.199209 0.000000 
-0.427556 -0.162181 0.000000 
-0.453135 -0.110666 0.000000 
-0.407738 -0.075351 0.000000 
-0.425037 -0.025923 0.000000 
-0.370772 0.005706 0.000000 
-0.381315 0.051934 0.000000 
-0.046960 -0.251541 0.000000 
-0.095301 -0.345587 0.000000 
-0.098873 -0.292940 0.000000 
-0.149405 -0.277742 0.000000 
-0.140093 -0.437291 0.000000 
-0.148617 -0.388593 0.000000 
-0.205981 -0.378355 0.000000 
-0.203197 -0.320152 0.000000 
-0.248777 -0.301005 0.000000 
-0.184111 -0.528254 0.000000 
-0.194039 -0.481163 0.000000 
-0.254475 -0.473864 0.000000 
-0.257893 -0.419754 0.000000 
-0.309886 -0.404382 0.000000 
-0.303554 -0.343836 0.000000 
-0.347255 -0.323679 0.000000 
-0.228129 -0.619218 0.000000 
-0.238687 -0.572994 0.000000 
-0.301302 -0.568042 0.000000 
-0.307162 -0.516003 0.000000 
-0.363386 -0.503882 0.000000 
-0.362692 -0.446371 0.000000 
-0.412122 -0.429077 0.000000 
-0.403017 -0.366931 0.000000 
-0.445733 -0.346352 0.000000 
-0.000000 -0.274156 0.000000 
0.043388 -0.370586 0.000000 
-0.000000 -0.340554 0.000000 
-0.043388 -0.370586 0.000000 
0.087158 -0.462783 0.000000 
0.043769 -0.439085 0.000000 
-0.000000 -0.477550 0.000000 
-0.043769 -0.439085 0.000000 
-0.087158 -0.462783 0.000000 
0.130831 -0.553913 0.000000 
0.087824 -0.532314 0.000000 
0.044436 -0.575014 0.000000 
-0.000000 -0.543949 0.000000 
-0.044436 -0.575014 0.000000 
-0.087824 -0.532314 0.000000 
-0.130831 -0.553913 0.000000 
0.174505 -0.645042 0.000000 
0.131782 -0.624476 0.000000 
0.088871 -0.670343 0.000000 
0.044532 -0.642479 0.000000 
-0.000000 -0.678879 0.000000 
-0.044532 -0.642479 0.000000 
-0.088871 -0.670343 0.000000 
-0.131782 -0.624476 0.000000 
-0.174505 -0.645042 0.000000 
0.046960 -0.251541 0.000000 
0.149405 -0.277742 0.000000 
0.098873 -0.292940 0.000000 
0.095301 -0.345587 0.000000 
0.248777 -0.301005 0.000000 
0.203197 -0.320152 0.000000 
0.205981 -0.378355 0.000000 
0.148617 -0.388593 0.000000 
0.140093 -0.437291 0.000000 
0.347255 -0.323679 0.000000 
0.303554 -0.343836 0.000000 
0.309886 -0.404382 0.000000 
0.257893 -0.419754 0.000000 
0.254475 -0.473864 0.000000 
0.194039 -0.481163 0.000000 
0.184111 -0.528254 0.000000 
0.445733 -0.346352 0.000000 
0.403017 -0.366931 0.000000 
0.412122 -0.429077 0.000000 
0.362692 -0.446371 0.000000 
0.363386 -0.503882 0.000000 
0.307162 -0.516003 0.000000 
0.301302 -0.568042 0.000000 
0.238687 -0.572994 0.000000 
0.228129 -0.619218 0.000000 
0.058559 -0.200726 0.000000 
0.142917 -0.136967 0.000000 
0.123292 -0.185951 0.000000 
0.162226 -0.221568 0.000000 
0.223062 -0.073780 0.000000 
0.209613 -0.121354 0.000000 
0.256854 -0.155466 0.000000 
0.229092 -0.206698 0.000000 
0.261851 -0.243725 0.000000 
0.302189 -0.010923 0.000000 
0.290702 -0.057658 0.000000 
0.341985 -0.090457 0.000000 
0.321587 -0.140691 0.000000 
0.361761 -0.177100 0.000000 
0.329787 -0.228902 0.000000 
0.360414 -0.266025 0.000000 
0.381315 0.051934 0.000000 
0.370772 0.005706 0.000000 
0.425037 -0.025923 0.000000 
0.407738 -0.075351 0.000000 
0.453135 -0.110666 0.000000 
0.427556 -0.162181 0.000000 
0.464588 -0.199209 0.000000 
0.429420 -0.251250 0.000000 
0.458977 -0.288325 0.000000 
0.026061 -0.159975 0.000000 
0.028809 -0.054269 0.000000 
0.054870 -0.100152 0.000000 
0.106992 -0.091920 0.000000 
0.029377 0.047789 0.000000 
0.058186 0.007611 0.000000 
0.114311 0.023277 0.000000 
0.137056 -0.030370 0.000000 
0.186430 -0.027844 0.000000 
0.029568 0.148843 0.000000 
0.058945 0.110723 0.000000 
0.116563 0.130368 0.000000 
0.143120 0.083100 0.000000 
0.196633 0.091809 0.000000 
0.217198 0.034512 0.000000 
0.265318 0.035312 0.000000 
0.029759 0.249897 0.000000 
0.059328 0.212831 0.000000 
0.117890 0.235537 0.000000 
0.145749 0.191194 0.000000 
0.201664 0.204668 0.000000 
0.225992 0.152551 0.000000 
0.278030 0.158418 0.000000 
0.296791 0.098475 0.000000 
0.344206 0.098468 0.000000 
CELLS 175 350 
1 0 
1 1 
1 2 
1 3 
1 4 
1 5 
1 6 
1 7 
1 8 
1 9 
1 10 
1 11 
1 12 
1 13 
1 14 
1 15 
1 16 
1 17 
1 18 
1 19 
1 20 
1 21 
1 22 
1 23 
1 24 
1 25 
1 26 
1 27 
1 28 
1 29 
1 30 
1 31 
1 32 
1 33 
1 34 
1 35 
1 36 
1 37 
1 38 
1 39 
1 40 
1 41 
1 42 
1 43 
1 44 
1 45 
1 46 
1 47 
1 48 
1 49 
1 50 
1 51 
1 52 
1 53 
1 54 
1 55 
1 56 
1 57 
1 58 
1 59 
1 60 
1 61 
1 62 
1 63 
1 64 
1 65 
1 66 
1 67 
1 68 
1 69 
1 70 
1 71 
1 72 
1 73 
1 74 
1 75 
1 76 
1 77 
1 78 
1 79 
1 80 
1 81 
1 82 
1 83 
1 84 
1 85 
1 86 
1 87 
1 88 
1 89 
1 90 
1 91 
1 92 
1 93 
1 94 
1 95 
1 96 
1 97 
1 98 
1 99 
1 100 
1 101 
1 102 
1 103 
1 104 
1 105 
1 106 
1 107 
1 108 
1 109 
1 110 
1 111 
1 112 
1 113 
1 114 
1 115 
1 116 
1 117 
1 118 
1 119 
1 120 
1 121 
1 122 
1 123 
1 124 
1 125 
1 126 
1 127 
1 128 
1 129 
1 130 
1 131 
1 132 
1 133 
1 134 
1 135 
1 136 
1 137 
1 138 
1 139 
1 140 
1 141 
1 142 
1 143 
1 144 
1 145 
1 146 
1 147 
1 148 
1 149 
1 150 
1 151 
1 152 
1 153 
1 154 
1 155 
1 156 
1 157 
1 158 
1 159 
1 160 
1 161 
1 162 
1 163 
1 164 
1 165 
1 166 
1 167 
1 168 
1 169 
1 170 
1 171 
1 172 
1 173 
1 174 
CELL_TYPES 175 
1 
1 
1 
1 
1 
1 
1 
1 
1 
1 
1 
1 
1 
1 
1 
1 
1 
1 
1 
1 
1 
1 
1 
1 
1 
1 
1 
1 
1 
1 
1 
1 
1 
1 
1 
1 
1 
1 
1 
1 
1 
1 
1 
1 
1 
1 
1 
1 
1 
1 
1 
1 
1 
1 
1 
1 
1 
1 
1 
1 
1 
1 
1 
1 
1 
1 
1 
1 
1 
1 
1 
1 
1 
1 
1 
1 
1 
1 
1 
1 
1 
1 
1 
1 
1 
1 
1 
1 
1 
1 
1 
1 
1 
1 
1 
1 
1 
1 
1 
1 
1 
1 
1 
1 
1 
1 
1 
1 
1 
1 
1 
1 
1 
1 
1 
1 
1 
1 
1 
1 
1 
1 
1 
1 
1 
1 
1 
1 
1 
1 
1 
1 
1 
1 
1 
1 
1 
1 
1 
1 
1 
1 
1 
1 
1 
1 
1 
1 
1 
1 
1 
1 
1 
1 
1 
1 
1 
1 
1 
1 
1 
1 
1 
1 
1 
1 
1 
1 
1 
1 
1 
1 
1 
1 
1 
POINT_DATA 175 
VECTORS X_GC float 
-0.026061 -0.159975 0.000000 
-0.106992 -0.091920 0.000000 
-0.054870 -0.100152 0.000000 
-0.028809 -0.054269 0.000000 
-0.186430 -0.027844 0.000000 
-0.137056 -0.030370 0.000000 
-0.114311 0.023277 0.000000 
-0.058186 0.007611 0.000000 
-0.029377 0.047789 0.000000 
-0.265318 0.035312 0.000000 
-0.217198 0.034512 0.000000 
-0.196633 0.091809 0.000000 
-0.143120 0.083100 0.000000 
-0.116563 0.130368 0.000000 
-0.058945 0.110723 0.000000 
-0.029568 0.148843 0.000000 
-0.344206 0.098468 0.000000 
-0.296791 0.098475 0.000000 
-0.278030 0.158418 0.000000 
-0.225992 0.152551 0.000000 
-0.201664 0.204668 0.000000 
-0.145749 0.191194 0.000000 
-0.117890 0.235537 0.000000 
-0.059328 0.212831 0.000000 
-0.029759 0.249897 0.000000 
-0.058559 -0.200726 0.000000 
-0.162226 -0.221568 0.000000 
-0.123292 -0.185951 0.000000 
-0.142917 -0.136967 0.000000 
-0.261851 -0.243725 0.000000 
-0.229092 -0.206698 0.000000 
-0.256854 -0.155466 0.000000 
-0.209613 -0.121354 0.000000 
-0.223062 -0.073780 0.000000 
-0.360414 -0.266025 0.000000 
-0.329787 -0.228902 0.000000 
-0.361761 -0.177100 0.000000 
-0.321587 -0.140691 0.000000 
-0.341985 -0.090457 0.000000 
-0.290702 -0.057658 0.000000 
-0.302189 -0.010923 0.000000 
-0.458977 -0.288325 0.000000 
-0.429420 -0.251250 0.000000 
-0.464588 -0.199209 0.000000 
-0.427556 -0.162181 0.000000 
-0.453135 -0.110666 0.000000 
-0.407738 -0.075351 0.000000 
-0.425037 -0.025923 0.000000 
-0.370772 0.005706 0.000000 
-0.381315 0.051934 0.000000 
-0.046960 -0.251541 0.000000 
-0.095301 -0.345587 0.000000 
-0.098873 -0.292940 0.000000 
-0.149405 -0.277742 0.000000 
-0.140093 -0.437291 0.000000 
-0.148617 -0.388593 0.000000 
-0.205981 -0.378355 0.000000 
-0.203197 -0.320152 0.000000 
-0.248777 -0.301005 0.000000 
-0.184111 -0.528254 0.000000 
-0.194039 -0.481163 0.000000 
-0.254475 -0.473864 0.000000 
-0.257893 -0.419754 0.000000 
-0.309886 -0.404382 0.000000 
-0.303554 -0.343836 0.000000 
-0.347255 -0.323679 0.000000 
-0.228129 -0.619218 0.000000 
-0.238687 -0.572994 0.000000 
-0.301302 -0.568042 0.000000 
-0.307162 -0.516003 0.000000 
-0.363386 -0.503882 0.000000 
-0.362692 -0.446371 0.000000 
-0.412122 -0.429077 0.000000 
-0.403017 -0.366931 0.000000 
-0.445733 -0.346352 0.000000 
-0.000000 -0.274156 0.000000 
0.043388 -0.370586 0.000000 
-0.000000 -0.340554 0.000000 
-0.043388 -0.370586 0.000000 
0.087158 -0.462783 0.000000 
0.043769 -0.439085 0.000000 
-0.000000 -0.477550 0.000000 
-0.043769 -0.439085 0.000000 
-0.087158 -0.462783 0.000000 
0.130831 -0.553913 0.000000 
0.087824 -0.532314 0.000000 
0.044436 -0.575014 0.000000 
-0.000000 -0.543949 0.000000 
-0.044436 -0.575014 0.000000 
-0.087824 -0.532314 0.000000 
-0.130831 -0.553913 0.000000 
0.174505 -0.645042 0.000000 
0.131782 -0.624476 0.000000 
0.088871 -0.670343 0.000000 
0.044532 -0.642479 0.000000 
-0.000000 -0.678879 0.000000 
-0.044532 -0.642479 0.000000 
-0.088871 -0.670343 0.000000 
-0.131782 -0.624476 0.000000 
-0.174505 -0.645042 0.000000 
0.046960 -0.251541 0.000000 
0.149405 -0.277742 0.000000 
0.098873 -0.292940 0.000000 
0.095301 -0.345587 0.000000 
0.248777 -0.301005 0.000000 
0.203197 -0.320152 0.000000 
0.205981 -0.378355 0.000000 
0.148617 -0.388593 0.000000 
0.140093 -0.437291 0.000000 
0.347255 -0.323679 0.000000 
0.303554 -0.343836 0.000000 
0.309886 -0.404382 0.000000 
0.257893 -0.419754 0.000000 
0.254475 -0.473864 0.000000 
0.194039 -0.481163 0.000000 
0.184111 -0.528254 0.000000 
0.445733 -0.346352 0.000000 
0.403017 -0.366931 0.000000 
0.412122 -0.429077 0.000000 
0.362692 -0.446371 0.000000 
0.363386 -0.503882 0.000000 
0.307162 -0.516003 0.000000 
0.301302 -0.568042 0.000000 
0.238687 -0.572994 0.000000 
0.228129 -0.619218 0.000000 
0.058559 -0.200726 0.000000 
0.142917 -0.136967 0.000000 
0.123292 -0.185951 0.000000 
0.162226 -0.221568 0.000000 
0.223062 -0.073780 0.000000 
0.209613 -0.121354 0.000000 
0.256854 -0.155466 0.000000 
0.229092 -0.206698 0.000000 
0.261851 -0.243725 0.000000 
0.302189 -0.010923 0.000000 
0.290702 -0.057658 0.000000 
0.341985 -0.090457 0.000000 
0.321587 -0.140691 0.000000 
0.361761 -0.177100 0.000000 
0.329787 -0.228902 0.000000 
0.360414 -0.266025 0.000000 
0.381315 0.051934 0.000000 
0.370772 0.005706 0.000000 
0.425037 -0.025923 0.000000 
0.407738 -0.075351 0.000000 
0.453135 -0.110666 0.000000 
0.427556 -0.162181 0.000000 
0.464588 -0.199209 0.000000 
0.429420 -0.251250 0.000000 
0.458977 -0.288325 0.000000 
0.026061 -0.159975 0.000000 
0.028809 -0.054269 0.000000 
0.054870 -0.100152 0.000000 
0.106992 -0.091920 0.000000 
0.029377 0.047789 0.000000 
0.058186 0.007611 0.000000 
0.114311 0.023277 0.000000 
0.137056 -0.030370 0.000000 
0.186430 -0.027844 0.000000 
0.029568 0.148843 0.000000 
0.058945 0.110723 0.000000 
0.116563 0.130368 0.000000 
0.143120 0.083100 0.000000 
0.196633 0.091809 0.000000 
0.217198 0.034512 0.000000 
0.265318 0.035312 0.000000 
0.029759 0.249897 0.000000 
0.059328 0.212831 0.000000 
0.117890 0.235537 0.000000 
0.145749 0.191194 0.000000 
0.201664 0.204668 0.000000 
0.225992 0.152551 0.000000 
0.278030 0.158418 0.000000 
0.296791 0.098475 0.000000 
0.344206 0.098468 0.000000 
VECTORS X_EC float 
0.338794 0.659662 0.000000 
-0.609100 -0.259086 0.000000 
0.713312 -0.147945 0.000000 
0.374519 -0.767375 0.000000 
0.423588 0.875894 0.000000 
-0.218274 0.909998 0.000000 
-0.513962 0.185759 0.000000 
0.756418 0.397245 0.000000 
0.381900 -0.145147 0.000000 
-0.550868 0.023291 0.000000 
0.823577 0.034087 0.000000 
0.556234 -0.739417 0.000000 
-0.139443 -0.621848 0.000000 
-0.484677 0.740027 0.000000 
0.766286 -0.994758 0.000000 
0.384386 0.490622 0.000000 
0.474677 -0.829312 0.000000 
-0.141715 -0.829408 0.000000 
-0.385608 0.361364 0.000000 
0.937896 0.440559 0.000000 
0.621631 -0.263021 0.000000 
-0.105264 -0.081122 0.000000 
-0.467428 -0.679748 0.000000 
0.771260 -0.373220 0.000000 
0.386873 -0.873609 0.000000 
0.761262 -0.790203 0.000000 
0.108942 -0.508827 0.000000 
-0.397202 -0.989666 0.000000 
-0.142083 0.349059 0.000000 
-0.595936 -0.209716 0.000000 
0.978194 -0.709582 0.000000 
-0.660903 0.598793 0.000000 
0.724964 0.138273 0.000000 
0.899809 -0.503976 0.000000 
0.685384 0.091336 0.000000 
0.287229 -0.409822 0.000000 
0.702895 0.890849 0.000000 
0.180633 0.399330 0.000000 
0.445811 -0.278829 0.000000 
-0.220880 -0.721615 0.000000 
-0.071546 0.647459 0.000000 
-0.033296 0.392388 0.000000 
-0.417537 -0.108121 0.000000 
0.039645 -0.810684 0.000000 
-0.441768 0.689445 0.000000 
-0.109248 -0.006006 0.000000 
-0.699407 -0.482761 0.000000 
-0.474522 0.849960 0.000000 
0.820030 0.422966 0.000000 
0.957100 -0.201106 0.000000 
0.610485 -0.104197 0.000000 
-0.761092 -0.834578 0.000000 
-0.714655 0.454685 0.000000 
-0.057734 0.249518 0.000000 
-0.178789 0.403427 0.000000 
-0.067979 -0.254000 0.000000 
0.677748 -0.392203 0.000000 
0.641556 0.822052 0.000000 
-0.765897 0.563573 0.000000 
0.393446 -0.368564 0.000000 
0.522510 0.995706 0.000000 
-0.691820 0.897161 0.000000 
-0.647393 0.166679 0.000000 
0.028512 -0.040848 0.000000 
-0.053800 -0.858208 0.000000 
0.514316 0.869661 0.000000 
0.965681 0.859445 0.000000 
-0.897068 0.235416 0.000000 
-0.083078 0.168563 0.000000 
-0.006893 -0.533962 0.000000 
0.724017 -0.697595 0.000000 
0.714996 0.526002 0.000000 
-0.642413 0.292545 0.000000 
-0.760780 -0.546436 0.000000 
-0.205471 -0.824251 0.000000 
0.000000 0.201105 0.000000 
-0.564049 -0.497083 0.000000 
0.000000 -0.902519 0.000000 
0.564049 -0.497083 0.000000 
0.866949 0.747573 0.000000 
-0.569003 0.427642 0.000000 
0.000000 0.946930 0.000000 
0.569003 0.427642 0.000000 
-0.866949 0.747573 0.000000 
0.299194 -0.022177 0.000000 
0.858290 -0.313761 0.000000 
-0.577662 0.262685 0.000000 
0.000000 -0.156693 0.000000 
0.577662 0.262685 0.000000 
-0.858290 -0.313761 0.000000 
-0.299194 -0.022177 0.000000 
-0.268560 -0.791927 0.000000 
0.286830 0.930431 0.000000 
0.844677 -0.450370 0.000000 
-0.578910 -0.826533 0.000000 
0.000000 -0.335129 0.000000 
0.578910 -0.826533 0.000000 
-0.844677 -0.450370 0.000000 
-0.286830 0.930431 0.000000 
0.268560 -0.791927 0.000000 
-0.610485 -0.104197 0.000000 
0.057734 0.249518 0.000000 
0.714655 0.454685 0.000000 
0.761092 -0.834578 0.000000 
0.765897 0.563573 0.000000 
-0.641556 0.822052 0.000000 
-0.677748 -0.392203 0.000000 
0.067979 -0.254000 0.000000 
0.178789 0.403427 0.000000 
-0.514316 0.869661 0.000000 
0.053800 -0.858208 0.000000 
-0.028512 -0.040848 0.000000 
0.647393 0.166679 0.000000 
0.691820 0.897161 0.000000 
-0.522510 0.995706 0.000000 
-0.393446 -0.368564 0.000000 
0.205471 -0.824251 0.000000 
0.760780 -0.546436 0.000000 
0.642413 0.292545 0.000000 
-0.714996 0.526002 0.000000 
-0.724017 -0.697595 0.000000 
0.006894 -0.533962 0.000000 
0.083078 0.168563 0.000000 
0.897068 0.235416 0.000000 
-0.965681 0.859445 0.000000 
-0.761262 -0.790203 0.000000 
0.142083 0.349059 0.000000 
0.397202 -0.989666 0.000000 
-0.108942 -0.508827 0.000000 
-0.899809 -0.503976 0.000000 
-0.724964 0.138273 0.000000 
0.660903 0.598793 0.000000 
-0.978194 -0.709582 0.000000 
0.595936 -0.209716 0.000000 
0.071546 0.647459 0.000000 
0.220880 -0.721615 0.000000 
-0.445811 -0.278829 0.000000 
-0.180633 0.399330 0.000000 
-0.702895 0.890849 0.000000 
-0.287229 -0.409822 0.000000 
-0.685384 0.091336 0.000000 
-0.957100 -0.201106 0.000000 
-0.820030 0.422966 0.000000 
0.474522 0.849960 0.000000 
0.699407 -0.482761 0.000000 
0.109248 -0.006006 0.000000 
0.441768 0.689445 0.000000 
-0.039645 -0.810684 0.000000 
0.417537 -0.108121 0.000000 
0.033296 0.392388 0.000000 
-0.338794 0.659662 0.000000 
-0.374519 -0.767375 0.000000 
-0.713312 -0.147945 0.000000 
0.609100 -0.259086 0.000000 
-0.381900 -0.145147 0.000000 
-0.756418 0.397245 0.000000 
0.513962 0.185759 0.000000 
0.218274 0.909998 0.000000 
-0.423588 0.875895 0.000000 
-0.384386 0.490622 0.000000 
-0.766286 -0.994758 0.000000 
0.484677 0.740027 0.000000 
0.139443 -0.621848 0.000000 
-0.556234 -0.739417 0.000000 
-0.823577 0.034087 0.000000 
0.550868 0.023291 0.000000 
-0.386873 -0.873609 0.000000 
-0.771260 -0.373220 0.000000 
0.467428 -0.679748 0.000000 
0.105264 -0.081122 0.000000 
-0.621631 -0.263021 0.000000 
-0.937896 0.440559 0.000000 
0.385608 0.361364 0.000000 
0.141715 -0.829408 0.000000 
-0.474677 -0.829312 0.000000 
CELL_DATA 175 
SCALARS MASS float 
LOOKUP_TABLE default 
0.078183 
0.086427 
0.094672 
0.086427 
0.088131 
0.092111 
0.085854 
0.092111 
0.088131 
0.088705 
0.091000 
0.086983 
0.091556 
0.086983 
0.091000 
0.088705 
0.089278 
0.091574 
0.089278 
0.092722 
0.089278 
0.092722 
0.089278 
0.091574 
0.089278 
0.078183 
0.086427 
0.094672 
0.086427 
0.088131 
0.092111 
0.085854 
0.092111 
0.088131 
0.088705 
0.091000 
0.086983 
0.091556 
0.086983 
0.091000 
0.088705 
0.089278 
0.091574 
0.089278 
0.092722 
0.089278 
0.092722 
0.089278 
0.091574 
0.089278 
0.078183 
0.086427 
0.094672 
0.086427 
0.088131 
0.092111 
0.085854 
0.092111 
0.088131 
0.088705 
0.091000 
0.086983 
0.091556 
0.086983 
0.091000 
0.088705 
0.089278 
0.091574 
0.089278 
0.092722 
0.089278 
0.092722 
0.089278 
0.091574 
0.089278 
0.078183 
0.086427 
0.094672 
0.086427 
0.088131 
0.092111 
0.085854 
0.092111 
0.088131 
0.088705 
0.091000 
0.086983 
0.091556 
0.086983 
0.091000 
0.088705 
0.089278 
0.091574 
0.089278 
0.092722 
0.089278 
0.092722 
0.089278 
0.091574 
0.089278 
0.078183 
0.086427 
0.094672 
0.086427 
0.088131 
0.092111 
0.085854 
0.092111 
0.088131 
0.088705 
0.091000 
0.086983 
0.091556 
0.086983 
0.091000 
0.088705 
0.089278 
0.091574 
0.089278 
0.092722 
0.089278 
0.092722 
0.089278 
0.091574 
0.089278 
0.078183 
0.086427 
0.094672 
0.086427 
0.088131 
0.092111 
0.085854 
0.092111 
0.088131 
0.088705 
0.091000 
0.086983 
0.091556 
0.086983 
0.091000 
0.088705 
0.089278 
0.091574 
0.089278 
0.092722 
0.089278 
0.092722 
0.089278 
0.091574 
0.089278 
0.078183 
0.086427 
0.094672 
0.086427 
0.088131 
0.092111 
0.085854 
0.092111 
0.088131 
0.088705 
0.091000 
0.086983 
0.091556 
0.086983 
0.091000 
0.088705 
0.089278 
0.091574 
0.089278 
0.092722 
0.089278 
0.092722 
0.089278 
0.091574 
0.089278 
SCALARS MASS float 
LOOKUP_TABLE default 
0.078183 
0.086427 
0.094672 
0.086427 
0.088131 
0.092111 
0.085854 
0.092111 
0.088131 
0.088705 
0.091000 
0.086983 
0.091556 
0.086983 
0.091000 
0.088705 
0.089278 
0.091574 
0.089278 
0.092722 
0.089278 
0.092722 
0.089278 
0.091574 
0.089278 
0.078183 
0.086427 
0.094672 
0.086427 
0.088131 
0.092111 
0.085854 
0.092111 
0.088131 
0.088705 
0.091000 
0.086983 
0.091556 
0.086983 
0.091000 
0.088705 
0.089278 
0.091574 
0.089278 
0.092722 
0.089278 
0.092722 
0.089278 
0.091574 
0.089278 
0.078183 
0.086427 
0.094672 
0.086427 
0.088131 
0.092111 
0.085854 
0.092111 
0.088131 
0.088705 
0.091000 
0.086983 
0.091556 
0.086983 
0.091000 
0.088705 
0.089278 
0.091574 
0.089278 
0.092722 
0.089278 
0.092722 
0.089278 
0.091574 
0.089278 
0.078183 
0.086427 
0.094672 
0.086427 
0.088131 
0.092111 
0.085854 
0.092111 
0.088131 
0.088705 
0.091000 
0.086983 
0.091556 
0.086983 
0.091000 
0.088705 
0.089278 
0.091574 
0.089278 
0.092722 
0.089278 
0.092722 
0.089278 
0.091574 
0.089278 
0.078183 
0.086427 
0.094672 
0.086427 
0.088131 
0.092111 
0.085854 
0.092111 
0.088131 
0.088705 
0.091000 
0.086983 
0.091556 
0.086983 
0.091000 
0.088705 
0.089278 
0.091574 
0.089278 
0.092722 
0.089278 
0.092722 
0.089278 
0.091574 
0.089278 
0.078183 
0.086427 
0.094672 
0.086427 
0.088131 
0.092111 
0.085854 
0.092111 
0.088131 
0.088705 
0.091000 
0.086983 
0.091556 
0.086983 
0.091000 
0.088705 
0.089278 
0.091574 
0.089278 
0.092722 
0.089278 
0.092722 
0.089278 
0.091574 
0.089278 
0.078183 
0.086427 
0.094672 
0.086427 
0.088131 
0.092111 
0.085854 
0.092111 
0.088131 
0.088705 
0.091000 
0.086983 
0.091556 
0.086983 
0.091000 
0.088705 
0.089278 
0.091574 
0.089278 
0.092722 
0.089278 
0.092722 
0.089278 
0.091574 
0.089278 
SCALARS DENSITY float 
LOOKUP_TABLE default 
20.000000 
20.000000 
20.000000 
20.000000 
20.000000 
20.000000 
20.000000 
20.000000 
20.000000 
20.000000 
20.000000 
20.000000 
20.000000 
20.000000 
20.000000 
20.000000 
20.000000 
20.000000 
20.000000 
20.000000 
20.000000 
20.000000 
20.000000 
20.000000 
20.000000 
20.000000 
20.000000 
20.000000 
20.000000 
20.000000 
20.000000 
20.000000 
20.000000 
20.000000 
20.000000 
20.000000 
20.000000 
20.000000 
20.000000 
20.000000 
20.000000 
20.000000 
20.000000 
20.000000 
20.000000 
20.000000 
20.000000 
20.000000 
20.000000 
20.000000 
20.000000 
20.000000 
20.000000 
20.000000 
20.000000 
20.000000 
20.000000 
20.000000 
20.000000 
20.000000 
20.000000 
20.000000 
20.000000 
20.000000 
20.000000 
20.000000 
20.000000 
20.000000 
20.000000 
20.000000 
20.000000 
20.000000 
20.000000 
20.000000 
20.000000 
20.000000 
20.000000 
20.000000 
20.000000 
20.000000 
20.000000 
20.000000 
20.000000 
20.000000 
20.000000 
20.000000 
20.000000 
20.000000 
20.000000 
20.000000 
20.000000 
20.000000 
20.000000 
20.000000 
20.000000 
20.000000 
20.000000 
20.000000 
20.000000 
20.000000 
20.000000 
20.000000 
20.000000 
20.000000 
20.000000 
20.000000 
20.000000 
20.000000 
20.000000 
20.000000 
20.000000 
20.000000 
20.000000 
20.000000 
20.000000 
20.000000 
20.000000 
20.000000 
20.000000 
20.000000 
20.000000 
20.000000 
20.000000 
20.000000 
20.000000 
20.000000 
20.000000 
20.000000 
20.000000 
20.000000 
20.000000 
20.000000 
20.000000 
20.000000 
20.000000 
20.000000 
20.000000 
20.000000 
20.000000 
20.000000 
20.000000 
20.000000 
20.000000 
20.000000 
20.000000 
20.000000 
20.000000 
20.000000 
20.000000 
20.000000 
20.000000 
20.000000 
20.000000 
20.000000 
20.000000 
20.000000 
20.000000 
20.000000 
20.000000 
20.000000 
20.000000 
20.000000 
20.000000 
20.000000 
20.000000 
20.000000 
20.000000 
20.000000 
20.000000 
20.000000 
20.000000 
20.000000 
20.000000 
20.000000 
20.000000 
SCALARS ELEM_i float 
LOOKUP_TABLE default 
181 
208 
181 
181 
209 
209 
209 
182 
182 
236 
209 
209 
209 
210 
182 
183 
236 
236 
237 
210 
210 
210 
210 
183 
183 
180 
207 
207 
208 
234 
207 
235 
208 
208 
234 
234 
235 
235 
235 
235 
236 
261 
261 
261 
262 
262 
262 
263 
236 
236 
180 
206 
207 
207 
206 
206 
206 
207 
234 
205 
206 
233 
233 
233 
233 
234 
205 
232 
232 
232 
232 
233 
260 
260 
260 
180 
179 
179 
179 
152 
179 
179 
179 
206 
151 
151 
178 
178 
178 
205 
205 
150 
151 
150 
177 
177 
177 
204 
205 
204 
180 
153 
153 
152 
126 
153 
152 
152 
152 
126 
125 
125 
125 
125 
152 
151 
98 
98 
98 
125 
124 
124 
124 
124 
151 
180 
154 
153 
153 
154 
154 
127 
153 
126 
128 
127 
127 
127 
127 
126 
126 
128 
128 
101 
100 
100 
100 
99 
99 
99 
181 
181 
181 
154 
182 
182 
155 
155 
155 
183 
182 
156 
155 
155 
155 
128 
183 
183 
156 
156 
156 
156 
129 
128 
128 
VECTORS VELOCITY float 
0.000000 -2.049113 0.000000 
0.000000 -2.049113 0.000000 
0.000000 -2.049113 0.000000 
-0.000000 -2.049113 0.000000 
-0.000000 -2.049113 0.000000 
-0.000000 -2.049113 0.000000 
-0.000000 -2.049113 0.000000 
0.000000 -2.049113 0.000000 
0.000000 -2.049113 0.000000 
-0.000000 -2.049113 0.000000 
-0.000000 -2.049113 0.000000 
-0.000000 -2.049113 0.000000 
-0.000000 -2.049113 0.000000 
-0.000000 -2.049113 0.000000 
-0.000000 -2.049113 0.000000 
-0.000000 -2.049113 0.000000 
-0.000000 -2.049113 0.000000 
-0.000000 -2.049113 0.000000 
-0.000000 -2.049113 0.000000 
-0.000000 -2.049113 0.000000 
-0.000000 -2.049113 0.000000 
-0.000000 -2.049113 0.000000 
-0.000000 -2.049113 0.000000 
-0.000000 -2.049113 0.000000 
-0.000000 -2.049113 0.000000 
0.000000 -2.049113 0.000000 
0.000000 -2.049113 0.000000 
0.000000 -2.049113 0.000000 
0.000000 -2.049113 0.000000 
0.000000 -2.049113 0.000000 
0.000000 -2.049113 0.000000 
0.000000 -2.049113 0.000000 
0.000000 -2.049113 0.000000 
0.000000 -2.049113 0.000000 
-0.000000 -2.049113 0.000000 
-0.000000 -2.049113 0.000000 
-0.000000 -2.049113 0.000000 
0.000000 -2.049113 0.000000 
0.000000 -2.049113 0.000000 
0.000000 -2.049113 0.000000 
-0.000000 -2.049113 0.000000 
0.000000 -2.049113 0.000000 
0.000000 -2.049113 0.000000 
0.000000 -2.049113 0.000000 
0.000000 -2.049113 0.000000 
-0.000000 -2.049113 0.000000 
0.000000 -2.049113 0.000000 
-0.000000 -2.049113 0.000000 
-0.000000 -2.049113 0.000000 
-0.000000 -2.049113 0.000000 
0.000000 -2.049113 0.000000 
-0.000000 -2.049113 0.000000 
0.000000 -2.049113 0.000000 
0.000000 -2.049113 0.000000 
0.000000 -2.049113 0.000000 
0.000000 -2.049113 0.000000 
0.000000 -2.049113 0.000000 
0.000000 -2.049113 0.000000 
0.000000 -2.049113 0.000000 
0.000000 -2.049113 0.000000 
0.000000 -2.049113 0.000000 
0.000000 -2.049113 0.000000 
0.000000 -2.049113 0.000000 
0.000000 -2.049113 0.000000 
0.000000 -2.049113 0.000000 
-0.000000 -2.049113 0.000000 
0.000000 -2.049113 0.000000 
-0.000000 -2.049113 0.000000 
-0.000000 -2.049113 0.000000 
-0.000000 -2.049113 0.000000 
-0.000000 -2.049113 0.000000 
0.000000 -2.049113 0.000000 
0.000000 -2.049113 0.000000 
-0.000000 -2.049113 0.000000 
-0.000000 -2.049113 0.000000 
0.000000 -2.049113 0.000000 
0.000000 -2.049113 0.000000 
-0.000000 -2.049113 0.000000 
-0.000000 -2.049113 0.000000 
0.000000 -2.049113 0.000000 
0.000000 -2.049113 0.000000 
0.000000 -2.049113 0.000000 
0.000000 -2.049113 0.000000 
0.000000 -2.049113 0.000000 
-0.000000 -2.049113 0.000000 
-0.000000 -2.049113 0.000000 
-0.000000 -2.049113 0.000000 
0.000000 -2.049113 0.000000 
0.000000 -2.049113 0.000000 
0.000000 -2.049113 0.000000 
0.000000 -2.049113 0.000000 
0.000000 -2.049113 0.000000 
0.000000 -2.049113 0.000000 
-0.000000 -2.049113 0.000000 
-0.000000 -2.049113 0.000000 
-0.000000 -2.049113 0.000000 
0.000000 -2.049113 0.000000 
-0.000000 -2.049113 0.000000 
0.000000 -2.049113 0.000000 
-0.000000 -2.049113 0.000000 
0.000000 -2.049113 0.000000 
-0.000000 -2.049113 0.000000 
0.000000 -2.049113 0.000000 
0.000000 -2.049113 0.000000 
-0.000000 -2.049113 0.000000 
-0.000000 -2.049113 0.000000 
-0.000000 -2.049113 0.000000 
-0.000000 -2.049113 0.000000 
-0.000000 -2.049113 0.000000 
-0.000000 -2.049113 0.000000 
-0.000000 -2.049113 0.000000 
-0.000000 -2.049113 0.000000 
-0.000000 -2.049113 0.000000 
-0.000000 -2.049113 0.000000 
-0.000000 -2.049113 0.000000 
-0.000000 -2.049113 0.000000 
0.000000 -2.049113 0.000000 
-0.000000 -2.049113 0.000000 
-0.000000 -2.049113 0.000000 
0.000000 -2.049113 0.000000 
0.000000 -2.049113 0.000000 
0.000000 -2.049113 0.000000 
0.000000 -2.049113 0.000000 
0.000000 -2.049113 0.000000 
0.000000 -2.049113 0.000000 
0.000000 -2.049113 0.000000 
0.000000 -2.049113 0.000000 
0.000000 -2.049113 0.000000 
0.000000 -2.049113 0.000000 
-0.000000 -2.049113 0.000000 
0.000000 -2.049113 0.000000 
0.000000 -2.049113 0.000000 
-0.000000 -2.049113 0.000000 
-0.000000 -2.049113 0.000000 
0.000000 -2.049113 0.000000 
0.000000 -2.049113 0.000000 
0.000000 -2.049113 0.000000 
0.000000 -2.049113 0.000000 
0.000000 -2.049113 0.000000 
-0.000000 -2.049113 0.000000 
-0.000000 -2.049113 0.000000 
0.000000 -2.049113 0.000000 
0.000000 -2.049113 0.000000 
0.000000 -2.049113 0.000000 
0.000000 -2.049113 0.000000 
-0.000000 -2.049113 0.000000 
0.000000 -2.049113 0.000000 
0.000000 -2.049113 0.000000 
0.000000 -2.049113 0.000000 
0.000000 -2.049113 0.000000 
0.000000 -2.049113 0.000000 
0.000000 -2.049113 0.000000 
0.000000 -2.049113 0.000000 
0.000000 -2.049113 0.000000 
-0.000000 -2.049113 0.000000 
-0.000000 -2.049113 0.000000 
-0.000000 -2.049113 0.000000 
-0.000000 -2.049113 0.000000 
-0.000000 -2.049113 0.000000 
-0.000000 -2.049113 0.000000 
-0.000000 -2.049113 0.000000 
0.000000 -2.049113 0.000000 
-0.000000 -2.049113 0.000000 
0.000000 -2.049113 0.000000 
-0.000000 -2.049113 0.000000 
-0.000000 -2.049113 0.000000 
0.000000 -2.049113 0.000000 
-0.000000 -2.049113 0.000000 
-0.000000 -2.049113 0.000000 
0.000000 -2.049113 0.000000 
-0.000000 -2.049113 0.000000 
0.000000 -2.049113 0.000000 
-0.000000 -2.049113 0.000000 
0.000000 -2.049113 0.000000 
0.000000 -2.049113 0.000000 
TENSORS STRESS float 
-0.000000 -0.000000 0.000000 
0.000000 -0.000000 0.000000 
0.000000 0.000000 0.000000 

-0.000000 -0.000000 0.000000 
0.000000 0.000000 0.000000 
0.000000 0.000000 0.000000 

0.000000 -0.000000 0.000000 
0.000000 0.000000 0.000000 
0.000000 0.000000 0.000000 

0.000000 -0.000000 0.000000 
0.000000 0.000000 0.000000 
0.000000 0.000000 0.000000 

0.000000 -0.000000 0.000000 
0.000000 0.000000 0.000000 
0.000000 0.000000 0.000000 

0.000000 -0.000000 0.000000 
0.000000 0.000000 0.000000 
0.000000 0.000000 0.000000 

0.000000 0.000000 0.000000 
0.000000 -0.000000 0.000000 
0.000000 0.000000 0.000000 

-0.000000 -0.000000 0.000000 
0.000000 -0.000000 0.000000 
0.000000 0.000000 0.000000 

-0.000000 -0.000000 0.000000 
0.000000 -0.000000 0.000000 
0.000000 0.000000 0.000000 

-0.000000 -0.000000 0.000000 
0.000000 -0.000000 0.000000 
0.000000 0.000000 0.000000 

0.000000 -0.000000 0.000000 
0.000000 0.000000 0.000000 
0.000000 0.000000 0.000000 

0.000000 -0.000000 0.000000 
0.000000 0.000000 0.000000 
0.000000 0.000000 0.000000 

0.000000 -0.000000 0.000000 
0.000000 -0.000000 0.000000 
0.000000 0.000000 0.000000 

0.000000 -0.000000 0.000000 