# vtk DataFile Version 3.0 
vtk output 
ASCII 
DATASET UNSTRUCTURED_GRID 
POINTS 175 float 
-0.026061 -2.272228 0.000000 
-0.106992 -2.204172 0.000000 
-0.054870 -2.212405 0.000000 
-0.028809 -2.166521 0.000000 
-0.186430 -2.140097 0.000000 
-0.137056 -2.142623 0.000000 
-0.114311 -2.088976 0.000000 
-0.058186 -2.104641 0.000000 
-0.029377 -2.064464 0.000000 
-0.265318 -2.076941 0.000000 
-0.217198 -2.077741 0.000000 
-0.196633 -2.020444 0.000000 
-0.143120 -2.029153 0.000000 
-0.116563 -1.981884 0.000000 
-0.058945 -2.001530 0.000000 
-0.029568 -1.963410 0.000000 
-0.344206 -2.013785 0.000000 
-0.296791 -2.013778 0.000000 
-0.278030 -1.953835 0.000000 
-0.225992 -1.959702 0.000000 
-0.201664 -1.907585 0.000000 
-0.145749 -1.921059 0.000000 
-0.117890 -1.876716 0.000000 
-0.059328 -1.899422 0.000000 
-0.029759 -1.862356 0.000000 
-0.058559 -2.312978 0.000000 
-0.162226 -2.333821 0.000000 
-0.123292 -2.298203 0.000000 
-0.142917 -2.249220 0.000000 
-0.261851 -2.355978 0.000000 
-0.229092 -2.318950 0.000000 
-0.256854 -2.267719 0.000000 
-0.209613 -2.233606 0.000000 
-0.223062 -2.186032 0.000000 
-0.360414 -2.378278 0.000000 
-0.329787 -2.341155 0.000000 
-0.361761 -2.289353 0.000000 
-0.321587 -2.252944 0.000000 
-0.341985 -2.202710 0.000000 
-0.290702 -2.169911 0.000000 
-0.302189 -2.123176 0.000000 
-0.458977 -2.400578 0.000000 
-0.429420 -2.363503 0.000000 
-0.464588 -2.311461 0.000000 
-0.427556 -2.274434 0.000000 
-0.453135 -2.222919 0.000000 
-0.407738 -2.187604 0.000000 
-0.425037 -2.138176 0.000000 
-0.370772 -2.106547 0.000000 
-0.381315 -2.060319 0.000000 
-0.046960 -2.363794 0.000000 
-0.095301 -2.457840 0.000000 
-0.098873 -2.405192 0.000000 
-0.149405 -2.389995 0.000000 
-0.140093 -2.549544 0.000000 
-0.148617 -2.500845 0.000000 
-0.205981 -2.490608 0.000000 
-0.203197 -2.432405 0.000000 
-0.248777 -2.413258 0.000000 
-0.184111 -2.640507 0.000000 
-0.194039 -2.593416 0.000000 
-0.254475 -2.586117 0.000000 
-0.257893 -2.532007 0.000000 
-0.309886 -2.516634 0.000000 
-0.303554 -2.456089 0.000000 
-0.347255 -2.435931 0.000000 
-0.228129 -2.731471 0.000000 
-0.238687 -2.685247 0.000000 
-0.301302 -2.680294 0.000000 
-0.307162 -2.628256 0.000000 
-0.363386 -2.616135 0.000000 
-0.362692 -2.558623 0.000000 
-0.412122 -2.541330 0.000000 
-0.403017 -2.479183 0.000000 
-0.445733 -2.458605 0.000000 
-0.000000 -2.386409 0.000000 
0.043388 -2.482839 0.000000 
-0.000000 -2.452807 0.000000 
-0.043388 -2.482839 0.000000 
0.087158 -2.575036 0.000000 
0.043769 -2.551337 0.000000 
-0.000000 -2.589803 0.000000 
-0.043769 -2.551337 0.000000 
-0.087158 -2.575036 0.000000 
0.130831 -2.666166 0.000000 
0.087824 -2.644567 0.000000 
0.044436 -2.687266 0.000000 
-0.000000 -2.656201 0.000000 
-0.044436 -2.687266 0.000000 
-0.087824 -2.644567 0.000000 
-0.130831 -2.666166 0.000000 
0.174505 -2.757295 0.000000 
0.131782 -2.736729 0.000000 
0.088871 -2.782596 0.000000 
0.044532 -2.754732 0.000000 
-0.000000 -2.791132 0.000000 
-0.044532 -2.754732 0.000000 
-0.088871 -2.782596 0.000000 
-0.131782 -2.736729 0.000000 
-0.174505 -2.757295 0.000000 
0.046960 -2.363794 0.000000 
0.149405 -2.389995 0.000000 
0.098873 -2.405192 0.000000 
0.095301 -2.457840 0.000000 
0.248777 -2.413258 0.000000 
0.203197 -2.432405 0.000000 
0.205981 -2.490608 0.000000 
0.148617 -2.500845 0.000000 
0.140093 -2.549544 0.000000 
0.347255 -2.435931 0.000000 
0.303554 -2.456089 0.000000 
0.309886 -2.516634 0.000000 
0.257893 -2.532007 0.000000 
0.254475 -2.586117 0.000000 
0.194039 -2.593416 0.000000 
0.184111 -2.640507 0.000000 
0.445733 -2.458605 0.000000 
0.403017 -2.479183 0.000000 
0.412122 -2.541330 0.000000 
0.362692 -2.558623 0.000000 
0.363386 -2.616135 0.000000 
0.307162 -2.628256 0.000000 
0.301302 -2.680294 0.000000 
0.238687 -2.685247 0.000000 
0.228129 -2.731471 0.000000 
0.058559 -2.312978 0.000000 
0.142917 -2.249220 0.000000 
0.123292 -2.298203 0.000000 
0.162226 -2.333821 0.000000 
0.223062 -2.186032 0.000000 
0.209613 -2.233606 0.000000 
0.256854 -2.267719 0.000000 
0.229092 -2.318950 0.000000 
0.261851 -2.355978 0.000000 
0.302189 -2.123176 0.000000 
0.290702 -2.169911 0.000000 
0.341985 -2.202710 0.000000 
0.321587 -2.252944 0.000000 
0.361761 -2.289353 0.000000 
0.329787 -2.341155 0.000000 
0.360414 -2.378278 0.000000 
0.381315 -2.060319 0.000000 
0.370772 -2.106547 0.000000 
0.425037 -2.138176 0.000000 
0.407738 -2.187604 0.000000 
0.453135 -2.222919 0.000000 
0.427556 -2.274434 0.000000 
0.464588 -2.311461 0.000000 
0.429420 -2.363503 0.000000 
0.458977 -2.400578 0.000000 
0.026061 -2.272228 0.000000 
0.028809 -2.166521 0.000000 
0.054870 -2.212405 0.000000 
0.106992 -2.204172 0.000000 
0.029377 -2.064464 0.000000 
0.058186 -2.104641 0.000000 
0.114311 -2.088976 0.000000 
0.137056 -2.142623 0.000000 
0.186430 -2.140097 0.000000 
0.029568 -1.963410 0.000000 
0.058945 -2.001530 0.000000 
0.116563 -1.981884 0.000000 
0.143120 -2.029153 0.000000 
0.196633 -2.020444 0.000000 
0.217198 -2.077741 0.000000 
0.265318 -2.076941 0.000000 
0.029759 -1.862356 0.000000 
0.059328 -1.899422 0.000000 
0.117890 -1.876716 0.000000 
0.145749 -1.921059 0.000000 
0.201664 -1.907585 0.000000 
0.225992 -1.959702 0.000000 
0.278030 -1.953835 0.000000 
0.296791 -2.013778 0.000000 
0.344206 -2.013785 0.000000 
CELLS 175 350 
1 0 
1 1 
1 2 
1 3 
1 4 
1 5 
1 6 
1 7 
1 8 
1 9 
1 10 
1 11 
1 12 
1 13 
1 14 
1 15 
1 16 
1 17 
1 18 
1 19 
1 20 
1 21 
1 22 
1 23 
1 24 
1 25 
1 26 
1 27 
1 28 
1 29 
1 30 
1 31 
1 32 
1 33 
1 34 
1 35 
1 36 
1 37 
1 38 
1 39 
1 40 
1 41 
1 42 
1 43 
1 44 
1 45 
1 46 
1 47 
1 48 
1 49 
1 50 
1 51 
1 52 
1 53 
1 54 
1 55 
1 56 
1 57 
1 58 
1 59 
1 60 
1 61 
1 62 
1 63 
1 64 
1 65 
1 66 
1 67 
1 68 
1 69 
1 70 
1 71 
1 72 
1 73 
1 74 
1 75 
1 76 
1 77 
1 78 
1 79 
1 80 
1 81 
1 82 
1 83 
1 84 
1 85 
1 86 
1 87 
1 88 
1 89 
1 90 
1 91 
1 92 
1 93 
1 94 
1 95 
1 96 
1 97 
1 98 
1 99 
1 100 
1 101 
1 102 
1 103 
1 104 
1 105 
1 106 
1 107 
1 108 
1 109 
1 110 
1 111 
1 112 
1 113 
1 114 
1 115 
1 116 
1 117 
1 118 
1 119 
1 120 
1 121 
1 122 
1 123 
1 124 
1 125 
1 126 
1 127 
1 128 
1 129 
1 130 
1 131 
1 132 
1 133 
1 134 
1 135 
1 136 
1 137 
1 138 
1 139 
1 140 
1 141 
1 142 
1 143 
1 144 
1 145 
1 146 
1 147 
1 148 
1 149 
1 150 
1 151 
1 152 
1 153 
1 154 
1 155 
1 156 
1 157 
1 158 
1 159 
1 160 
1 161 
1 162 
1 163 
1 164 
1 165 
1 166 
1 167 
1 168 
1 169 
1 170 
1 171 
1 172 
1 173 
1 174 
CELL_TYPES 175 
1 
1 
1 
1 
1 
1 
1 
1 
1 
1 
1 
1 
1 
1 
1 
1 
1 
1 
1 
1 
1 
1 
1 
1 
1 
1 
1 
1 
1 
1 
1 
1 
1 
1 
1 
1 
1 
1 
1 
1 
1 
1 
1 
1 
1 
1 
1 
1 
1 
1 
1 
1 
1 
1 
1 
1 
1 
1 
1 
1 
1 
1 
1 
1 
1 
1 
1 
1 
1 
1 
1 
1 
1 
1 
1 
1 
1 
1 
1 
1 
1 
1 
1 
1 
1 
1 
1 
1 
1 
1 
1 
1 
1 
1 
1 
1 
1 
1 
1 
1 
1 
1 
1 
1 
1 
1 
1 
1 
1 
1 
1 
1 
1 
1 
1 
1 
1 
1 
1 
1 
1 
1 
1 
1 
1 
1 
1 
1 
1 
1 
1 
1 
1 
1 
1 
1 
1 
1 
1 
1 
1 
1 
1 
1 
1 
1 
1 
1 
1 
1 
1 
1 
1 
1 
1 
1 
1 
1 
1 
1 
1 
1 
1 
1 
1 
1 
1 
1 
1 
1 
1 
1 
1 
1 
1 
POINT_DATA 175 
VECTORS X_GC float 
-0.026061 -2.272228 0.000000 
-0.106992 -2.204172 0.000000 
-0.054870 -2.212405 0.000000 
-0.028809 -2.166521 0.000000 
-0.186430 -2.140097 0.000000 
-0.137056 -2.142623 0.000000 
-0.114311 -2.088976 0.000000 
-0.058186 -2.104641 0.000000 
-0.029377 -2.064464 0.000000 
-0.265318 -2.076941 0.000000 
-0.217198 -2.077741 0.000000 
-0.196633 -2.020444 0.000000 
-0.143120 -2.029153 0.000000 
-0.116563 -1.981884 0.000000 
-0.058945 -2.001530 0.000000 
-0.029568 -1.963410 0.000000 
-0.344206 -2.013785 0.000000 
-0.296791 -2.013778 0.000000 
-0.278030 -1.953835 0.000000 
-0.225992 -1.959702 0.000000 
-0.201664 -1.907585 0.000000 
-0.145749 -1.921059 0.000000 
-0.117890 -1.876716 0.000000 
-0.059328 -1.899422 0.000000 
-0.029759 -1.862356 0.000000 
-0.058559 -2.312978 0.000000 
-0.162226 -2.333821 0.000000 
-0.123292 -2.298203 0.000000 
-0.142917 -2.249220 0.000000 
-0.261851 -2.355978 0.000000 
-0.229092 -2.318950 0.000000 
-0.256854 -2.267719 0.000000 
-0.209613 -2.233606 0.000000 
-0.223062 -2.186032 0.000000 
-0.360414 -2.378278 0.000000 
-0.329787 -2.341155 0.000000 
-0.361761 -2.289353 0.000000 
-0.321587 -2.252944 0.000000 
-0.341985 -2.202710 0.000000 
-0.290702 -2.169911 0.000000 
-0.302189 -2.123176 0.000000 
-0.458977 -2.400578 0.000000 
-0.429420 -2.363503 0.000000 
-0.464588 -2.311461 0.000000 
-0.427556 -2.274434 0.000000 
-0.453135 -2.222919 0.000000 
-0.407738 -2.187604 0.000000 
-0.425037 -2.138176 0.000000 
-0.370772 -2.106547 0.000000 
-0.381315 -2.060319 0.000000 
-0.046960 -2.363794 0.000000 
-0.095301 -2.457840 0.000000 
-0.098873 -2.405192 0.000000 
-0.149405 -2.389995 0.000000 
-0.140093 -2.549544 0.000000 
-0.148617 -2.500845 0.000000 
-0.205981 -2.490608 0.000000 
-0.203197 -2.432405 0.000000 
-0.248777 -2.413258 0.000000 
-0.184111 -2.640507 0.000000 
-0.194039 -2.593416 0.000000 
-0.254475 -2.586117 0.000000 
-0.257893 -2.532007 0.000000 
-0.309886 -2.516634 0.000000 
-0.303554 -2.456089 0.000000 
-0.347255 -2.435931 0.000000 
-0.228129 -2.731471 0.000000 
-0.238687 -2.685247 0.000000 
-0.301302 -2.680294 0.000000 
-0.307162 -2.628256 0.000000 
-0.363386 -2.616135 0.000000 
-0.362692 -2.558623 0.000000 
-0.412122 -2.541330 0.000000 
-0.403017 -2.479183 0.000000 
-0.445733 -2.458605 0.000000 
-0.000000 -2.386409 0.000000 
0.043388 -2.482839 0.000000 
-0.000000 -2.452807 0.000000 
-0.043388 -2.482839 0.000000 
0.087158 -2.575036 0.000000 
0.043769 -2.551337 0.000000 
-0.000000 -2.589803 0.000000 
-0.043769 -2.551337 0.000000 
-0.087158 -2.575036 0.000000 
0.130831 -2.666166 0.000000 
0.087824 -2.644567 0.000000 
0.044436 -2.687266 0.000000 
-0.000000 -2.656201 0.000000 
-0.044436 -2.687266 0.000000 
-0.087824 -2.644567 0.000000 
-0.130831 -2.666166 0.000000 
0.174505 -2.757295 0.000000 
0.131782 -2.736729 0.000000 
0.088871 -2.782596 0.000000 
0.044532 -2.754732 0.000000 
-0.000000 -2.791132 0.000000 
-0.044532 -2.754732 0.000000 
-0.088871 -2.782596 0.000000 
-0.131782 -2.736729 0.000000 
-0.174505 -2.757295 0.000000 
0.046960 -2.363794 0.000000 
0.149405 -2.389995 0.000000 
0.098873 -2.405192 0.000000 
0.095301 -2.457840 0.000000 
0.248777 -2.413258 0.000000 
0.203197 -2.432405 0.000000 
0.205981 -2.490608 0.000000 
0.148617 -2.500845 0.000000 
0.140093 -2.549544 0.000000 
0.347255 -2.435931 0.000000 
0.303554 -2.456089 0.000000 
0.309886 -2.516634 0.000000 
0.257893 -2.532007 0.000000 
0.254475 -2.586117 0.000000 
0.194039 -2.593416 0.000000 
0.184111 -2.640507 0.000000 
0.445733 -2.458605 0.000000 
0.403017 -2.479183 0.000000 
0.412122 -2.541330 0.000000 
0.362692 -2.558623 0.000000 
0.363386 -2.616135 0.000000 
0.307162 -2.628256 0.000000 
0.301302 -2.680294 0.000000 
0.238687 -2.685247 0.000000 
0.228129 -2.731471 0.000000 
0.058559 -2.312978 0.000000 
0.142917 -2.249220 0.000000 
0.123292 -2.298203 0.000000 
0.162226 -2.333821 0.000000 
0.223062 -2.186032 0.000000 
0.209613 -2.233606 0.000000 
0.256854 -2.267719 0.000000 
0.229092 -2.318950 0.000000 
0.261851 -2.355978 0.000000 
0.302189 -2.123176 0.000000 
0.290702 -2.169911 0.000000 
0.341985 -2.202710 0.000000 
0.321587 -2.252944 0.000000 
0.361761 -2.289353 0.000000 
0.329787 -2.341155 0.000000 
0.360414 -2.378278 0.000000 
0.381315 -2.060319 0.000000 
0.370772 -2.106547 0.000000 
0.425037 -2.138176 0.000000 
0.407738 -2.187604 0.000000 
0.453135 -2.222919 0.000000 
0.427556 -2.274434 0.000000 
0.464588 -2.311461 0.000000 
0.429420 -2.363503 0.000000 
0.458977 -2.400578 0.000000 
0.026061 -2.272228 0.000000 
0.028809 -2.166521 0.000000 
0.054870 -2.212405 0.000000 
0.106992 -2.204172 0.000000 
0.029377 -2.064464 0.000000 
0.058186 -2.104641 0.000000 
0.114311 -2.088976 0.000000 
0.137056 -2.142623 0.000000 
0.186430 -2.140097 0.000000 
0.029568 -1.963410 0.000000 
0.058945 -2.001530 0.000000 
0.116563 -1.981884 0.000000 
0.143120 -2.029153 0.000000 
0.196633 -2.020444 0.000000 
0.217198 -2.077741 0.000000 
0.265318 -2.076941 0.000000 
0.029759 -1.862356 0.000000 
0.059328 -1.899422 0.000000 
0.117890 -1.876716 0.000000 
0.145749 -1.921059 0.000000 
0.201664 -1.907585 0.000000 
0.225992 -1.959702 0.000000 
0.278030 -1.953835 0.000000 
0.296791 -2.013778 0.000000 
0.344206 -2.013785 0.000000 
VECTORS X_EC float 
0.338794 -0.824925 0.000000 
-0.609100 0.256326 0.000000 
0.713312 0.367467 0.000000 
0.374519 -0.251962 0.000000 
0.423588 -0.608693 0.000000 
-0.218274 -0.574589 0.000000 
-0.513962 0.701172 0.000000 
0.756418 0.912658 0.000000 
0.381900 0.370266 0.000000 
-0.550868 0.538704 0.000000 
0.823577 0.549500 0.000000 
0.556234 -0.224005 0.000000 
-0.139443 -0.106436 0.000000 
-0.484677 -0.744560 0.000000 
0.766286 -0.479345 0.000000 
0.384386 -0.993965 0.000000 
0.474677 -0.313899 0.000000 
-0.141715 -0.313996 0.000000 
-0.385608 0.876776 0.000000 
0.937896 0.955972 0.000000 
0.621631 0.252392 0.000000 
-0.105264 0.434291 0.000000 
-0.467428 -0.164335 0.000000 
0.771260 0.142193 0.000000 
0.386873 -0.358196 0.000000 
0.761262 -0.274791 0.000000 
0.108942 0.006586 0.000000 
-0.397202 -0.474253 0.000000 
-0.142083 0.864471 0.000000 
-0.595936 0.305697 0.000000 
0.978194 -0.194169 0.000000 
-0.660903 -0.885794 0.000000 
0.724964 0.653686 0.000000 
0.899809 0.011437 0.000000 
0.685384 0.606749 0.000000 
0.287229 0.105590 0.000000 
0.702895 -0.593738 0.000000 
0.180633 0.914743 0.000000 
0.445811 0.236583 0.000000 
-0.220880 -0.206203 0.000000 
-0.071546 -0.837128 0.000000 
-0.033296 0.907801 0.000000 
-0.417537 0.407291 0.000000 
0.039645 -0.295271 0.000000 
-0.441768 -0.795142 0.000000 
-0.109248 0.509407 0.000000 
-0.699407 0.032651 0.000000 
-0.474522 -0.634628 0.000000 
0.820030 0.938379 0.000000 
0.957100 0.314307 0.000000 
0.610485 0.411216 0.000000 
-0.761092 -0.319165 0.000000 
-0.714655 0.970097 0.000000 
-0.057734 0.764930 0.000000 
-0.178789 0.918839 0.000000 
-0.067979 0.261413 0.000000 
0.677748 0.123210 0.000000 
0.641556 -0.662536 0.000000 
-0.765897 -0.921014 0.000000 
0.393446 0.146848 0.000000 
0.522510 -0.488882 0.000000 
-0.691820 -0.587426 0.000000 
-0.647393 0.682091 0.000000 
0.028512 0.474565 0.000000 
-0.053800 -0.342796 0.000000 
0.514316 -0.614926 0.000000 
0.965681 -0.625143 0.000000 
-0.897068 0.750829 0.000000 
-0.083078 0.683976 0.000000 
-0.006893 -0.018549 0.000000 
0.724017 -0.182182 0.000000 
0.714996 -0.958586 0.000000 
-0.642413 0.807957 0.000000 
-0.760780 -0.031023 0.000000 
-0.205471 -0.308839 0.000000 
0.000000 0.716517 0.000000 
-0.564049 0.018330 0.000000 
0.000000 -0.387106 0.000000 
0.564049 0.018330 0.000000 
0.866949 -0.737015 0.000000 
-0.569003 0.943054 0.000000 
0.000000 -0.537658 0.000000 
0.569003 0.943054 0.000000 
-0.866949 -0.737015 0.000000 
0.299194 0.493235 0.000000 
0.858290 0.201652 0.000000 
-0.577662 0.778097 0.000000 
0.000000 0.358719 0.000000 
0.577662 0.778097 0.000000 
-0.858290 0.201652 0.000000 
-0.299194 0.493235 0.000000 
-0.268560 -0.276514 0.000000 
0.286830 -0.554156 0.000000 
0.844677 0.065042 0.000000 
-0.578910 -0.311121 0.000000 
0.000000 0.180283 0.000000 
0.578910 -0.311121 0.000000 
-0.844677 0.065042 0.000000 
-0.286830 -0.554156 0.000000 
0.268560 -0.276514 0.000000 
-0.610485 0.411216 0.000000 
0.057734 0.764930 0.000000 
0.714655 0.970097 0.000000 
0.761092 -0.319165 0.000000 
0.765897 -0.921014 0.000000 
-0.641556 -0.662536 0.000000 
-0.677748 0.123210 0.000000 
0.067979 0.261413 0.000000 
0.178789 0.918839 0.000000 
-0.514316 -0.614926 0.000000 
0.053800 -0.342796 0.000000 
-0.028512 0.474565 0.000000 
0.647393 0.682091 0.000000 
0.691820 -0.587426 0.000000 
-0.522510 -0.488882 0.000000 
-0.393446 0.146848 0.000000 
0.205471 -0.308839 0.000000 
0.760780 -0.031023 0.000000 
0.642413 0.807957 0.000000 
-0.714996 -0.958586 0.000000 
-0.724017 -0.182182 0.000000 
0.006894 -0.018549 0.000000 
0.083078 0.683976 0.000000 
0.897068 0.750829 0.000000 
-0.965681 -0.625143 0.000000 
-0.761262 -0.274791 0.000000 
0.142083 0.864471 0.000000 
0.397202 -0.474253 0.000000 
-0.108942 0.006586 0.000000 
-0.899809 0.011437 0.000000 
-0.724964 0.653686 0.000000 
0.660903 -0.885794 0.000000 
-0.978194 -0.194169 0.000000 
0.595936 0.305697 0.000000 
0.071546 -0.837128 0.000000 
0.220880 -0.206203 0.000000 
-0.445811 0.236583 0.000000 
-0.180633 0.914743 0.000000 
-0.702895 -0.593738 0.000000 
-0.287229 0.105590 0.000000 
-0.685384 0.606749 0.000000 
-0.957100 0.314307 0.000000 
-0.820030 0.938379 0.000000 
0.474522 -0.634628 0.000000 
0.699407 0.032651 0.000000 
0.109248 0.509407 0.000000 
0.441768 -0.795142 0.000000 
-0.039645 -0.295271 0.000000 
0.417537 0.407291 0.000000 
0.033296 0.907801 0.000000 
-0.338794 -0.824925 0.000000 
-0.374519 -0.251962 0.000000 
-0.713312 0.367467 0.000000 
0.609100 0.256326 0.000000 
-0.381900 0.370266 0.000000 
-0.756418 0.912658 0.000000 
0.513962 0.701172 0.000000 
0.218274 -0.574589 0.000000 
-0.423588 -0.608693 0.000000 
-0.384386 -0.993965 0.000000 
-0.766286 -0.479345 0.000000 
0.484677 -0.744560 0.000000 
0.139443 -0.106436 0.000000 
-0.556234 -0.224005 0.000000 
-0.823577 0.549500 0.000000 
0.550868 0.538704 0.000000 
-0.386873 -0.358196 0.000000 
-0.771260 0.142193 0.000000 
0.467428 -0.164335 0.000000 
0.105264 0.434291 0.000000 
-0.621631 0.252392 0.000000 
-0.937896 0.955972 0.000000 
0.385608 0.876776 0.000000 
0.141715 -0.313996 0.000000 
-0.474677 -0.313899 0.000000 
CELL_DATA 175 
SCALARS MASS float 
LOOKUP_TABLE default 
0.078183 
0.086427 
0.094672 
0.086427 
0.088131 
0.092111 
0.085854 
0.092111 
0.088131 
0.088705 
0.091000 
0.086983 
0.091556 
0.086983 
0.091000 
0.088705 
0.089278 
0.091574 
0.089278 
0.092722 
0.089278 
0.092722 
0.089278 
0.091574 
0.089278 
0.078183 
0.086427 
0.094672 
0.086427 
0.088131 
0.092111 
0.085854 
0.092111 
0.088131 
0.088705 
0.091000 
0.086983 
0.091556 
0.086983 
0.091000 
0.088705 
0.089278 
0.091574 
0.089278 
0.092722 
0.089278 
0.092722 
0.089278 
0.091574 
0.089278 
0.078183 
0.086427 
0.094672 
0.086427 
0.088131 
0.092111 
0.085854 
0.092111 
0.088131 
0.088705 
0.091000 
0.086983 
0.091556 
0.086983 
0.091000 
0.088705 
0.089278 
0.091574 
0.089278 
0.092722 
0.089278 
0.092722 
0.089278 
0.091574 
0.089278 
0.078183 
0.086427 
0.094672 
0.086427 
0.088131 
0.092111 
0.085854 
0.092111 
0.088131 
0.088705 
0.091000 
0.086983 
0.091556 
0.086983 
0.091000 
0.088705 
0.089278 
0.091574 
0.089278 
0.092722 
0.089278 
0.092722 
0.089278 
0.091574 
0.089278 
0.078183 
0.086427 
0.094672 
0.086427 
0.088131 
0.092111 
0.085854 
0.092111 
0.088131 
0.088705 
0.091000 
0.086983 
0.091556 
0.086983 
0.091000 
0.088705 
0.089278 
0.091574 
0.089278 
0.092722 
0.089278 
0.092722 
0.089278 
0.091574 
0.089278 
0.078183 
0.086427 
0.094672 
0.086427 
0.088131 
0.092111 
0.085854 
0.092111 
0.088131 
0.088705 
0.091000 
0.086983 
0.091556 
0.086983 
0.091000 
0.088705 
0.089278 
0.091574 
0.089278 
0.092722 
0.089278 
0.092722 
0.089278 
0.091574 
0.089278 
0.078183 
0.086427 
0.094672 
0.086427 
0.088131 
0.092111 
0.085854 
0.092111 
0.088131 
0.088705 
0.091000 
0.086983 
0.091556 
0.086983 
0.091000 
0.088705 
0.089278 
0.091574 
0.089278 
0.092722 
0.089278 
0.092722 
0.089278 
0.091574 
0.089278 
SCALARS MASS float 
LOOKUP_TABLE default 
0.078183 
0.086427 
0.094672 
0.086427 
0.088131 
0.092111 
0.085854 
0.092111 
0.088131 
0.088705 
0.091000 
0.086983 
0.091556 
0.086983 
0.091000 
0.088705 
0.089278 
0.091574 
0.089278 
0.092722 
0.089278 
0.092722 
0.089278 
0.091574 
0.089278 
0.078183 
0.086427 
0.094672 
0.086427 
0.088131 
0.092111 
0.085854 
0.092111 
0.088131 
0.088705 
0.091000 
0.086983 
0.091556 
0.086983 
0.091000 
0.088705 
0.089278 
0.091574 
0.089278 
0.092722 
0.089278 
0.092722 
0.089278 
0.091574 
0.089278 
0.078183 
0.086427 
0.094672 
0.086427 
0.088131 
0.092111 
0.085854 
0.092111 
0.088131 
0.088705 
0.091000 
0.086983 
0.091556 
0.086983 
0.091000 
0.088705 
0.089278 
0.091574 
0.089278 
0.092722 
0.089278 
0.092722 
0.089278 
0.091574 
0.089278 
0.078183 
0.086427 
0.094672 
0.086427 
0.088131 
0.092111 
0.085854 
0.092111 
0.088131 
0.088705 
0.091000 
0.086983 
0.091556 
0.086983 
0.091000 
0.088705 
0.089278 
0.091574 
0.089278 
0.092722 
0.089278 
0.092722 
0.089278 
0.091574 
0.089278 
0.078183 
0.086427 
0.094672 
0.086427 
0.088131 
0.092111 
0.085854 
0.092111 
0.088131 
0.088705 
0.091000 
0.086983 
0.091556 
0.086983 
0.091000 
0.088705 
0.089278 
0.091574 
0.089278 
0.092722 
0.089278 
0.092722 
0.089278 
0.091574 
0.089278 
0.078183 
0.086427 
0.094672 
0.086427 
0.088131 
0.092111 
0.085854 
0.092111 
0.088131 
0.088705 
0.091000 
0.086983 
0.091556 
0.086983 
0.091000 
0.088705 
0.089278 
0.091574 
0.089278 
0.092722 
0.089278 
0.092722 
0.089278 
0.091574 
0.089278 
0.078183 
0.086427 
0.094672 
0.086427 
0.088131 
0.092111 
0.085854 
0.092111 
0.088131 
0.088705 
0.091000 
0.086983 
0.091556 
0.086983 
0.091000 
0.088705 
0.089278 
0.091574 
0.089278 
0.092722 
0.089278 
0.092722 
0.089278 
0.091574 
0.089278 
SCALARS DENSITY float 
LOOKUP_TABLE default 
20.000000 
20.000000 
20.000000 
20.000000 
20.000000 
20.000000 
20.000000 
20.000000 
20.000000 
20.000000 
20.000000 
20.000000 
20.000000 
20.000000 
20.000000 
20.000000 
20.000000 
20.000000 
20.000000 
20.000000 
20.000000 
20.000000 
20.000000 
20.000000 
20.000000 
20.000000 
20.000000 
20.000000 
20.000000 
20.000000 
20.000000 
20.000000 
20.000000 
20.000000 
20.000000 
20.000000 
20.000000 
20.000000 
20.000000 
20.000000 
20.000000 
20.000000 
20.000000 
20.000000 
20.000000 
20.000000 
20.000000 
20.000000 
20.000000 
20.000000 
20.000000 
20.000000 
20.000000 
20.000000 
20.000000 
20.000000 
20.000000 
20.000000 
20.000000 
20.000000 
20.000000 
20.000000 
20.000000 
20.000000 
20.000000 
20.000000 
20.000000 
20.000000 
20.000000 
20.000000 
20.000000 
20.000000 
20.000000 
20.000000 
20.000000 
20.000000 
20.000000 
20.000000 
20.000000 
20.000000 
20.000000 
20.000000 
20.000000 
20.000000 
20.000000 
20.000000 
20.000000 
20.000000 
20.000000 
20.000000 
20.000000 
20.000000 
20.000000 
20.000000 
20.000000 
20.000000 
20.000000 
20.000000 
20.000000 
20.000000 
20.000000 
20.000000 
20.000000 
20.000000 
20.000000 
20.000000 
20.000000 
20.000000 
20.000000 
20.000000 
20.000000 
20.000000 
20.000000 
20.000000 
20.000000 
20.000000 
20.000000 
20.000000 
20.000000 
20.000000 
20.000000 
20.000000 
20.000000 
20.000000 
20.000000 
20.000000 
20.000000 
20.000000 
20.000000 
20.000000 
20.000000 
20.000000 
20.000000 
20.000000 
20.000000 
20.000000 
20.000000 
20.000000 
20.000000 
20.000000 
20.000000 
20.000000 
20.000000 
20.000000 
20.000000 
20.000000 
20.000000 
20.000000 
20.000000 
20.000000 
20.000000 
20.000000 
20.000000 
20.000000 
20.000000 
20.000000 
20.000000 
20.000000 
20.000000 
20.000000 
20.000000 
20.000000 
20.000000 
20.000000 
20.000000 
20.000000 
20.000000 
20.000000 
20.000000 
20.000000 
20.000000 
20.000000 
20.000000 
20.000000 
20.000000 
SCALARS ELEM_i float 
LOOKUP_TABLE default 
166 
194 
167 
167 
194 
194 
195 
168 
168 
222 
195 
195 
195 
195 
168 
168 
222 
222 
223 
196 
196 
196 
196 
169 
169 
166 
193 
193 
194 
220 
193 
220 
194 
194 
220 
220 
220 
221 
221 
221 
221 
247 
247 
247 
247 
248 
248 
248 
222 
222 
166 
192 
193 
193 
192 
192 
192 
192 
219 
191 
191 
218 
219 
219 
219 
219 
190 
218 
218 
218 
218 
218 
246 
246 
246 
166 
165 
165 
165 
137 
165 
164 
165 
191 
137 
137 
164 
164 
164 
191 
191 
136 
136 
136 
163 
163 
163 
190 
190 
190 
166 
139 
139 
138 
111 
138 
138 
138 
138 
111 
111 
111 
111 
110 
137 
137 
84 
84 
84 
110 
110 
110 
110 
110 
136 
166 
140 
139 
139 
140 
140 
112 
139 
112 
113 
113 
113 
113 
112 
112 
112 
114 
114 
86 
86 
86 
85 
85 
85 
85 
166 
167 
167 
140 
168 
168 
141 
140 
140 
168 
168 
141 
141 
141 
141 
114 
169 
169 
142 
142 
142 
142 
115 
114 
114 
VECTORS VELOCITY float 
-0.000000 -6.755558 0.000000 
-0.000000 -6.755558 0.000000 
-0.000000 -6.755558 0.000000 
-0.000000 -6.755558 0.000000 
-0.000000 -6.755558 0.000000 
-0.000000 -6.755558 0.000000 
0.000000 -6.755558 0.000000 
-0.000000 -6.755558 0.000000 
0.000000 -6.755558 0.000000 
0.000000 -6.755558 0.000000 
0.000000 -6.755558 0.000000 
-0.000000 -6.755558 0.000000 
-0.000000 -6.755558 0.000000 
0.000000 -6.755558 0.000000 
0.000000 -6.755558 0.000000 
0.000000 -6.755558 0.000000 
-0.000000 -6.755558 0.000000 
-0.000000 -6.755558 0.000000 
-0.000000 -6.755558 0.000000 
0.000000 -6.755558 0.000000 
-0.000000 -6.755558 0.000000 
-0.000000 -6.755558 0.000000 
0.000000 -6.755558 0.000000 
-0.000000 -6.755558 0.000000 
-0.000000 -6.755558 0.000000 
0.000000 -6.755558 0.000000 
0.000000 -6.755558 0.000000 
0.000000 -6.755558 0.000000 
-0.000000 -6.755558 0.000000 
0.000000 -6.755558 0.000000 
0.000000 -6.755558 0.000000 
-0.000000 -6.755558 0.000000 
-0.000000 -6.755558 0.000000 
-0.000000 -6.755558 0.000000 
-0.000000 -6.755558 0.000000 
-0.000000 -6.755558 0.000000 
0.000000 -6.755558 0.000000 
0.000000 -6.755558 0.000000 
-0.000000 -6.755558 0.000000 
-0.000000 -6.755558 0.000000 
0.000000 -6.755558 0.000000 
-0.000000 -6.755558 0.000000 
-0.000000 -6.755558 0.000000 
-0.000000 -6.755558 0.000000 
-0.000000 -6.755558 0.000000 
-0.000000 -6.755558 0.000000 
-0.000000 -6.755558 0.000000 
0.000000 -6.755558 0.000000 
0.000000 -6.755558 0.000000 
-0.000000 -6.755558 0.000000 
0.000000 -6.755558 0.000000 
0.000000 -6.755558 0.000000 
0.000000 -6.755558 0.000000 
0.000000 -6.755558 0.000000 
0.000000 -6.755558 0.000000 
-0.000000 -6.755558 0.000000 
-0.000000 -6.755558 0.000000 
-0.000000 -6.755558 0.000000 
-0.000000 -6.755558 0.000000 
0.000000 -6.755558 0.000000 
0.000000 -6.755558 0.000000 
-0.000000 -6.755558 0.000000 
-0.000000 -6.755558 0.000000 
-0.000000 -6.755558 0.000000 
-0.000000 -6.755558 0.000000 
-0.000000 -6.755558 0.000000 
0.000000 -6.755558 0.000000 
-0.000000 -6.755558 0.000000 
0.000000 -6.755558 0.000000 
0.000000 -6.755558 0.000000 
-0.000000 -6.755558 0.000000 
-0.000000 -6.755558 0.000000 
0.000000 -6.755558 0.000000 
0.000000 -6.755558 0.000000 
0.000000 -6.755558 0.000000 
0.000000 -6.755558 0.000000 
0.000000 -6.755558 0.000000 
0.000000 -6.755558 0.000000 
0.000000 -6.755558 0.000000 
0.000000 -6.755558 0.000000 
-0.000000 -6.755558 0.000000 
0.000000 -6.755558 0.000000 
0.000000 -6.755558 0.000000 
0.000000 -6.755558 0.000000 
0.000000 -6.755558 0.000000 
0.000000 -6.755558 0.000000 
0.000000 -6.755558 0.000000 
0.000000 -6.755558 0.000000 
0.000000 -6.755558 0.000000 
-0.000000 -6.755558 0.000000 
-0.000000 -6.755558 0.000000 
0.000000 -6.755558 0.000000 
-0.000000 -6.755558 0.000000 
0.000000 -6.755558 0.000000 
-0.000000 -6.755558 0.000000 
0.000000 -6.755558 0.000000 
0.000000 -6.755558 0.000000 
-0.000000 -6.755558 0.000000 
0.000000 -6.755558 0.000000 
-0.000000 -6.755558 0.000000 
-0.000000 -6.755558 0.000000 
-0.000000 -6.755558 0.000000 
-0.000000 -6.755558 0.000000 
-0.000000 -6.755558 0.000000 
0.000000 -6.755558 0.000000 
-0.000000 -6.755558 0.000000 
0.000000 -6.755558 0.000000 
-0.000000 -6.755558 0.000000 
-0.000000 -6.755558 0.000000 
0.000000 -6.755558 0.000000 
0.000000 -6.755558 0.000000 
-0.000000 -6.755558 0.000000 
-0.000000 -6.755558 0.000000 
-0.000000 -6.755558 0.000000 
-0.000000 -6.755558 0.000000 
0.000000 -6.755558 0.000000 
-0.000000 -6.755558 0.000000 
0.000000 -6.755558 0.000000 
-0.000000 -6.755558 0.000000 
0.000000 -6.755558 0.000000 
0.000000 -6.755558 0.000000 
-0.000000 -6.755558 0.000000 
-0.000000 -6.755558 0.000000 
0.000000 -6.755558 0.000000 
-0.000000 -6.755558 0.000000 
-0.000000 -6.755558 0.000000 
0.000000 -6.755558 0.000000 
-0.000000 -6.755558 0.000000 
-0.000000 -6.755558 0.000000 
-0.000000 -6.755558 0.000000 
-0.000000 -6.755558 0.000000 
0.000000 -6.755558 0.000000 
0.000000 -6.755558 0.000000 
0.000000 -6.755558 0.000000 
0.000000 -6.755558 0.000000 
-0.000000 -6.755558 0.000000 
0.000000 -6.755558 0.000000 
0.000000 -6.755558 0.000000 
0.000000 -6.755558 0.000000 
0.000000 -6.755558 0.000000 
0.000000 -6.755558 0.000000 
0.000000 -6.755558 0.000000 
0.000000 -6.755558 0.000000 
-0.000000 -6.755558 0.000000 
-0.000000 -6.755558 0.000000 
-0.000000 -6.755558 0.000000 
0.000000 -6.755558 0.000000 
0.000000 -6.755558 0.000000 
0.000000 -6.755558 0.000000 
-0.000000 -6.755558 0.000000 
-0.000000 -6.755558 0.000000 
0.000000 -6.755558 0.000000 
0.000000 -6.755558 0.000000 
0.000000 -6.755558 0.000000 
0.000000 -6.755558 0.000000 
0.000000 -6.755558 0.000000 
0.000000 -6.755558 0.000000 
0.000000 -6.755558 0.000000 
0.000000 -6.755558 0.000000 
0.000000 -6.755558 0.000000 
0.000000 -6.755558 0.000000 
0.000000 -6.755558 0.000000 
0.000000 -6.755558 0.000000 
-0.000000 -6.755558 0.000000 
0.000000 -6.755558 0.000000 
0.000000 -6.755558 0.000000 
-0.000000 -6.755558 0.000000 
0.000000 -6.755558 0.000000 
0.000000 -6.755558 0.000000 
0.000000 -6.755558 0.000000 
0.000000 -6.755558 0.000000 
-0.000000 -6.755558 0.000000 
-0.000000 -6.755558 0.000000 
-0.000000 -6.755558 0.000000 
-0.000000 -6.755558 0.000000 
TENSORS STRESS float 
0.000000 -0.000000 0.000000 
0.000000 -0.000000 0.000000 
0.000000 0.000000 0.000000 

0.000000 -0.000000 0.000000 
0.000000 0.000000 0.000000 
0.000000 0.000000 0.000000 

0.000000 0.000000 0.000000 
0.000000 -0.000000 0.000000 
0.000000 0.000000 0.000000 

0.000000 0.000000 0.000000 
0.000000 -0.000000 0.000000 
0.000000 0.000000 0.000000 

0.000000 -0.000000 0.000000 
0.000000 0.000000 0.000000 
0.000000 0.000000 0.000000 

0.000000 -0.000000 0.000000 
0.000000 0.000000 0.000000 
0.000000 0.000000 0.000000 

0.000000 0.000000 0.000000 
0.000000 0.000000 0.000000 
0.000000 0.000000 0.000000 

0.000000 0.000000 0.000000 
0.000000 -0.000000 0.000000 
0.000000 0.000000 0.000000 

-0.000000 0.000000 0.000000 
0.000000 -0.000000 0.000000 
0.000000 0.000000 0.000000 

0.000000 0.000000 0.000000 
0.000000 -0.000000 0.000000 
0.000000 0.000000 0.000000 

0.000000 -0.000000 0.000000 
0.000000 -0.000000 0.000000 
0.000000 0.000000 0.000000 

0.000000 -0.000000 0.000000 
0.000000 0.000000 0.000000 
0.000000 0.000000 0.000000 

0.000000 -0.000000 0.000000 
0.000000 0.000000 0.000000 