# vtk DataFile Version 3.0 
vtk output 
ASCII 
DATASET UNSTRUCTURED_GRID 
POINTS 175 float 
-0.026061 -0.189804 0.000000 
-0.106992 -0.121749 0.000000 
-0.054870 -0.129982 0.000000 
-0.028809 -0.084098 0.000000 
-0.186430 -0.057673 0.000000 
-0.137056 -0.060200 0.000000 
-0.114311 -0.006552 0.000000 
-0.058186 -0.022218 0.000000 
-0.029377 0.017959 0.000000 
-0.265318 0.005482 0.000000 
-0.217198 0.004683 0.000000 
-0.196633 0.061979 0.000000 
-0.143120 0.053270 0.000000 
-0.116563 0.100539 0.000000 
-0.058945 0.080893 0.000000 
-0.029568 0.119013 0.000000 
-0.344206 0.068638 0.000000 
-0.296791 0.068645 0.000000 
-0.278030 0.128588 0.000000 
-0.225992 0.122722 0.000000 
-0.201664 0.174839 0.000000 
-0.145749 0.161365 0.000000 
-0.117890 0.205707 0.000000 
-0.059328 0.183002 0.000000 
-0.029759 0.220068 0.000000 
-0.058559 -0.230555 0.000000 
-0.162226 -0.251398 0.000000 
-0.123292 -0.215780 0.000000 
-0.142917 -0.166797 0.000000 
-0.261851 -0.273554 0.000000 
-0.229092 -0.236527 0.000000 
-0.256854 -0.185296 0.000000 
-0.209613 -0.151183 0.000000 
-0.223062 -0.103609 0.000000 
-0.360414 -0.295854 0.000000 
-0.329787 -0.258731 0.000000 
-0.361761 -0.206929 0.000000 
-0.321587 -0.170521 0.000000 
-0.341985 -0.120287 0.000000 
-0.290702 -0.087488 0.000000 
-0.302189 -0.040752 0.000000 
-0.458977 -0.318154 0.000000 
-0.429420 -0.281080 0.000000 
-0.464588 -0.229038 0.000000 
-0.427556 -0.192011 0.000000 
-0.453135 -0.140496 0.000000 
-0.407738 -0.105180 0.000000 
-0.425037 -0.055752 0.000000 
-0.370772 -0.024123 0.000000 
-0.381315 0.022104 0.000000 
-0.046960 -0.281370 0.000000 
-0.095301 -0.375416 0.000000 
-0.098873 -0.322769 0.000000 
-0.149405 -0.307571 0.000000 
-0.140093 -0.467120 0.000000 
-0.148617 -0.418422 0.000000 
-0.205981 -0.408185 0.000000 
-0.203197 -0.349981 0.000000 
-0.248777 -0.330835 0.000000 
-0.184111 -0.558084 0.000000 
-0.194039 -0.510993 0.000000 
-0.254475 -0.503693 0.000000 
-0.257893 -0.449583 0.000000 
-0.309886 -0.434211 0.000000 
-0.303554 -0.373666 0.000000 
-0.347255 -0.353508 0.000000 
-0.228129 -0.649048 0.000000 
-0.238687 -0.602823 0.000000 
-0.301302 -0.597871 0.000000 
-0.307162 -0.545832 0.000000 
-0.363386 -0.533711 0.000000 
-0.362692 -0.476200 0.000000 
-0.412122 -0.458907 0.000000 
-0.403017 -0.396760 0.000000 
-0.445733 -0.376181 0.000000 
-0.000000 -0.303985 0.000000 
0.043388 -0.400416 0.000000 
-0.000000 -0.370384 0.000000 
-0.043388 -0.400416 0.000000 
0.087158 -0.492613 0.000000 
0.043769 -0.468914 0.000000 
-0.000000 -0.507380 0.000000 
-0.043769 -0.468914 0.000000 
-0.087158 -0.492613 0.000000 
0.130831 -0.583742 0.000000 
0.087824 -0.562143 0.000000 
0.044436 -0.604843 0.000000 
-0.000000 -0.573778 0.000000 
-0.044436 -0.604843 0.000000 
-0.087824 -0.562143 0.000000 
-0.130831 -0.583742 0.000000 
0.174505 -0.674872 0.000000 
0.131782 -0.654306 0.000000 
0.088871 -0.700172 0.000000 
0.044532 -0.672308 0.000000 
-0.000000 -0.708709 0.000000 
-0.044532 -0.672308 0.000000 
-0.088871 -0.700172 0.000000 
-0.131782 -0.654306 0.000000 
-0.174505 -0.674872 0.000000 
0.046960 -0.281370 0.000000 
0.149405 -0.307571 0.000000 
0.098873 -0.322769 0.000000 
0.095301 -0.375416 0.000000 
0.248777 -0.330835 0.000000 
0.203197 -0.349981 0.000000 
0.205981 -0.408185 0.000000 
0.148617 -0.418422 0.000000 
0.140093 -0.467120 0.000000 
0.347255 -0.353508 0.000000 
0.303554 -0.373666 0.000000 
0.309886 -0.434211 0.000000 
0.257893 -0.449583 0.000000 
0.254475 -0.503693 0.000000 
0.194039 -0.510993 0.000000 
0.184111 -0.558084 0.000000 
0.445733 -0.376181 0.000000 
0.403017 -0.396760 0.000000 
0.412122 -0.458907 0.000000 
0.362692 -0.476200 0.000000 
0.363386 -0.533711 0.000000 
0.307162 -0.545832 0.000000 
0.301302 -0.597871 0.000000 
0.238687 -0.602823 0.000000 
0.228129 -0.649048 0.000000 
0.058559 -0.230555 0.000000 
0.142917 -0.166797 0.000000 
0.123292 -0.215780 0.000000 
0.162226 -0.251398 0.000000 
0.223062 -0.103609 0.000000 
0.209613 -0.151183 0.000000 
0.256854 -0.185296 0.000000 
0.229092 -0.236527 0.000000 
0.261851 -0.273554 0.000000 
0.302189 -0.040752 0.000000 
0.290702 -0.087488 0.000000 
0.341985 -0.120287 0.000000 
0.321587 -0.170521 0.000000 
0.361761 -0.206929 0.000000 
0.329787 -0.258731 0.000000 
0.360414 -0.295854 0.000000 
0.381315 0.022104 0.000000 
0.370772 -0.024123 0.000000 
0.425037 -0.055752 0.000000 
0.407738 -0.105180 0.000000 
0.453135 -0.140496 0.000000 
0.427556 -0.192011 0.000000 
0.464588 -0.229038 0.000000 
0.429420 -0.281080 0.000000 
0.458977 -0.318154 0.000000 
0.026061 -0.189804 0.000000 
0.028809 -0.084098 0.000000 
0.054870 -0.129982 0.000000 
0.106992 -0.121749 0.000000 
0.029377 0.017959 0.000000 
0.058186 -0.022218 0.000000 
0.114311 -0.006552 0.000000 
0.137056 -0.060200 0.000000 
0.186430 -0.057673 0.000000 
0.029568 0.119013 0.000000 
0.058945 0.080893 0.000000 
0.116563 0.100539 0.000000 
0.143120 0.053270 0.000000 
0.196633 0.061979 0.000000 
0.217198 0.004683 0.000000 
0.265318 0.005482 0.000000 
0.029759 0.220068 0.000000 
0.059328 0.183002 0.000000 
0.117890 0.205707 0.000000 
0.145749 0.161365 0.000000 
0.201664 0.174839 0.000000 
0.225992 0.122722 0.000000 
0.278030 0.128588 0.000000 
0.296791 0.068645 0.000000 
0.344206 0.068638 0.000000 
CELLS 175 350 
1 0 
1 1 
1 2 
1 3 
1 4 
1 5 
1 6 
1 7 
1 8 
1 9 
1 10 
1 11 
1 12 
1 13 
1 14 
1 15 
1 16 
1 17 
1 18 
1 19 
1 20 
1 21 
1 22 
1 23 
1 24 
1 25 
1 26 
1 27 
1 28 
1 29 
1 30 
1 31 
1 32 
1 33 
1 34 
1 35 
1 36 
1 37 
1 38 
1 39 
1 40 
1 41 
1 42 
1 43 
1 44 
1 45 
1 46 
1 47 
1 48 
1 49 
1 50 
1 51 
1 52 
1 53 
1 54 
1 55 
1 56 
1 57 
1 58 
1 59 
1 60 
1 61 
1 62 
1 63 
1 64 
1 65 
1 66 
1 67 
1 68 
1 69 
1 70 
1 71 
1 72 
1 73 
1 74 
1 75 
1 76 
1 77 
1 78 
1 79 
1 80 
1 81 
1 82 
1 83 
1 84 
1 85 
1 86 
1 87 
1 88 
1 89 
1 90 
1 91 
1 92 
1 93 
1 94 
1 95 
1 96 
1 97 
1 98 
1 99 
1 100 
1 101 
1 102 
1 103 
1 104 
1 105 
1 106 
1 107 
1 108 
1 109 
1 110 
1 111 
1 112 
1 113 
1 114 
1 115 
1 116 
1 117 
1 118 
1 119 
1 120 
1 121 
1 122 
1 123 
1 124 
1 125 
1 126 
1 127 
1 128 
1 129 
1 130 
1 131 
1 132 
1 133 
1 134 
1 135 
1 136 
1 137 
1 138 
1 139 
1 140 
1 141 
1 142 
1 143 
1 144 
1 145 
1 146 
1 147 
1 148 
1 149 
1 150 
1 151 
1 152 
1 153 
1 154 
1 155 
1 156 
1 157 
1 158 
1 159 
1 160 
1 161 
1 162 
1 163 
1 164 
1 165 
1 166 
1 167 
1 168 
1 169 
1 170 
1 171 
1 172 
1 173 
1 174 
CELL_TYPES 175 
1 
1 
1 
1 
1 
1 
1 
1 
1 
1 
1 
1 
1 
1 
1 
1 
1 
1 
1 
1 
1 
1 
1 
1 
1 
1 
1 
1 
1 
1 
1 
1 
1 
1 
1 
1 
1 
1 
1 
1 
1 
1 
1 
1 
1 
1 
1 
1 
1 
1 
1 
1 
1 
1 
1 
1 
1 
1 
1 
1 
1 
1 
1 
1 
1 
1 
1 
1 
1 
1 
1 
1 
1 
1 
1 
1 
1 
1 
1 
1 
1 
1 
1 
1 
1 
1 
1 
1 
1 
1 
1 
1 
1 
1 
1 
1 
1 
1 
1 
1 
1 
1 
1 
1 
1 
1 
1 
1 
1 
1 
1 
1 
1 
1 
1 
1 
1 
1 
1 
1 
1 
1 
1 
1 
1 
1 
1 
1 
1 
1 
1 
1 
1 
1 
1 
1 
1 
1 
1 
1 
1 
1 
1 
1 
1 
1 
1 
1 
1 
1 
1 
1 
1 
1 
1 
1 
1 
1 
1 
1 
1 
1 
1 
1 
1 
1 
1 
1 
1 
1 
1 
1 
1 
1 
1 
POINT_DATA 175 
VECTORS X_GC float 
-0.026061 -0.189804 0.000000 
-0.106992 -0.121749 0.000000 
-0.054870 -0.129982 0.000000 
-0.028809 -0.084098 0.000000 
-0.186430 -0.057673 0.000000 
-0.137056 -0.060200 0.000000 
-0.114311 -0.006552 0.000000 
-0.058186 -0.022218 0.000000 
-0.029377 0.017959 0.000000 
-0.265318 0.005482 0.000000 
-0.217198 0.004683 0.000000 
-0.196633 0.061979 0.000000 
-0.143120 0.053270 0.000000 
-0.116563 0.100539 0.000000 
-0.058945 0.080893 0.000000 
-0.029568 0.119013 0.000000 
-0.344206 0.068638 0.000000 
-0.296791 0.068645 0.000000 
-0.278030 0.128588 0.000000 
-0.225992 0.122722 0.000000 
-0.201664 0.174839 0.000000 
-0.145749 0.161365 0.000000 
-0.117890 0.205707 0.000000 
-0.059328 0.183002 0.000000 
-0.029759 0.220068 0.000000 
-0.058559 -0.230555 0.000000 
-0.162226 -0.251398 0.000000 
-0.123292 -0.215780 0.000000 
-0.142917 -0.166797 0.000000 
-0.261851 -0.273554 0.000000 
-0.229092 -0.236527 0.000000 
-0.256854 -0.185296 0.000000 
-0.209613 -0.151183 0.000000 
-0.223062 -0.103609 0.000000 
-0.360414 -0.295854 0.000000 
-0.329787 -0.258731 0.000000 
-0.361761 -0.206929 0.000000 
-0.321587 -0.170521 0.000000 
-0.341985 -0.120287 0.000000 
-0.290702 -0.087488 0.000000 
-0.302189 -0.040752 0.000000 
-0.458977 -0.318154 0.000000 
-0.429420 -0.281080 0.000000 
-0.464588 -0.229038 0.000000 
-0.427556 -0.192011 0.000000 
-0.453135 -0.140496 0.000000 
-0.407738 -0.105180 0.000000 
-0.425037 -0.055752 0.000000 
-0.370772 -0.024123 0.000000 
-0.381315 0.022104 0.000000 
-0.046960 -0.281370 0.000000 
-0.095301 -0.375416 0.000000 
-0.098873 -0.322769 0.000000 
-0.149405 -0.307571 0.000000 
-0.140093 -0.467120 0.000000 
-0.148617 -0.418422 0.000000 
-0.205981 -0.408185 0.000000 
-0.203197 -0.349981 0.000000 
-0.248777 -0.330835 0.000000 
-0.184111 -0.558084 0.000000 
-0.194039 -0.510993 0.000000 
-0.254475 -0.503693 0.000000 
-0.257893 -0.449583 0.000000 
-0.309886 -0.434211 0.000000 
-0.303554 -0.373666 0.000000 
-0.347255 -0.353508 0.000000 
-0.228129 -0.649048 0.000000 
-0.238687 -0.602823 0.000000 
-0.301302 -0.597871 0.000000 
-0.307162 -0.545832 0.000000 
-0.363386 -0.533711 0.000000 
-0.362692 -0.476200 0.000000 
-0.412122 -0.458907 0.000000 
-0.403017 -0.396760 0.000000 
-0.445733 -0.376181 0.000000 
-0.000000 -0.303985 0.000000 
0.043388 -0.400416 0.000000 
-0.000000 -0.370384 0.000000 
-0.043388 -0.400416 0.000000 
0.087158 -0.492613 0.000000 
0.043769 -0.468914 0.000000 
-0.000000 -0.507380 0.000000 
-0.043769 -0.468914 0.000000 
-0.087158 -0.492613 0.000000 
0.130831 -0.583742 0.000000 
0.087824 -0.562143 0.000000 
0.044436 -0.604843 0.000000 
-0.000000 -0.573778 0.000000 
-0.044436 -0.604843 0.000000 
-0.087824 -0.562143 0.000000 
-0.130831 -0.583742 0.000000 
0.174505 -0.674872 0.000000 
0.131782 -0.654306 0.000000 
0.088871 -0.700172 0.000000 
0.044532 -0.672308 0.000000 
-0.000000 -0.708709 0.000000 
-0.044532 -0.672308 0.000000 
-0.088871 -0.700172 0.000000 
-0.131782 -0.654306 0.000000 
-0.174505 -0.674872 0.000000 
0.046960 -0.281370 0.000000 
0.149405 -0.307571 0.000000 
0.098873 -0.322769 0.000000 
0.095301 -0.375416 0.000000 
0.248777 -0.330835 0.000000 
0.203197 -0.349981 0.000000 
0.205981 -0.408185 0.000000 
0.148617 -0.418422 0.000000 
0.140093 -0.467120 0.000000 
0.347255 -0.353508 0.000000 
0.303554 -0.373666 0.000000 
0.309886 -0.434211 0.000000 
0.257893 -0.449583 0.000000 
0.254475 -0.503693 0.000000 
0.194039 -0.510993 0.000000 
0.184111 -0.558084 0.000000 
0.445733 -0.376181 0.000000 
0.403017 -0.396760 0.000000 
0.412122 -0.458907 0.000000 
0.362692 -0.476200 0.000000 
0.363386 -0.533711 0.000000 
0.307162 -0.545832 0.000000 
0.301302 -0.597871 0.000000 
0.238687 -0.602823 0.000000 
0.228129 -0.649048 0.000000 
0.058559 -0.230555 0.000000 
0.142917 -0.166797 0.000000 
0.123292 -0.215780 0.000000 
0.162226 -0.251398 0.000000 
0.223062 -0.103609 0.000000 
0.209613 -0.151183 0.000000 
0.256854 -0.185296 0.000000 
0.229092 -0.236527 0.000000 
0.261851 -0.273554 0.000000 
0.302189 -0.040752 0.000000 
0.290702 -0.087488 0.000000 
0.341985 -0.120287 0.000000 
0.321587 -0.170521 0.000000 
0.361761 -0.206929 0.000000 
0.329787 -0.258731 0.000000 
0.360414 -0.295854 0.000000 
0.381315 0.022104 0.000000 
0.370772 -0.024123 0.000000 
0.425037 -0.055752 0.000000 
0.407738 -0.105180 0.000000 
0.453135 -0.140496 0.000000 
0.427556 -0.192011 0.000000 
0.464588 -0.229038 0.000000 
0.429420 -0.281080 0.000000 
0.458977 -0.318154 0.000000 
0.026061 -0.189804 0.000000 
0.028809 -0.084098 0.000000 
0.054870 -0.129982 0.000000 
0.106992 -0.121749 0.000000 
0.029377 0.017959 0.000000 
0.058186 -0.022218 0.000000 
0.114311 -0.006552 0.000000 
0.137056 -0.060200 0.000000 
0.186430 -0.057673 0.000000 
0.029568 0.119013 0.000000 
0.058945 0.080893 0.000000 
0.116563 0.100539 0.000000 
0.143120 0.053270 0.000000 
0.196633 0.061979 0.000000 
0.217198 0.004683 0.000000 
0.265318 0.005482 0.000000 
0.029759 0.220068 0.000000 
0.059328 0.183002 0.000000 
0.117890 0.205707 0.000000 
0.145749 0.161365 0.000000 
0.201664 0.174839 0.000000 
0.225992 0.122722 0.000000 
0.278030 0.128588 0.000000 
0.296791 0.068645 0.000000 
0.344206 0.068638 0.000000 
VECTORS X_EC float 
0.338794 -0.937640 0.000000 
-0.609100 0.143611 0.000000 
0.713312 0.254752 0.000000 
0.374519 -0.364678 0.000000 
0.423588 -0.721408 0.000000 
-0.218274 -0.687305 0.000000 
-0.513962 0.588457 0.000000 
0.756418 0.799943 0.000000 
0.381900 0.257550 0.000000 
-0.550868 0.425989 0.000000 
0.823577 0.436784 0.000000 
0.556234 -0.336720 0.000000 
-0.139443 -0.219151 0.000000 
-0.484677 -0.857276 0.000000 
0.766286 -0.592060 0.000000 
0.384386 0.893319 0.000000 
0.474677 -0.426615 0.000000 
-0.141715 -0.426711 0.000000 
-0.385608 0.764061 0.000000 
0.937896 0.843256 0.000000 
0.621631 0.139676 0.000000 
-0.105264 0.321576 0.000000 
-0.467428 -0.277051 0.000000 
0.771260 0.029478 0.000000 
0.386873 -0.470912 0.000000 
0.761262 -0.387506 0.000000 
0.108942 -0.106129 0.000000 
-0.397202 -0.586969 0.000000 
-0.142083 0.751756 0.000000 
-0.595936 0.192981 0.000000 
0.978194 -0.306885 0.000000 
-0.660903 -0.998510 0.000000 
0.724964 0.540970 0.000000 
0.899809 -0.101278 0.000000 
0.685384 0.494033 0.000000 
0.287229 -0.007125 0.000000 
0.702895 -0.706454 0.000000 
0.180633 0.802028 0.000000 
0.445811 0.123868 0.000000 
-0.220880 -0.318918 0.000000 
-0.071546 -0.949843 0.000000 
-0.033296 0.795086 0.000000 
-0.417537 0.294576 0.000000 
0.039645 -0.407986 0.000000 
-0.441768 -0.907858 0.000000 
-0.109248 0.396692 0.000000 
-0.699407 -0.080064 0.000000 
-0.474522 -0.747343 0.000000 
0.820030 0.825663 0.000000 
0.957100 0.201592 0.000000 
0.610485 0.298500 0.000000 
-0.761092 -0.431880 0.000000 
-0.714655 0.857382 0.000000 
-0.057734 0.652215 0.000000 
-0.178789 0.806124 0.000000 
-0.067979 0.148698 0.000000 
0.677748 0.010494 0.000000 
0.641556 -0.775251 0.000000 
-0.765897 0.966271 0.000000 
0.393446 0.034133 0.000000 
0.522510 -0.601597 0.000000 
-0.691820 -0.700141 0.000000 
-0.647393 0.569376 0.000000 
0.028512 0.361850 0.000000 
-0.053800 -0.455511 0.000000 
0.514316 -0.727642 0.000000 
0.965681 -0.737858 0.000000 
-0.897068 0.638113 0.000000 
-0.083078 0.571260 0.000000 
-0.006893 -0.131264 0.000000 
0.724017 -0.294897 0.000000 
0.714996 0.928699 0.000000 
-0.642413 0.695242 0.000000 
-0.760780 -0.143739 0.000000 
-0.205471 -0.421554 0.000000 
0.000000 0.603802 0.000000 
-0.564049 -0.094385 0.000000 
0.000000 -0.499821 0.000000 
0.564049 -0.094385 0.000000 
0.866949 -0.849730 0.000000 
-0.569003 0.830339 0.000000 
0.000000 -0.650373 0.000000 
0.569003 0.830339 0.000000 
-0.866949 -0.849730 0.000000 
0.299194 0.380520 0.000000 
0.858290 0.088936 0.000000 
-0.577662 0.665382 0.000000 
0.000000 0.246004 0.000000 
0.577662 0.665382 0.000000 
-0.858290 0.088936 0.000000 
-0.299194 0.380520 0.000000 
-0.268560 -0.389230 0.000000 
0.286830 -0.666871 0.000000 
0.844677 -0.047673 0.000000 
-0.578910 -0.423836 0.000000 
0.000000 0.067568 0.000000 
0.578910 -0.423836 0.000000 
-0.844677 -0.047673 0.000000 
-0.286830 -0.666871 0.000000 
0.268560 -0.389230 0.000000 
-0.610485 0.298500 0.000000 
0.057734 0.652215 0.000000 
0.714655 0.857382 0.000000 
0.761092 -0.431880 0.000000 
0.765897 0.966271 0.000000 
-0.641556 -0.775251 0.000000 
-0.677748 0.010494 0.000000 
0.067979 0.148698 0.000000 
0.178789 0.806124 0.000000 
-0.514316 -0.727642 0.000000 
0.053800 -0.455511 0.000000 
-0.028512 0.361850 0.000000 
0.647393 0.569376 0.000000 
0.691820 -0.700141 0.000000 
-0.522510 -0.601597 0.000000 
-0.393446 0.034133 0.000000 
0.205471 -0.421554 0.000000 
0.760780 -0.143739 0.000000 
0.642413 0.695242 0.000000 
-0.714996 0.928699 0.000000 
-0.724017 -0.294897 0.000000 
0.006894 -0.131264 0.000000 
0.083078 0.571260 0.000000 
0.897068 0.638113 0.000000 
-0.965681 -0.737858 0.000000 
-0.761262 -0.387506 0.000000 
0.142083 0.751756 0.000000 
0.397202 -0.586969 0.000000 
-0.108942 -0.106129 0.000000 
-0.899809 -0.101278 0.000000 
-0.724964 0.540970 0.000000 
0.660903 -0.998510 0.000000 
-0.978194 -0.306885 0.000000 
0.595936 0.192981 0.000000 
0.071546 -0.949843 0.000000 
0.220880 -0.318918 0.000000 
-0.445811 0.123868 0.000000 
-0.180633 0.802028 0.000000 
-0.702895 -0.706453 0.000000 
-0.287229 -0.007125 0.000000 
-0.685384 0.494033 0.000000 
-0.957100 0.201592 0.000000 
-0.820030 0.825663 0.000000 
0.474522 -0.747343 0.000000 
0.699407 -0.080064 0.000000 
0.109248 0.396692 0.000000 
0.441768 -0.907858 0.000000 
-0.039645 -0.407986 0.000000 
0.417537 0.294576 0.000000 
0.033296 0.795086 0.000000 
-0.338794 -0.937640 0.000000 
-0.374519 -0.364678 0.000000 
-0.713312 0.254752 0.000000 
0.609100 0.143611 0.000000 
-0.381900 0.257550 0.000000 
-0.756418 0.799943 0.000000 
0.513962 0.588457 0.000000 
0.218274 -0.687305 0.000000 
-0.423588 -0.721408 0.000000 
-0.384386 0.893319 0.000000 
-0.766286 -0.592060 0.000000 
0.484677 -0.857276 0.000000 
0.139443 -0.219151 0.000000 
-0.556234 -0.336720 0.000000 
-0.823577 0.436784 0.000000 
0.550868 0.425989 0.000000 
-0.386873 -0.470912 0.000000 
-0.771260 0.029478 0.000000 
0.467428 -0.277051 0.000000 
0.105264 0.321576 0.000000 
-0.621631 0.139676 0.000000 
-0.937896 0.843256 0.000000 
0.385608 0.764061 0.000000 
0.141715 -0.426711 0.000000 
-0.474677 -0.426615 0.000000 
CELL_DATA 175 
SCALARS MASS float 
LOOKUP_TABLE default 
0.078183 
0.086427 
0.094672 
0.086427 
0.088131 
0.092111 
0.085854 
0.092111 
0.088131 
0.088705 
0.091000 
0.086983 
0.091556 
0.086983 
0.091000 
0.088705 
0.089278 
0.091574 
0.089278 
0.092722 
0.089278 
0.092722 
0.089278 
0.091574 
0.089278 
0.078183 
0.086427 
0.094672 
0.086427 
0.088131 
0.092111 
0.085854 
0.092111 
0.088131 
0.088705 
0.091000 
0.086983 
0.091556 
0.086983 
0.091000 
0.088705 
0.089278 
0.091574 
0.089278 
0.092722 
0.089278 
0.092722 
0.089278 
0.091574 
0.089278 
0.078183 
0.086427 
0.094672 
0.086427 
0.088131 
0.092111 
0.085854 
0.092111 
0.088131 
0.088705 
0.091000 
0.086983 
0.091556 
0.086983 
0.091000 
0.088705 
0.089278 
0.091574 
0.089278 
0.092722 
0.089278 
0.092722 
0.089278 
0.091574 
0.089278 
0.078183 
0.086427 
0.094672 
0.086427 
0.088131 
0.092111 
0.085854 
0.092111 
0.088131 
0.088705 
0.091000 
0.086983 
0.091556 
0.086983 
0.091000 
0.088705 
0.089278 
0.091574 
0.089278 
0.092722 
0.089278 
0.092722 
0.089278 
0.091574 
0.089278 
0.078183 
0.086427 
0.094672 
0.086427 
0.088131 
0.092111 
0.085854 
0.092111 
0.088131 
0.088705 
0.091000 
0.086983 
0.091556 
0.086983 
0.091000 
0.088705 
0.089278 
0.091574 
0.089278 
0.092722 
0.089278 
0.092722 
0.089278 
0.091574 
0.089278 
0.078183 
0.086427 
0.094672 
0.086427 
0.088131 
0.092111 
0.085854 
0.092111 
0.088131 
0.088705 
0.091000 
0.086983 
0.091556 
0.086983 
0.091000 
0.088705 
0.089278 
0.091574 
0.089278 
0.092722 
0.089278 
0.092722 
0.089278 
0.091574 
0.089278 
0.078183 
0.086427 
0.094672 
0.086427 
0.088131 
0.092111 
0.085854 
0.092111 
0.088131 
0.088705 
0.091000 
0.086983 
0.091556 
0.086983 
0.091000 
0.088705 
0.089278 
0.091574 
0.089278 
0.092722 
0.089278 
0.092722 
0.089278 
0.091574 
0.089278 
SCALARS MASS float 
LOOKUP_TABLE default 
0.078183 
0.086427 
0.094672 
0.086427 
0.088131 
0.092111 
0.085854 
0.092111 
0.088131 
0.088705 
0.091000 
0.086983 
0.091556 
0.086983 
0.091000 
0.088705 
0.089278 
0.091574 
0.089278 
0.092722 
0.089278 
0.092722 
0.089278 
0.091574 
0.089278 
0.078183 
0.086427 
0.094672 
0.086427 
0.088131 
0.092111 
0.085854 
0.092111 
0.088131 
0.088705 
0.091000 
0.086983 
0.091556 
0.086983 
0.091000 
0.088705 
0.089278 
0.091574 
0.089278 
0.092722 
0.089278 
0.092722 
0.089278 
0.091574 
0.089278 
0.078183 
0.086427 
0.094672 
0.086427 
0.088131 
0.092111 
0.085854 
0.092111 
0.088131 
0.088705 
0.091000 
0.086983 
0.091556 
0.086983 
0.091000 
0.088705 
0.089278 
0.091574 
0.089278 
0.092722 
0.089278 
0.092722 
0.089278 
0.091574 
0.089278 
0.078183 
0.086427 
0.094672 
0.086427 
0.088131 
0.092111 
0.085854 
0.092111 
0.088131 
0.088705 
0.091000 
0.086983 
0.091556 
0.086983 
0.091000 
0.088705 
0.089278 
0.091574 
0.089278 
0.092722 
0.089278 
0.092722 
0.089278 
0.091574 
0.089278 
0.078183 
0.086427 
0.094672 
0.086427 
0.088131 
0.092111 
0.085854 
0.092111 
0.088131 
0.088705 
0.091000 
0.086983 
0.091556 
0.086983 
0.091000 
0.088705 
0.089278 
0.091574 
0.089278 
0.092722 
0.089278 
0.092722 
0.089278 
0.091574 
0.089278 
0.078183 
0.086427 
0.094672 
0.086427 
0.088131 
0.092111 
0.085854 
0.092111 
0.088131 
0.088705 
0.091000 
0.086983 
0.091556 
0.086983 
0.091000 
0.088705 
0.089278 
0.091574 
0.089278 
0.092722 
0.089278 
0.092722 
0.089278 
0.091574 
0.089278 
0.078183 
0.086427 
0.094672 
0.086427 
0.088131 
0.092111 
0.085854 
0.092111 
0.088131 
0.088705 
0.091000 
0.086983 
0.091556 
0.086983 
0.091000 
0.088705 
0.089278 
0.091574 
0.089278 
0.092722 
0.089278 
0.092722 
0.089278 
0.091574 
0.089278 
SCALARS DENSITY float 
LOOKUP_TABLE default 
20.000000 
20.000000 
20.000000 
20.000000 
20.000000 
20.000000 
20.000000 
20.000000 
20.000000 
20.000000 
20.000000 
20.000000 
20.000000 
20.000000 
20.000000 
20.000000 
20.000000 
20.000000 
20.000000 
20.000000 
20.000000 
20.000000 
20.000000 
20.000000 
20.000000 
20.000000 
20.000000 
20.000000 
20.000000 
20.000000 
20.000000 
20.000000 
20.000000 
20.000000 
20.000000 
20.000000 
20.000000 
20.000000 
20.000000 
20.000000 
20.000000 
20.000000 
20.000000 
20.000000 
20.000000 
20.000000 
20.000000 
20.000000 
20.000000 
20.000000 
20.000000 
20.000000 
20.000000 
20.000000 
20.000000 
20.000000 
20.000000 
20.000000 
20.000000 
20.000000 
20.000000 
20.000000 
20.000000 
20.000000 
20.000000 
20.000000 
20.000000 
20.000000 
20.000000 
20.000000 
20.000000 
20.000000 
20.000000 
20.000000 
20.000000 
20.000000 
20.000000 
20.000000 
20.000000 
20.000000 
20.000000 
20.000000 
20.000000 
20.000000 
20.000000 
20.000000 
20.000000 
20.000000 
20.000000 
20.000000 
20.000000 
20.000000 
20.000000 
20.000000 
20.000000 
20.000000 
20.000000 
20.000000 
20.000000 
20.000000 
20.000000 
20.000000 
20.000000 
20.000000 
20.000000 
20.000000 
20.000000 
20.000000 
20.000000 
20.000000 
20.000000 
20.000000 
20.000000 
20.000000 
20.000000 
20.000000 
20.000000 
20.000000 
20.000000 
20.000000 
20.000000 
20.000000 
20.000000 
20.000000 
20.000000 
20.000000 
20.000000 
20.000000 
20.000000 
20.000000 
20.000000 
20.000000 
20.000000 
20.000000 
20.000000 
20.000000 
20.000000 
20.000000 
20.000000 
20.000000 
20.000000 
20.000000 
20.000000 
20.000000 
20.000000 
20.000000 
20.000000 
20.000000 
20.000000 
20.000000 
20.000000 
20.000000 
20.000000 
20.000000 
20.000000 
20.000000 
20.000000 
20.000000 
20.000000 
20.000000 
20.000000 
20.000000 
20.000000 
20.000000 
20.000000 
20.000000 
20.000000 
20.000000 
20.000000 
20.000000 
20.000000 
20.000000 
20.000000 
20.000000 
20.000000 
SCALARS ELEM_i float 
LOOKUP_TABLE default 
180 
208 
181 
181 
208 
208 
209 
182 
182 
236 
209 
209 
209 
209 
182 
183 
236 
236 
237 
210 
210 
210 
210 
183 
183 
180 
207 
207 
208 
234 
207 
234 
208 
208 
234 
234 
234 
235 
235 
235 
235 
261 
261 
261 
261 
262 
262 
262 
236 
236 
180 
206 
207 
207 
206 
206 
206 
206 
234 
205 
205 
232 
233 
233 
233 
233 
204 
232 
232 
232 
232 
233 
260 
260 
260 
180 
179 
179 
179 
151 
179 
178 
179 
205 
151 
151 
178 
178 
178 
205 
205 
150 
150 
150 
177 
177 
177 
204 
204 
204 
180 
153 
153 
152 
126 
152 
152 
152 
152 
125 
125 
125 
125 
124 
151 
151 
98 
98 
98 
125 
124 
124 
124 
124 
150 
180 
154 
153 
153 
154 
154 
126 
153 
126 
127 
127 
127 
127 
126 
126 
126 
128 
128 
100 
100 
100 
99 
99 
99 
99 
180 
181 
181 
154 
182 
182 
155 
154 
154 
183 
182 
155 
155 
155 
155 
128 
183 
183 
156 
156 
156 
156 
129 
128 
128 
VECTORS VELOCITY float 
0.000000 -2.187238 0.000000 
-0.000000 -2.187238 0.000000 
0.000000 -2.187238 0.000000 
-0.000000 -2.187238 0.000000 
-0.000000 -2.187238 0.000000 
-0.000000 -2.187238 0.000000 
-0.000000 -2.187238 0.000000 
-0.000000 -2.187238 0.000000 
-0.000000 -2.187238 0.000000 
-0.000000 -2.187238 0.000000 
-0.000000 -2.187238 0.000000 
-0.000000 -2.187238 0.000000 
-0.000000 -2.187238 0.000000 
-0.000000 -2.187238 0.000000 
-0.000000 -2.187238 0.000000 
-0.000000 -2.187238 0.000000 
0.000000 -2.187238 0.000000 
0.000000 -2.187238 0.000000 
0.000000 -2.187238 0.000000 
0.000000 -2.187238 0.000000 
0.000000 -2.187238 0.000000 
-0.000000 -2.187238 0.000000 
0.000000 -2.187238 0.000000 
-0.000000 -2.187238 0.000000 
-0.000000 -2.187238 0.000000 
0.000000 -2.187238 0.000000 
0.000000 -2.187238 0.000000 
0.000000 -2.187238 0.000000 
0.000000 -2.187238 0.000000 
-0.000000 -2.187238 0.000000 
0.000000 -2.187238 0.000000 
0.000000 -2.187238 0.000000 
0.000000 -2.187238 0.000000 
-0.000000 -2.187238 0.000000 
-0.000000 -2.187238 0.000000 
-0.000000 -2.187238 0.000000 
-0.000000 -2.187238 0.000000 
0.000000 -2.187238 0.000000 
-0.000000 -2.187238 0.000000 
-0.000000 -2.187238 0.000000 
-0.000000 -2.187238 0.000000 
-0.000000 -2.187238 0.000000 
-0.000000 -2.187238 0.000000 
-0.000000 -2.187238 0.000000 
-0.000000 -2.187238 0.000000 
-0.000000 -2.187238 0.000000 
-0.000000 -2.187238 0.000000 
-0.000000 -2.187238 0.000000 
-0.000000 -2.187238 0.000000 
-0.000000 -2.187238 0.000000 
0.000000 -2.187238 0.000000 
-0.000000 -2.187238 0.000000 
-0.000000 -2.187238 0.000000 
-0.000000 -2.187238 0.000000 
0.000000 -2.187238 0.000000 
0.000000 -2.187238 0.000000 
0.000000 -2.187238 0.000000 
0.000000 -2.187238 0.000000 
-0.000000 -2.187238 0.000000 
-0.000000 -2.187238 0.000000 
0.000000 -2.187238 0.000000 
0.000000 -2.187238 0.000000 
0.000000 -2.187238 0.000000 
-0.000000 -2.187238 0.000000 
-0.000000 -2.187238 0.000000 
-0.000000 -2.187238 0.000000 
0.000000 -2.187238 0.000000 
-0.000000 -2.187238 0.000000 
0.000000 -2.187238 0.000000 
0.000000 -2.187238 0.000000 
0.000000 -2.187238 0.000000 
-0.000000 -2.187238 0.000000 
0.000000 -2.187238 0.000000 
-0.000000 -2.187238 0.000000 
0.000000 -2.187238 0.000000 
0.000000 -2.187238 0.000000 
-0.000000 -2.187238 0.000000 
-0.000000 -2.187238 0.000000 
-0.000000 -2.187238 0.000000 
-0.000000 -2.187238 0.000000 
-0.000000 -2.187238 0.000000 
0.000000 -2.187238 0.000000 
0.000000 -2.187238 0.000000 
0.000000 -2.187238 0.000000 
0.000000 -2.187238 0.000000 
0.000000 -2.187238 0.000000 
0.000000 -2.187238 0.000000 
0.000000 -2.187238 0.000000 
-0.000000 -2.187238 0.000000 
-0.000000 -2.187238 0.000000 
-0.000000 -2.187238 0.000000 
0.000000 -2.187238 0.000000 
0.000000 -2.187238 0.000000 
-0.000000 -2.187238 0.000000 
-0.000000 -2.187238 0.000000 
0.000000 -2.187238 0.000000 
-0.000000 -2.187238 0.000000 
0.000000 -2.187238 0.000000 
-0.000000 -2.187238 0.000000 
0.000000 -2.187238 0.000000 
0.000000 -2.187238 0.000000 
0.000000 -2.187238 0.000000 
0.000000 -2.187238 0.000000 
0.000000 -2.187238 0.000000 
0.000000 -2.187238 0.000000 
0.000000 -2.187238 0.000000 
0.000000 -2.187238 0.000000 
0.000000 -2.187238 0.000000 
-0.000000 -2.187238 0.000000 
0.000000 -2.187238 0.000000 
0.000000 -2.187238 0.000000 
0.000000 -2.187238 0.000000 
0.000000 -2.187238 0.000000 
-0.000000 -2.187238 0.000000 
-0.000000 -2.187238 0.000000 
-0.000000 -2.187238 0.000000 
0.000000 -2.187238 0.000000 
0.000000 -2.187238 0.000000 
0.000000 -2.187238 0.000000 
0.000000 -2.187238 0.000000 
0.000000 -2.187238 0.000000 
-0.000000 -2.187238 0.000000 
-0.000000 -2.187238 0.000000 
-0.000000 -2.187238 0.000000 
0.000000 -2.187238 0.000000 
0.000000 -2.187238 0.000000 
0.000000 -2.187238 0.000000 
0.000000 -2.187238 0.000000 
0.000000 -2.187238 0.000000 
0.000000 -2.187238 0.000000 
0.000000 -2.187238 0.000000 
0.000000 -2.187238 0.000000 
0.000000 -2.187238 0.000000 
0.000000 -2.187238 0.000000 
-0.000000 -2.187238 0.000000 
-0.000000 -2.187238 0.000000 
0.000000 -2.187238 0.000000 
0.000000 -2.187238 0.000000 
0.000000 -2.187238 0.000000 
0.000000 -2.187238 0.000000 
0.000000 -2.187238 0.000000 
-0.000000 -2.187238 0.000000 
-0.000000 -2.187238 0.000000 
0.000000 -2.187238 0.000000 
-0.000000 -2.187238 0.000000 
-0.000000 -2.187238 0.000000 
-0.000000 -2.187238 0.000000 
0.000000 -2.187238 0.000000 
0.000000 -2.187238 0.000000 
0.000000 -2.187238 0.000000 
0.000000 -2.187238 0.000000 
-0.000000 -2.187238 0.000000 
-0.000000 -2.187238 0.000000 
-0.000000 -2.187238 0.000000 
-0.000000 -2.187238 0.000000 
-0.000000 -2.187238 0.000000 
-0.000000 -2.187238 0.000000 
-0.000000 -2.187238 0.000000 
-0.000000 -2.187238 0.000000 
0.000000 -2.187238 0.000000 
0.000000 -2.187238 0.000000 
0.000000 -2.187238 0.000000 
-0.000000 -2.187238 0.000000 
-0.000000 -2.187238 0.000000 
-0.000000 -2.187238 0.000000 
-0.000000 -2.187238 0.000000 
-0.000000 -2.187238 0.000000 
-0.000000 -2.187238 0.000000 
-0.000000 -2.187238 0.000000 
-0.000000 -2.187238 0.000000 
-0.000000 -2.187238 0.000000 
-0.000000 -2.187238 0.000000 
0.000000 -2.187238 0.000000 
-0.000000 -2.187238 0.000000 
0.000000 -2.187238 0.000000 
TENSORS STRESS float 
0.000000 0.000000 0.000000 
0.000000 0.000000 0.000000 
0.000000 0.000000 0.000000 

-0.000000 0.000000 0.000000 
0.000000 -0.000000 0.000000 
0.000000 0.000000 0.000000 

0.000000 0.000000 0.000000 
0.000000 0.000000 0.000000 
0.000000 0.000000 0.000000 

0.000000 0.000000 0.000000 
0.000000 0.000000 0.000000 
0.000000 0.000000 0.000000 

0.000000 -0.000000 0.000000 
0.000000 0.000000 0.000000 
0.000000 0.000000 0.000000 

0.000000 -0.000000 0.000000 
0.000000 -0.000000 0.000000 
0.000000 0.000000 0.000000 

0.000000 0.000000 0.000000 
0.000000 0.000000 0.000000 
0.000000 0.000000 0.000000 

-0.000000 0.000000 0.000000 
0.000000 0.000000 0.000000 
0.000000 0.000000 0.000000 

-0.000000 -0.000000 0.000000 
0.000000 -0.000000 0.000000 
0.000000 0.000000 0.000000 

-0.000000 0.000000 0.000000 
0.000000 -0.000000 0.000000 
0.000000 0.000000 0.000000 

0.000000 -0.000000 0.000000 
0.000000 -0.000000 0.000000 
0.000000 0.000000 0.000000 

0.000000 0.000000 0.000000 
0.000000 -0.000000 0.000000 
0.000000 0.000000 0.000000 

0.000000 0.000000 0.000000 
0.000000 -0.000000 0.000000 
0.000000 0.000000 0.000000 

0.000000 0.000000 0.000000 