# vtk DataFile Version 3.0 
vtk output 
ASCII 
DATASET UNSTRUCTURED_GRID 
POINTS 175 float 
-0.026061 0.050498 0.000000 
-0.106992 0.118554 0.000000 
-0.054870 0.110321 0.000000 
-0.028809 0.156205 0.000000 
-0.186430 0.182629 0.000000 
-0.137056 0.180103 0.000000 
-0.114311 0.233750 0.000000 
-0.058186 0.218085 0.000000 
-0.029377 0.258262 0.000000 
-0.265318 0.245785 0.000000 
-0.217198 0.244985 0.000000 
-0.196633 0.302282 0.000000 
-0.143120 0.293573 0.000000 
-0.116563 0.340841 0.000000 
-0.058945 0.321196 0.000000 
-0.029568 0.359316 0.000000 
-0.344206 0.308941 0.000000 
-0.296791 0.308948 0.000000 
-0.278030 0.368891 0.000000 
-0.225992 0.363024 0.000000 
-0.201664 0.415141 0.000000 
-0.145749 0.401667 0.000000 
-0.117890 0.446010 0.000000 
-0.059328 0.423304 0.000000 
-0.029759 0.460370 0.000000 
-0.058559 0.009747 0.000000 
-0.162226 -0.011095 0.000000 
-0.123292 0.024522 0.000000 
-0.142917 0.073506 0.000000 
-0.261851 -0.033252 0.000000 
-0.229092 0.003775 0.000000 
-0.256854 0.055007 0.000000 
-0.209613 0.089120 0.000000 
-0.223062 0.136693 0.000000 
-0.360414 -0.055552 0.000000 
-0.329787 -0.018429 0.000000 
-0.361761 0.033373 0.000000 
-0.321587 0.069782 0.000000 
-0.341985 0.120016 0.000000 
-0.290702 0.152815 0.000000 
-0.302189 0.199550 0.000000 
-0.458977 -0.077852 0.000000 
-0.429420 -0.040777 0.000000 
-0.464588 0.011264 0.000000 
-0.427556 0.048292 0.000000 
-0.453135 0.099807 0.000000 
-0.407738 0.135122 0.000000 
-0.425037 0.184550 0.000000 
-0.370772 0.216179 0.000000 
-0.381315 0.262407 0.000000 
-0.046960 -0.041068 0.000000 
-0.095301 -0.135114 0.000000 
-0.098873 -0.082467 0.000000 
-0.149405 -0.067269 0.000000 
-0.140093 -0.226818 0.000000 
-0.148617 -0.178120 0.000000 
-0.205981 -0.167882 0.000000 
-0.203197 -0.109679 0.000000 
-0.248777 -0.090532 0.000000 
-0.184111 -0.317781 0.000000 
-0.194039 -0.270690 0.000000 
-0.254475 -0.263391 0.000000 
-0.257893 -0.209281 0.000000 
-0.309886 -0.193909 0.000000 
-0.303554 -0.133363 0.000000 
-0.347255 -0.113206 0.000000 
-0.228129 -0.408745 0.000000 
-0.238687 -0.362521 0.000000 
-0.301302 -0.357569 0.000000 
-0.307162 -0.305530 0.000000 
-0.363386 -0.293409 0.000000 
-0.362692 -0.235897 0.000000 
-0.412122 -0.218604 0.000000 
-0.403017 -0.156458 0.000000 
-0.445733 -0.135879 0.000000 
-0.000000 -0.063683 0.000000 
0.043388 -0.160113 0.000000 
-0.000000 -0.130081 0.000000 
-0.043388 -0.160113 0.000000 
0.087158 -0.252310 0.000000 
0.043769 -0.228612 0.000000 
-0.000000 -0.267077 0.000000 
-0.043769 -0.228612 0.000000 
-0.087158 -0.252310 0.000000 
0.130831 -0.343440 0.000000 
0.087824 -0.321841 0.000000 
0.044436 -0.364541 0.000000 
-0.000000 -0.333476 0.000000 
-0.044436 -0.364541 0.000000 
-0.087824 -0.321841 0.000000 
-0.130831 -0.343440 0.000000 
0.174505 -0.434569 0.000000 
0.131782 -0.414003 0.000000 
0.088871 -0.459870 0.000000 
0.044532 -0.432006 0.000000 
-0.000000 -0.468406 0.000000 
-0.044532 -0.432006 0.000000 
-0.088871 -0.459870 0.000000 
-0.131782 -0.414003 0.000000 
-0.174505 -0.434569 0.000000 
0.046960 -0.041068 0.000000 
0.149405 -0.067269 0.000000 
0.098873 -0.082467 0.000000 
0.095301 -0.135114 0.000000 
0.248777 -0.090532 0.000000 
0.203197 -0.109679 0.000000 
0.205981 -0.167882 0.000000 
0.148617 -0.178120 0.000000 
0.140093 -0.226818 0.000000 
0.347255 -0.113206 0.000000 
0.303554 -0.133363 0.000000 
0.309886 -0.193909 0.000000 
0.257893 -0.209281 0.000000 
0.254475 -0.263391 0.000000 
0.194039 -0.270690 0.000000 
0.184111 -0.317781 0.000000 
0.445733 -0.135879 0.000000 
0.403017 -0.156458 0.000000 
0.412122 -0.218604 0.000000 
0.362692 -0.235897 0.000000 
0.363386 -0.293409 0.000000 
0.307162 -0.305530 0.000000 
0.301302 -0.357569 0.000000 
0.238687 -0.362521 0.000000 
0.228129 -0.408745 0.000000 
0.058559 0.009747 0.000000 
0.142917 0.073506 0.000000 
0.123292 0.024522 0.000000 
0.162226 -0.011095 0.000000 
0.223062 0.136693 0.000000 
0.209613 0.089120 0.000000 
0.256854 0.055007 0.000000 
0.229092 0.003775 0.000000 
0.261851 -0.033252 0.000000 
0.302189 0.199550 0.000000 
0.290702 0.152815 0.000000 
0.341985 0.120016 0.000000 
0.321587 0.069782 0.000000 
0.361761 0.033373 0.000000 
0.329787 -0.018429 0.000000 
0.360414 -0.055552 0.000000 
0.381315 0.262407 0.000000 
0.370772 0.216179 0.000000 
0.425037 0.184550 0.000000 
0.407738 0.135122 0.000000 
0.453135 0.099807 0.000000 
0.427556 0.048292 0.000000 
0.464588 0.011264 0.000000 
0.429420 -0.040777 0.000000 
0.458977 -0.077852 0.000000 
0.026061 0.050498 0.000000 
0.028809 0.156205 0.000000 
0.054870 0.110321 0.000000 
0.106992 0.118554 0.000000 
0.029377 0.258262 0.000000 
0.058186 0.218085 0.000000 
0.114311 0.233750 0.000000 
0.137056 0.180103 0.000000 
0.186430 0.182629 0.000000 
0.029568 0.359316 0.000000 
0.058945 0.321196 0.000000 
0.116563 0.340841 0.000000 
0.143120 0.293573 0.000000 
0.196633 0.302282 0.000000 
0.217198 0.244985 0.000000 
0.265318 0.245785 0.000000 
0.029759 0.460370 0.000000 
0.059328 0.423304 0.000000 
0.117890 0.446010 0.000000 
0.145749 0.401667 0.000000 
0.201664 0.415141 0.000000 
0.225992 0.363024 0.000000 
0.278030 0.368891 0.000000 
0.296791 0.308948 0.000000 
0.344206 0.308941 0.000000 
CELLS 175 350 
1 0 
1 1 
1 2 
1 3 
1 4 
1 5 
1 6 
1 7 
1 8 
1 9 
1 10 
1 11 
1 12 
1 13 
1 14 
1 15 
1 16 
1 17 
1 18 
1 19 
1 20 
1 21 
1 22 
1 23 
1 24 
1 25 
1 26 
1 27 
1 28 
1 29 
1 30 
1 31 
1 32 
1 33 
1 34 
1 35 
1 36 
1 37 
1 38 
1 39 
1 40 
1 41 
1 42 
1 43 
1 44 
1 45 
1 46 
1 47 
1 48 
1 49 
1 50 
1 51 
1 52 
1 53 
1 54 
1 55 
1 56 
1 57 
1 58 
1 59 
1 60 
1 61 
1 62 
1 63 
1 64 
1 65 
1 66 
1 67 
1 68 
1 69 
1 70 
1 71 
1 72 
1 73 
1 74 
1 75 
1 76 
1 77 
1 78 
1 79 
1 80 
1 81 
1 82 
1 83 
1 84 
1 85 
1 86 
1 87 
1 88 
1 89 
1 90 
1 91 
1 92 
1 93 
1 94 
1 95 
1 96 
1 97 
1 98 
1 99 
1 100 
1 101 
1 102 
1 103 
1 104 
1 105 
1 106 
1 107 
1 108 
1 109 
1 110 
1 111 
1 112 
1 113 
1 114 
1 115 
1 116 
1 117 
1 118 
1 119 
1 120 
1 121 
1 122 
1 123 
1 124 
1 125 
1 126 
1 127 
1 128 
1 129 
1 130 
1 131 
1 132 
1 133 
1 134 
1 135 
1 136 
1 137 
1 138 
1 139 
1 140 
1 141 
1 142 
1 143 
1 144 
1 145 
1 146 
1 147 
1 148 
1 149 
1 150 
1 151 
1 152 
1 153 
1 154 
1 155 
1 156 
1 157 
1 158 
1 159 
1 160 
1 161 
1 162 
1 163 
1 164 
1 165 
1 166 
1 167 
1 168 
1 169 
1 170 
1 171 
1 172 
1 173 
1 174 
CELL_TYPES 175 
1 
1 
1 
1 
1 
1 
1 
1 
1 
1 
1 
1 
1 
1 
1 
1 
1 
1 
1 
1 
1 
1 
1 
1 
1 
1 
1 
1 
1 
1 
1 
1 
1 
1 
1 
1 
1 
1 
1 
1 
1 
1 
1 
1 
1 
1 
1 
1 
1 
1 
1 
1 
1 
1 
1 
1 
1 
1 
1 
1 
1 
1 
1 
1 
1 
1 
1 
1 
1 
1 
1 
1 
1 
1 
1 
1 
1 
1 
1 
1 
1 
1 
1 
1 
1 
1 
1 
1 
1 
1 
1 
1 
1 
1 
1 
1 
1 
1 
1 
1 
1 
1 
1 
1 
1 
1 
1 
1 
1 
1 
1 
1 
1 
1 
1 
1 
1 
1 
1 
1 
1 
1 
1 
1 
1 
1 
1 
1 
1 
1 
1 
1 
1 
1 
1 
1 
1 
1 
1 
1 
1 
1 
1 
1 
1 
1 
1 
1 
1 
1 
1 
1 
1 
1 
1 
1 
1 
1 
1 
1 
1 
1 
1 
1 
1 
1 
1 
1 
1 
1 
1 
1 
1 
1 
1 
POINT_DATA 175 
VECTORS X_GC float 
-0.026061 0.050498 0.000000 
-0.106992 0.118554 0.000000 
-0.054870 0.110321 0.000000 
-0.028809 0.156205 0.000000 
-0.186430 0.182629 0.000000 
-0.137056 0.180103 0.000000 
-0.114311 0.233750 0.000000 
-0.058186 0.218085 0.000000 
-0.029377 0.258262 0.000000 
-0.265318 0.245785 0.000000 
-0.217198 0.244985 0.000000 
-0.196633 0.302282 0.000000 
-0.143120 0.293573 0.000000 
-0.116563 0.340841 0.000000 
-0.058945 0.321196 0.000000 
-0.029568 0.359316 0.000000 
-0.344206 0.308941 0.000000 
-0.296791 0.308948 0.000000 
-0.278030 0.368891 0.000000 
-0.225992 0.363024 0.000000 
-0.201664 0.415141 0.000000 
-0.145749 0.401667 0.000000 
-0.117890 0.446010 0.000000 
-0.059328 0.423304 0.000000 
-0.029759 0.460370 0.000000 
-0.058559 0.009747 0.000000 
-0.162226 -0.011095 0.000000 
-0.123292 0.024522 0.000000 
-0.142917 0.073506 0.000000 
-0.261851 -0.033252 0.000000 
-0.229092 0.003775 0.000000 
-0.256854 0.055007 0.000000 
-0.209613 0.089120 0.000000 
-0.223062 0.136693 0.000000 
-0.360414 -0.055552 0.000000 
-0.329787 -0.018429 0.000000 
-0.361761 0.033373 0.000000 
-0.321587 0.069782 0.000000 
-0.341985 0.120016 0.000000 
-0.290702 0.152815 0.000000 
-0.302189 0.199550 0.000000 
-0.458977 -0.077852 0.000000 
-0.429420 -0.040777 0.000000 
-0.464588 0.011264 0.000000 
-0.427556 0.048292 0.000000 
-0.453135 0.099807 0.000000 
-0.407738 0.135122 0.000000 
-0.425037 0.184550 0.000000 
-0.370772 0.216179 0.000000 
-0.381315 0.262407 0.000000 
-0.046960 -0.041068 0.000000 
-0.095301 -0.135114 0.000000 
-0.098873 -0.082467 0.000000 
-0.149405 -0.067269 0.000000 
-0.140093 -0.226818 0.000000 
-0.148617 -0.178120 0.000000 
-0.205981 -0.167882 0.000000 
-0.203197 -0.109679 0.000000 
-0.248777 -0.090532 0.000000 
-0.184111 -0.317781 0.000000 
-0.194039 -0.270690 0.000000 
-0.254475 -0.263391 0.000000 
-0.257893 -0.209281 0.000000 
-0.309886 -0.193909 0.000000 
-0.303554 -0.133363 0.000000 
-0.347255 -0.113206 0.000000 
-0.228129 -0.408745 0.000000 
-0.238687 -0.362521 0.000000 
-0.301302 -0.357569 0.000000 
-0.307162 -0.305530 0.000000 
-0.363386 -0.293409 0.000000 
-0.362692 -0.235897 0.000000 
-0.412122 -0.218604 0.000000 
-0.403017 -0.156458 0.000000 
-0.445733 -0.135879 0.000000 
-0.000000 -0.063683 0.000000 
0.043388 -0.160113 0.000000 
-0.000000 -0.130081 0.000000 
-0.043388 -0.160113 0.000000 
0.087158 -0.252310 0.000000 
0.043769 -0.228612 0.000000 
-0.000000 -0.267077 0.000000 
-0.043769 -0.228612 0.000000 
-0.087158 -0.252310 0.000000 
0.130831 -0.343440 0.000000 
0.087824 -0.321841 0.000000 
0.044436 -0.364541 0.000000 
-0.000000 -0.333476 0.000000 
-0.044436 -0.364541 0.000000 
-0.087824 -0.321841 0.000000 
-0.130831 -0.343440 0.000000 
0.174505 -0.434569 0.000000 
0.131782 -0.414003 0.000000 
0.088871 -0.459870 0.000000 
0.044532 -0.432006 0.000000 
-0.000000 -0.468406 0.000000 
-0.044532 -0.432006 0.000000 
-0.088871 -0.459870 0.000000 
-0.131782 -0.414003 0.000000 
-0.174505 -0.434569 0.000000 
0.046960 -0.041068 0.000000 
0.149405 -0.067269 0.000000 
0.098873 -0.082467 0.000000 
0.095301 -0.135114 0.000000 
0.248777 -0.090532 0.000000 
0.203197 -0.109679 0.000000 
0.205981 -0.167882 0.000000 
0.148617 -0.178120 0.000000 
0.140093 -0.226818 0.000000 
0.347255 -0.113206 0.000000 
0.303554 -0.133363 0.000000 
0.309886 -0.193909 0.000000 
0.257893 -0.209281 0.000000 
0.254475 -0.263391 0.000000 
0.194039 -0.270690 0.000000 
0.184111 -0.317781 0.000000 
0.445733 -0.135879 0.000000 
0.403017 -0.156458 0.000000 
0.412122 -0.218604 0.000000 
0.362692 -0.235897 0.000000 
0.363386 -0.293409 0.000000 
0.307162 -0.305530 0.000000 
0.301302 -0.357569 0.000000 
0.238687 -0.362521 0.000000 
0.228129 -0.408745 0.000000 
0.058559 0.009747 0.000000 
0.142917 0.073506 0.000000 
0.123292 0.024522 0.000000 
0.162226 -0.011095 0.000000 
0.223062 0.136693 0.000000 
0.209613 0.089120 0.000000 
0.256854 0.055007 0.000000 
0.229092 0.003775 0.000000 
0.261851 -0.033252 0.000000 
0.302189 0.199550 0.000000 
0.290702 0.152815 0.000000 
0.341985 0.120016 0.000000 
0.321587 0.069782 0.000000 
0.361761 0.033373 0.000000 
0.329787 -0.018429 0.000000 
0.360414 -0.055552 0.000000 
0.381315 0.262407 0.000000 
0.370772 0.216179 0.000000 
0.425037 0.184550 0.000000 
0.407738 0.135122 0.000000 
0.453135 0.099807 0.000000 
0.427556 0.048292 0.000000 
0.464588 0.011264 0.000000 
0.429420 -0.040777 0.000000 
0.458977 -0.077852 0.000000 
0.026061 0.050498 0.000000 
0.028809 0.156205 0.000000 
0.054870 0.110321 0.000000 
0.106992 0.118554 0.000000 
0.029377 0.258262 0.000000 
0.058186 0.218085 0.000000 
0.114311 0.233750 0.000000 
0.137056 0.180103 0.000000 
0.186430 0.182629 0.000000 
0.029568 0.359316 0.000000 
0.058945 0.321196 0.000000 
0.116563 0.340841 0.000000 
0.143120 0.293573 0.000000 
0.196633 0.302282 0.000000 
0.217198 0.244985 0.000000 
0.265318 0.245785 0.000000 
0.029759 0.460370 0.000000 
0.059328 0.423304 0.000000 
0.117890 0.446010 0.000000 
0.145749 0.401667 0.000000 
0.201664 0.415141 0.000000 
0.225992 0.363024 0.000000 
0.278030 0.368891 0.000000 
0.296791 0.308948 0.000000 
0.344206 0.308941 0.000000 
VECTORS X_EC float 
0.338794 -0.181724 0.000000 
-0.609100 0.899527 0.000000 
0.713312 -0.989332 0.000000 
0.374519 0.391239 0.000000 
0.423588 0.034508 0.000000 
-0.218274 0.068612 0.000000 
-0.513962 -0.655627 0.000000 
0.756418 -0.444141 0.000000 
0.381900 -0.986533 0.000000 
-0.550868 -0.818095 0.000000 
0.823577 -0.807299 0.000000 
0.556234 0.419196 0.000000 
-0.139443 0.536765 0.000000 
-0.484677 -0.101359 0.000000 
0.766286 0.163856 0.000000 
0.384386 -0.350764 0.000000 
0.474677 0.329302 0.000000 
-0.141715 0.329205 0.000000 
-0.385608 -0.480023 0.000000 
0.937896 -0.400827 0.000000 
0.621631 0.895593 0.000000 
-0.105264 -0.922508 0.000000 
-0.467428 0.478866 0.000000 
0.771260 0.785394 0.000000 
0.386873 0.285005 0.000000 
0.761262 0.368410 0.000000 
0.108942 0.649787 0.000000 
-0.397202 0.168948 0.000000 
-0.142083 -0.492328 0.000000 
-0.595936 0.948898 0.000000 
0.978194 0.449032 0.000000 
-0.660903 -0.242593 0.000000 
0.724964 -0.703113 0.000000 
0.899809 0.654638 0.000000 
0.685384 -0.750050 0.000000 
0.287229 0.748791 0.000000 
0.702895 0.049463 0.000000 
0.180633 -0.442056 0.000000 
0.445811 0.879784 0.000000 
-0.220880 0.436998 0.000000 
-0.071546 -0.193927 0.000000 
-0.033296 -0.448998 0.000000 
-0.417537 -0.949508 0.000000 
0.039645 0.347930 0.000000 
-0.441768 -0.151941 0.000000 
-0.109248 -0.847392 0.000000 
-0.699407 0.675852 0.000000 
-0.474522 0.008573 0.000000 
0.820030 -0.418420 0.000000 
0.957100 0.957508 0.000000 
0.610485 -0.945583 0.000000 
-0.761092 0.324036 0.000000 
-0.714655 -0.386701 0.000000 
-0.057734 -0.591869 0.000000 
-0.178789 -0.437960 0.000000 
-0.067979 0.904614 0.000000 
0.677748 0.766411 0.000000 
0.641556 -0.019335 0.000000 
-0.765897 -0.277813 0.000000 
0.393446 0.790049 0.000000 
0.522510 0.154319 0.000000 
-0.691820 0.055775 0.000000 
-0.647393 -0.674707 0.000000 
0.028512 -0.882234 0.000000 
-0.053800 0.300406 0.000000 
0.514316 0.028275 0.000000 
0.965681 0.018058 0.000000 
-0.897068 -0.605970 0.000000 
-0.083078 -0.672823 0.000000 
-0.006893 0.624652 0.000000 
0.724017 0.461019 0.000000 
0.714996 -0.315384 0.000000 
-0.642413 -0.548842 0.000000 
-0.760780 0.612178 0.000000 
-0.205471 0.334362 0.000000 
0.000000 -0.640282 0.000000 
-0.564049 0.661531 0.000000 
0.000000 0.256095 0.000000 
0.564049 0.661531 0.000000 
0.866949 -0.093814 0.000000 
-0.569003 -0.413745 0.000000 
0.000000 0.105543 0.000000 
0.569003 -0.413745 0.000000 
-0.866949 -0.093814 0.000000 
0.299194 -0.863563 0.000000 
0.858290 0.844853 0.000000 
-0.577662 -0.578702 0.000000 
0.000000 -0.998080 0.000000 
0.577662 -0.578702 0.000000 
-0.858290 0.844853 0.000000 
-0.299194 -0.863564 0.000000 
-0.268560 0.366687 0.000000 
0.286830 0.089045 0.000000 
0.844677 0.708243 0.000000 
-0.578910 0.332080 0.000000 
0.000000 0.823484 0.000000 
0.578910 0.332080 0.000000 
-0.844677 0.708243 0.000000 
-0.286830 0.089045 0.000000 
0.268560 0.366687 0.000000 
-0.610485 -0.945583 0.000000 
0.057734 -0.591869 0.000000 
0.714655 -0.386701 0.000000 
0.761092 0.324036 0.000000 
0.765897 -0.277813 0.000000 
-0.641556 -0.019335 0.000000 
-0.677748 0.766411 0.000000 
0.067979 0.904614 0.000000 
0.178789 -0.437960 0.000000 
-0.514316 0.028275 0.000000 
0.053800 0.300406 0.000000 
-0.028512 -0.882234 0.000000 
0.647393 -0.674707 0.000000 
0.691820 0.055775 0.000000 
-0.522510 0.154319 0.000000 
-0.393446 0.790049 0.000000 
0.205471 0.334362 0.000000 
0.760780 0.612178 0.000000 
0.642413 -0.548842 0.000000 
-0.714996 -0.315384 0.000000 
-0.724017 0.461019 0.000000 
0.006894 0.624652 0.000000 
0.083078 -0.672823 0.000000 
0.897068 -0.605970 0.000000 
-0.965681 0.018058 0.000000 
-0.761262 0.368410 0.000000 
0.142083 -0.492328 0.000000 
0.397202 0.168948 0.000000 
-0.108942 0.649787 0.000000 
-0.899809 0.654638 0.000000 
-0.724964 -0.703113 0.000000 
0.660903 -0.242593 0.000000 
-0.978194 0.449032 0.000000 
0.595936 0.948898 0.000000 
0.071546 -0.193927 0.000000 
0.220880 0.436999 0.000000 
-0.445811 0.879784 0.000000 
-0.180633 -0.442056 0.000000 
-0.702895 0.049463 0.000000 
-0.287229 0.748791 0.000000 
-0.685384 -0.750050 0.000000 
-0.957100 0.957508 0.000000 
-0.820030 -0.418420 0.000000 
0.474522 0.008573 0.000000 
0.699407 0.675852 0.000000 
0.109248 -0.847392 0.000000 
0.441768 -0.151941 0.000000 
-0.039645 0.347930 0.000000 
0.417537 -0.949508 0.000000 
0.033296 -0.448998 0.000000 
-0.338794 -0.181724 0.000000 
-0.374519 0.391239 0.000000 
-0.713312 -0.989332 0.000000 
0.609100 0.899527 0.000000 
-0.381900 -0.986533 0.000000 
-0.756418 -0.444141 0.000000 
0.513962 -0.655627 0.000000 
0.218274 0.068612 0.000000 
-0.423588 0.034508 0.000000 
-0.384386 -0.350764 0.000000 
-0.766286 0.163856 0.000000 
0.484677 -0.101359 0.000000 
0.139443 0.536765 0.000000 
-0.556234 0.419196 0.000000 
-0.823577 -0.807299 0.000000 
0.550868 -0.818095 0.000000 
-0.386873 0.285005 0.000000 
-0.771260 0.785394 0.000000 
0.467428 0.478866 0.000000 
0.105264 -0.922508 0.000000 
-0.621631 0.895593 0.000000 
-0.937896 -0.400827 0.000000 
0.385608 -0.480023 0.000000 
0.141715 0.329205 0.000000 
-0.474677 0.329302 0.000000 
CELL_DATA 175 
SCALARS MASS float 
LOOKUP_TABLE default 
0.078183 
0.086427 
0.094672 
0.086427 
0.088131 
0.092111 
0.085854 
0.092111 
0.088131 
0.088705 
0.091000 
0.086983 
0.091556 
0.086983 
0.091000 
0.088705 
0.089278 
0.091574 
0.089278 
0.092722 
0.089278 
0.092722 
0.089278 
0.091574 
0.089278 
0.078183 
0.086427 
0.094672 
0.086427 
0.088131 
0.092111 
0.085854 
0.092111 
0.088131 
0.088705 
0.091000 
0.086983 
0.091556 
0.086983 
0.091000 
0.088705 
0.089278 
0.091574 
0.089278 
0.092722 
0.089278 
0.092722 
0.089278 
0.091574 
0.089278 
0.078183 
0.086427 
0.094672 
0.086427 
0.088131 
0.092111 
0.085854 
0.092111 
0.088131 
0.088705 
0.091000 
0.086983 
0.091556 
0.086983 
0.091000 
0.088705 
0.089278 
0.091574 
0.089278 
0.092722 
0.089278 
0.092722 
0.089278 
0.091574 
0.089278 
0.078183 
0.086427 
0.094672 
0.086427 
0.088131 
0.092111 
0.085854 
0.092111 
0.088131 
0.088705 
0.091000 
0.086983 
0.091556 
0.086983 
0.091000 
0.088705 
0.089278 
0.091574 
0.089278 
0.092722 
0.089278 
0.092722 
0.089278 
0.091574 
0.089278 
0.078183 
0.086427 
0.094672 
0.086427 
0.088131 
0.092111 
0.085854 
0.092111 
0.088131 
0.088705 
0.091000 
0.086983 
0.091556 
0.086983 
0.091000 
0.088705 
0.089278 
0.091574 
0.089278 
0.092722 
0.089278 
0.092722 
0.089278 
0.091574 
0.089278 
0.078183 
0.086427 
0.094672 
0.086427 
0.088131 
0.092111 
0.085854 
0.092111 
0.088131 
0.088705 
0.091000 
0.086983 
0.091556 
0.086983 
0.091000 
0.088705 
0.089278 
0.091574 
0.089278 
0.092722 
0.089278 
0.092722 
0.089278 
0.091574 
0.089278 
0.078183 
0.086427 
0.094672 
0.086427 
0.088131 
0.092111 
0.085854 
0.092111 
0.088131 
0.088705 
0.091000 
0.086983 
0.091556 
0.086983 
0.091000 
0.088705 
0.089278 
0.091574 
0.089278 
0.092722 
0.089278 
0.092722 
0.089278 
0.091574 
0.089278 
SCALARS MASS float 
LOOKUP_TABLE default 
0.078183 
0.086427 
0.094672 
0.086427 
0.088131 
0.092111 
0.085854 
0.092111 
0.088131 
0.088705 
0.091000 
0.086983 
0.091556 
0.086983 
0.091000 
0.088705 
0.089278 
0.091574 
0.089278 
0.092722 
0.089278 
0.092722 
0.089278 
0.091574 
0.089278 
0.078183 
0.086427 
0.094672 
0.086427 
0.088131 
0.092111 
0.085854 
0.092111 
0.088131 
0.088705 
0.091000 
0.086983 
0.091556 
0.086983 
0.091000 
0.088705 
0.089278 
0.091574 
0.089278 
0.092722 
0.089278 
0.092722 
0.089278 
0.091574 
0.089278 
0.078183 
0.086427 
0.094672 
0.086427 
0.088131 
0.092111 
0.085854 
0.092111 
0.088131 
0.088705 
0.091000 
0.086983 
0.091556 
0.086983 
0.091000 
0.088705 
0.089278 
0.091574 
0.089278 
0.092722 
0.089278 
0.092722 
0.089278 
0.091574 
0.089278 
0.078183 
0.086427 
0.094672 
0.086427 
0.088131 
0.092111 
0.085854 
0.092111 
0.088131 
0.088705 
0.091000 
0.086983 
0.091556 
0.086983 
0.091000 
0.088705 
0.089278 
0.091574 
0.089278 
0.092722 
0.089278 
0.092722 
0.089278 
0.091574 
0.089278 
0.078183 
0.086427 
0.094672 
0.086427 
0.088131 
0.092111 
0.085854 
0.092111 
0.088131 
0.088705 
0.091000 
0.086983 
0.091556 
0.086983 
0.091000 
0.088705 
0.089278 
0.091574 
0.089278 
0.092722 
0.089278 
0.092722 
0.089278 
0.091574 
0.089278 
0.078183 
0.086427 
0.094672 
0.086427 
0.088131 
0.092111 
0.085854 
0.092111 
0.088131 
0.088705 
0.091000 
0.086983 
0.091556 
0.086983 
0.091000 
0.088705 
0.089278 
0.091574 
0.089278 
0.092722 
0.089278 
0.092722 
0.089278 
0.091574 
0.089278 
0.078183 
0.086427 
0.094672 
0.086427 
0.088131 
0.092111 
0.085854 
0.092111 
0.088131 
0.088705 
0.091000 
0.086983 
0.091556 
0.086983 
0.091000 
0.088705 
0.089278 
0.091574 
0.089278 
0.092722 
0.089278 
0.092722 
0.089278 
0.091574 
0.089278 
SCALARS DENSITY float 
LOOKUP_TABLE default 
20.000000 
20.000000 
20.000000 
20.000000 
20.000000 
20.000000 
20.000000 
20.000000 
20.000000 
20.000000 
20.000000 
20.000000 
20.000000 
20.000000 
20.000000 
20.000000 
20.000000 
20.000000 
20.000000 
20.000000 
20.000000 
20.000000 
20.000000 
20.000000 
20.000000 
20.000000 
20.000000 
20.000000 
20.000000 
20.000000 
20.000000 
20.000000 
20.000000 
20.000000 
20.000000 
20.000000 
20.000000 
20.000000 
20.000000 
20.000000 
20.000000 
20.000000 
20.000000 
20.000000 
20.000000 
20.000000 
20.000000 
20.000000 
20.000000 
20.000000 
20.000000 
20.000000 
20.000000 
20.000000 
20.000000 
20.000000 
20.000000 
20.000000 
20.000000 
20.000000 
20.000000 
20.000000 
20.000000 
20.000000 
20.000000 
20.000000 
20.000000 
20.000000 
20.000000 
20.000000 
20.000000 
20.000000 
20.000000 
20.000000 
20.000000 
20.000000 
20.000000 
20.000000 
20.000000 
20.000000 
20.000000 
20.000000 
20.000000 
20.000000 
20.000000 
20.000000 
20.000000 
20.000000 
20.000000 
20.000000 
20.000000 
20.000000 
20.000000 
20.000000 
20.000000 
20.000000 
20.000000 
20.000000 
20.000000 
20.000000 
20.000000 
20.000000 
20.000000 
20.000000 
20.000000 
20.000000 
20.000000 
20.000000 
20.000000 
20.000000 
20.000000 
20.000000 
20.000000 
20.000000 
20.000000 
20.000000 
20.000000 
20.000000 
20.000000 
20.000000 
20.000000 
20.000000 
20.000000 
20.000000 
20.000000 
20.000000 
20.000000 
20.000000 
20.000000 
20.000000 
20.000000 
20.000000 
20.000000 
20.000000 
20.000000 
20.000000 
20.000000 
20.000000 
20.000000 
20.000000 
20.000000 
20.000000 
20.000000 
20.000000 
20.000000 
20.000000 
20.000000 
20.000000 
20.000000 
20.000000 
20.000000 
20.000000 
20.000000 
20.000000 
20.000000 
20.000000 
20.000000 
20.000000 
20.000000 
20.000000 
20.000000 
20.000000 
20.000000 
20.000000 
20.000000 
20.000000 
20.000000 
20.000000 
20.000000 
20.000000 
20.000000 
20.000000 
20.000000 
20.000000 
20.000000 
SCALARS ELEM_i float 
LOOKUP_TABLE default 
182 
210 
182 
183 
210 
210 
210 
183 
183 
237 
210 
211 
211 
211 
184 
184 
238 
238 
238 
211 
212 
211 
212 
185 
185 
182 
209 
209 
209 
236 
209 
236 
209 
210 
235 
236 
236 
236 
237 
237 
237 
262 
262 
263 
263 
263 
264 
264 
237 
238 
181 
208 
208 
208 
207 
208 
208 
208 
235 
207 
207 
234 
234 
234 
235 
235 
206 
233 
233 
234 
234 
234 
261 
262 
262 
181 
181 
181 
181 
153 
180 
180 
180 
207 
152 
153 
179 
179 
179 
207 
206 
152 
152 
152 
179 
179 
179 
206 
206 
206 
181 
154 
154 
154 
127 
154 
154 
154 
153 
127 
127 
126 
126 
126 
153 
153 
100 
100 
99 
126 
126 
126 
125 
125 
152 
182 
155 
155 
155 
156 
155 
128 
155 
128 
129 
129 
129 
128 
128 
128 
127 
130 
129 
102 
102 
101 
101 
101 
100 
100 
182 
183 
182 
156 
183 
183 
156 
156 
156 
184 
184 
157 
157 
157 
156 
129 
185 
185 
158 
157 
158 
157 
130 
130 
130 
VECTORS VELOCITY float 
-0.000000 -0.266047 0.000000 
-0.000000 -0.266047 0.000000 
-0.000000 -0.266047 0.000000 
-0.000000 -0.266047 0.000000 
-0.000000 -0.266047 0.000000 
-0.000000 -0.266047 0.000000 
0.000000 -0.266047 0.000000 
0.000000 -0.266047 0.000000 
0.000000 -0.266047 0.000000 
-0.000000 -0.266047 0.000000 
-0.000000 -0.266047 0.000000 
0.000000 -0.266047 0.000000 
0.000000 -0.266047 0.000000 
0.000000 -0.266047 0.000000 
0.000000 -0.266047 0.000000 
0.000000 -0.266047 0.000000 
-0.000000 -0.266047 0.000000 
-0.000000 -0.266047 0.000000 
-0.000000 -0.266047 0.000000 
-0.000000 -0.266047 0.000000 
-0.000000 -0.266047 0.000000 
-0.000000 -0.266047 0.000000 
-0.000000 -0.266047 0.000000 
-0.000000 -0.266047 0.000000 
-0.000000 -0.266047 0.000000 
-0.000000 -0.266047 0.000000 
-0.000000 -0.266047 0.000000 
-0.000000 -0.266047 0.000000 
-0.000000 -0.266047 0.000000 
-0.000000 -0.266047 0.000000 
-0.000000 -0.266047 0.000000 
-0.000000 -0.266047 0.000000 
-0.000000 -0.266047 0.000000 
-0.000000 -0.266047 0.000000 
-0.000000 -0.266047 0.000000 
-0.000000 -0.266047 0.000000 
-0.000000 -0.266047 0.000000 
-0.000000 -0.266047 0.000000 
-0.000000 -0.266047 0.000000 
-0.000000 -0.266047 0.000000 
-0.000000 -0.266047 0.000000 
0.000000 -0.266047 0.000000 
-0.000000 -0.266047 0.000000 
0.000000 -0.266047 0.000000 
0.000000 -0.266047 0.000000 
0.000000 -0.266047 0.000000 
0.000000 -0.266047 0.000000 
-0.000000 -0.266047 0.000000 
-0.000000 -0.266047 0.000000 
-0.000000 -0.266047 0.000000 
0.000000 -0.266047 0.000000 
0.000000 -0.266047 0.000000 
0.000000 -0.266047 0.000000 
0.000000 -0.266047 0.000000 
0.000000 -0.266047 0.000000 
0.000000 -0.266047 0.000000 
0.000000 -0.266047 0.000000 
0.000000 -0.266047 0.000000 
-0.000000 -0.266047 0.000000 
0.000000 -0.266047 0.000000 
0.000000 -0.266047 0.000000 
0.000000 -0.266047 0.000000 
0.000000 -0.266047 0.000000 
0.000000 -0.266047 0.000000 
-0.000000 -0.266047 0.000000 
-0.000000 -0.266047 0.000000 
-0.000000 -0.266047 0.000000 
0.000000 -0.266047 0.000000 
0.000000 -0.266047 0.000000 
0.000000 -0.266047 0.000000 
0.000000 -0.266047 0.000000 
0.000000 -0.266047 0.000000 
0.000000 -0.266047 0.000000 
-0.000000 -0.266047 0.000000 
-0.000000 -0.266047 0.000000 
0.000000 -0.266047 0.000000 
-0.000000 -0.266047 0.000000 
0.000000 -0.266047 0.000000 
0.000000 -0.266047 0.000000 
0.000000 -0.266047 0.000000 
0.000000 -0.266047 0.000000 
0.000000 -0.266047 0.000000 
0.000000 -0.266047 0.000000 
0.000000 -0.266047 0.000000 
0.000000 -0.266047 0.000000 
0.000000 -0.266047 0.000000 
0.000000 -0.266047 0.000000 
0.000000 -0.266047 0.000000 
0.000000 -0.266047 0.000000 
0.000000 -0.266047 0.000000 
0.000000 -0.266047 0.000000 
0.000000 -0.266047 0.000000 
0.000000 -0.266047 0.000000 
0.000000 -0.266047 0.000000 
0.000000 -0.266047 0.000000 
-0.000000 -0.266047 0.000000 
-0.000000 -0.266047 0.000000 
-0.000000 -0.266047 0.000000 
-0.000000 -0.266047 0.000000 
-0.000000 -0.266047 0.000000 
0.000000 -0.266047 0.000000 
0.000000 -0.266047 0.000000 
0.000000 -0.266047 0.000000 
-0.000000 -0.266047 0.000000 
0.000000 -0.266047 0.000000 
0.000000 -0.266047 0.000000 
0.000000 -0.266047 0.000000 
-0.000000 -0.266047 0.000000 
-0.000000 -0.266047 0.000000 
0.000000 -0.266047 0.000000 
0.000000 -0.266047 0.000000 
0.000000 -0.266047 0.000000 
0.000000 -0.266047 0.000000 
-0.000000 -0.266047 0.000000 
-0.000000 -0.266047 0.000000 
-0.000000 -0.266047 0.000000 
-0.000000 -0.266047 0.000000 
0.000000 -0.266047 0.000000 
0.000000 -0.266047 0.000000 
0.000000 -0.266047 0.000000 
-0.000000 -0.266047 0.000000 
-0.000000 -0.266047 0.000000 
0.000000 -0.266047 0.000000 
0.000000 -0.266047 0.000000 
0.000000 -0.266047 0.000000 
0.000000 -0.266047 0.000000 
-0.000000 -0.266047 0.000000 
0.000000 -0.266047 0.000000 
0.000000 -0.266047 0.000000 
-0.000000 -0.266047 0.000000 
-0.000000 -0.266047 0.000000 
-0.000000 -0.266047 0.000000 
0.000000 -0.266047 0.000000 
0.000000 -0.266047 0.000000 
-0.000000 -0.266047 0.000000 
-0.000000 -0.266047 0.000000 
-0.000000 -0.266047 0.000000 
-0.000000 -0.266047 0.000000 
-0.000000 -0.266047 0.000000 
0.000000 -0.266047 0.000000 
0.000000 -0.266047 0.000000 
0.000000 -0.266047 0.000000 
-0.000000 -0.266047 0.000000 
0.000000 -0.266047 0.000000 
-0.000000 -0.266047 0.000000 
-0.000000 -0.266047 0.000000 
-0.000000 -0.266047 0.000000 
-0.000000 -0.266047 0.000000 
-0.000000 -0.266047 0.000000 
-0.000000 -0.266047 0.000000 
0.000000 -0.266047 0.000000 
-0.000000 -0.266047 0.000000 
-0.000000 -0.266047 0.000000 
-0.000000 -0.266047 0.000000 
0.000000 -0.266047 0.000000 
-0.000000 -0.266047 0.000000 
-0.000000 -0.266047 0.000000 
-0.000000 -0.266047 0.000000 
-0.000000 -0.266047 0.000000 
0.000000 -0.266047 0.000000 
0.000000 -0.266047 0.000000 
-0.000000 -0.266047 0.000000 
-0.000000 -0.266047 0.000000 
-0.000000 -0.266047 0.000000 
-0.000000 -0.266047 0.000000 
-0.000000 -0.266047 0.000000 
-0.000000 -0.266047 0.000000 
-0.000000 -0.266047 0.000000 
-0.000000 -0.266047 0.000000 
0.000000 -0.266047 0.000000 
-0.000000 -0.266047 0.000000 
-0.000000 -0.266047 0.000000 
0.000000 -0.266047 0.000000 
0.000000 -0.266047 0.000000 
0.000000 -0.266047 0.000000 
TENSORS STRESS float 
-0.000000 0.000000 0.000000 
0.000000 -0.000000 0.000000 
0.000000 0.000000 0.000000 

0.000000 -0.000000 0.000000 
0.000000 0.000000 0.000000 
0.000000 0.000000 0.000000 

0.000000 -0.000000 0.000000 
0.000000 0.000000 0.000000 
0.000000 0.000000 0.000000 

0.000000 -0.000000 0.000000 
0.000000 0.000000 0.000000 
0.000000 0.000000 0.000000 

0.000000 -0.000000 0.000000 
0.000000 0.000000 0.000000 
0.000000 0.000000 0.000000 

0.000000 -0.000000 0.000000 
0.000000 0.000000 0.000000 
0.000000 0.000000 0.000000 

0.000000 0.000000 0.000000 
0.000000 0.000000 0.000000 
0.000000 0.000000 0.000000 

0.000000 -0.000000 0.000000 
0.000000 0.000000 0.000000 
0.000000 0.000000 0.000000 

0.000000 -0.000000 0.000000 
0.000000 0.000000 0.000000 
0.000000 0.000000 0.000000 

-0.000000 -0.000000 0.000000 
0.000000 -0.000000 0.000000 
0.000000 0.000000 0.000000 

-0.000000 0.000000 0.000000 
0.000000 0.000000 0.000000 
0.000000 0.000000 0.000000 

0.000000 -0.000000 0.000000 
0.000000 -0.000000 0.000000 
0.000000 0.000000 0.000000 

-0.000000 -0.000000 0.000000 
0.000000 -0.000000 0.000000 
0.000000 0.000000 0.000000 

-0.000000 0.000000 0.000000 
0.000000 -0.000000 0.000000 
0.000000 0.000000 0.000000 

-0.000000 0.000000 0.000000 