# vtk DataFile Version 3.0 
vtk output 
ASCII 
DATASET UNSTRUCTURED_GRID 
POINTS 175 float 
-0.026061 -1.255314 0.000000 
-0.106992 -1.187258 0.000000 
-0.054870 -1.195491 0.000000 
-0.028809 -1.149607 0.000000 
-0.186430 -1.123183 0.000000 
-0.137056 -1.125709 0.000000 
-0.114311 -1.072062 0.000000 
-0.058186 -1.087727 0.000000 
-0.029377 -1.047550 0.000000 
-0.265318 -1.060027 0.000000 
-0.217198 -1.060827 0.000000 
-0.196633 -1.003530 0.000000 
-0.143120 -1.012239 0.000000 
-0.116563 -0.964970 0.000000 
-0.058945 -0.984616 0.000000 
-0.029568 -0.946496 0.000000 
-0.344206 -0.996871 0.000000 
-0.296791 -0.996864 0.000000 
-0.278030 -0.936921 0.000000 
-0.225992 -0.942788 0.000000 
-0.201664 -0.890671 0.000000 
-0.145749 -0.904145 0.000000 
-0.117890 -0.859802 0.000000 
-0.059328 -0.882508 0.000000 
-0.029759 -0.845442 0.000000 
-0.058559 -1.296064 0.000000 
-0.162226 -1.316907 0.000000 
-0.123292 -1.281289 0.000000 
-0.142917 -1.232306 0.000000 
-0.261851 -1.339064 0.000000 
-0.229092 -1.302036 0.000000 
-0.256854 -1.250805 0.000000 
-0.209613 -1.216692 0.000000 
-0.223062 -1.169118 0.000000 
-0.360414 -1.361364 0.000000 
-0.329787 -1.324241 0.000000 
-0.361761 -1.272439 0.000000 
-0.321587 -1.236030 0.000000 
-0.341985 -1.185796 0.000000 
-0.290702 -1.152997 0.000000 
-0.302189 -1.106262 0.000000 
-0.458977 -1.383664 0.000000 
-0.429420 -1.346589 0.000000 
-0.464588 -1.294547 0.000000 
-0.427556 -1.257520 0.000000 
-0.453135 -1.206005 0.000000 
-0.407738 -1.170690 0.000000 
-0.425037 -1.121262 0.000000 
-0.370772 -1.089633 0.000000 
-0.381315 -1.043405 0.000000 
-0.046960 -1.346880 0.000000 
-0.095301 -1.440926 0.000000 
-0.098873 -1.388278 0.000000 
-0.149405 -1.373081 0.000000 
-0.140093 -1.532630 0.000000 
-0.148617 -1.483931 0.000000 
-0.205981 -1.473694 0.000000 
-0.203197 -1.415491 0.000000 
-0.248777 -1.396344 0.000000 
-0.184111 -1.623593 0.000000 
-0.194039 -1.576502 0.000000 
-0.254475 -1.569203 0.000000 
-0.257893 -1.515093 0.000000 
-0.309886 -1.499720 0.000000 
-0.303554 -1.439175 0.000000 
-0.347255 -1.419017 0.000000 
-0.228129 -1.714557 0.000000 
-0.238687 -1.668333 0.000000 
-0.301302 -1.663380 0.000000 
-0.307162 -1.611342 0.000000 
-0.363386 -1.599221 0.000000 
-0.362692 -1.541709 0.000000 
-0.412122 -1.524416 0.000000 
-0.403017 -1.462269 0.000000 
-0.445733 -1.441691 0.000000 
-0.000000 -1.369495 0.000000 
0.043388 -1.465925 0.000000 
-0.000000 -1.435893 0.000000 
-0.043388 -1.465925 0.000000 
0.087158 -1.558122 0.000000 
0.043769 -1.534423 0.000000 
-0.000000 -1.572889 0.000000 
-0.043769 -1.534423 0.000000 
-0.087158 -1.558122 0.000000 
0.130831 -1.649252 0.000000 
0.087824 -1.627653 0.000000 
0.044436 -1.670352 0.000000 
-0.000000 -1.639287 0.000000 
-0.044436 -1.670352 0.000000 
-0.087824 -1.627653 0.000000 
-0.130831 -1.649252 0.000000 
0.174505 -1.740381 0.000000 
0.131782 -1.719815 0.000000 
0.088871 -1.765682 0.000000 
0.044532 -1.737818 0.000000 
-0.000000 -1.774218 0.000000 
-0.044532 -1.737818 0.000000 
-0.088871 -1.765682 0.000000 
-0.131782 -1.719815 0.000000 
-0.174505 -1.740381 0.000000 
0.046960 -1.346880 0.000000 
0.149405 -1.373081 0.000000 
0.098873 -1.388278 0.000000 
0.095301 -1.440926 0.000000 
0.248777 -1.396344 0.000000 
0.203197 -1.415491 0.000000 
0.205981 -1.473694 0.000000 
0.148617 -1.483931 0.000000 
0.140093 -1.532630 0.000000 
0.347255 -1.419017 0.000000 
0.303554 -1.439175 0.000000 
0.309886 -1.499720 0.000000 
0.257893 -1.515093 0.000000 
0.254475 -1.569203 0.000000 
0.194039 -1.576502 0.000000 
0.184111 -1.623593 0.000000 
0.445733 -1.441691 0.000000 
0.403017 -1.462269 0.000000 
0.412122 -1.524416 0.000000 
0.362692 -1.541709 0.000000 
0.363386 -1.599221 0.000000 
0.307162 -1.611342 0.000000 
0.301302 -1.663380 0.000000 
0.238687 -1.668333 0.000000 
0.228129 -1.714557 0.000000 
0.058559 -1.296064 0.000000 
0.142917 -1.232306 0.000000 
0.123292 -1.281289 0.000000 
0.162226 -1.316907 0.000000 
0.223062 -1.169118 0.000000 
0.209613 -1.216692 0.000000 
0.256854 -1.250805 0.000000 
0.229092 -1.302036 0.000000 
0.261851 -1.339064 0.000000 
0.302189 -1.106262 0.000000 
0.290702 -1.152997 0.000000 
0.341985 -1.185796 0.000000 
0.321587 -1.236030 0.000000 
0.361761 -1.272439 0.000000 
0.329787 -1.324241 0.000000 
0.360414 -1.361364 0.000000 
0.381315 -1.043405 0.000000 
0.370772 -1.089633 0.000000 
0.425037 -1.121262 0.000000 
0.407738 -1.170690 0.000000 
0.453135 -1.206005 0.000000 
0.427556 -1.257520 0.000000 
0.464588 -1.294547 0.000000 
0.429420 -1.346589 0.000000 
0.458977 -1.383664 0.000000 
0.026061 -1.255314 0.000000 
0.028809 -1.149607 0.000000 
0.054870 -1.195491 0.000000 
0.106992 -1.187258 0.000000 
0.029377 -1.047550 0.000000 
0.058186 -1.087727 0.000000 
0.114311 -1.072062 0.000000 
0.137056 -1.125709 0.000000 
0.186430 -1.123183 0.000000 
0.029568 -0.946496 0.000000 
0.058945 -0.984616 0.000000 
0.116563 -0.964970 0.000000 
0.143120 -1.012239 0.000000 
0.196633 -1.003530 0.000000 
0.217198 -1.060827 0.000000 
0.265318 -1.060027 0.000000 
0.029759 -0.845442 0.000000 
0.059328 -0.882508 0.000000 
0.117890 -0.859802 0.000000 
0.145749 -0.904145 0.000000 
0.201664 -0.890671 0.000000 
0.225992 -0.942788 0.000000 
0.278030 -0.936921 0.000000 
0.296791 -0.996864 0.000000 
0.344206 -0.996871 0.000000 
CELLS 175 350 
1 0 
1 1 
1 2 
1 3 
1 4 
1 5 
1 6 
1 7 
1 8 
1 9 
1 10 
1 11 
1 12 
1 13 
1 14 
1 15 
1 16 
1 17 
1 18 
1 19 
1 20 
1 21 
1 22 
1 23 
1 24 
1 25 
1 26 
1 27 
1 28 
1 29 
1 30 
1 31 
1 32 
1 33 
1 34 
1 35 
1 36 
1 37 
1 38 
1 39 
1 40 
1 41 
1 42 
1 43 
1 44 
1 45 
1 46 
1 47 
1 48 
1 49 
1 50 
1 51 
1 52 
1 53 
1 54 
1 55 
1 56 
1 57 
1 58 
1 59 
1 60 
1 61 
1 62 
1 63 
1 64 
1 65 
1 66 
1 67 
1 68 
1 69 
1 70 
1 71 
1 72 
1 73 
1 74 
1 75 
1 76 
1 77 
1 78 
1 79 
1 80 
1 81 
1 82 
1 83 
1 84 
1 85 
1 86 
1 87 
1 88 
1 89 
1 90 
1 91 
1 92 
1 93 
1 94 
1 95 
1 96 
1 97 
1 98 
1 99 
1 100 
1 101 
1 102 
1 103 
1 104 
1 105 
1 106 
1 107 
1 108 
1 109 
1 110 
1 111 
1 112 
1 113 
1 114 
1 115 
1 116 
1 117 
1 118 
1 119 
1 120 
1 121 
1 122 
1 123 
1 124 
1 125 
1 126 
1 127 
1 128 
1 129 
1 130 
1 131 
1 132 
1 133 
1 134 
1 135 
1 136 
1 137 
1 138 
1 139 
1 140 
1 141 
1 142 
1 143 
1 144 
1 145 
1 146 
1 147 
1 148 
1 149 
1 150 
1 151 
1 152 
1 153 
1 154 
1 155 
1 156 
1 157 
1 158 
1 159 
1 160 
1 161 
1 162 
1 163 
1 164 
1 165 
1 166 
1 167 
1 168 
1 169 
1 170 
1 171 
1 172 
1 173 
1 174 
CELL_TYPES 175 
1 
1 
1 
1 
1 
1 
1 
1 
1 
1 
1 
1 
1 
1 
1 
1 
1 
1 
1 
1 
1 
1 
1 
1 
1 
1 
1 
1 
1 
1 
1 
1 
1 
1 
1 
1 
1 
1 
1 
1 
1 
1 
1 
1 
1 
1 
1 
1 
1 
1 
1 
1 
1 
1 
1 
1 
1 
1 
1 
1 
1 
1 
1 
1 
1 
1 
1 
1 
1 
1 
1 
1 
1 
1 
1 
1 
1 
1 
1 
1 
1 
1 
1 
1 
1 
1 
1 
1 
1 
1 
1 
1 
1 
1 
1 
1 
1 
1 
1 
1 
1 
1 
1 
1 
1 
1 
1 
1 
1 
1 
1 
1 
1 
1 
1 
1 
1 
1 
1 
1 
1 
1 
1 
1 
1 
1 
1 
1 
1 
1 
1 
1 
1 
1 
1 
1 
1 
1 
1 
1 
1 
1 
1 
1 
1 
1 
1 
1 
1 
1 
1 
1 
1 
1 
1 
1 
1 
1 
1 
1 
1 
1 
1 
1 
1 
1 
1 
1 
1 
1 
1 
1 
1 
1 
1 
POINT_DATA 175 
VECTORS X_GC float 
-0.026061 -1.255314 0.000000 
-0.106992 -1.187258 0.000000 
-0.054870 -1.195491 0.000000 
-0.028809 -1.149607 0.000000 
-0.186430 -1.123183 0.000000 
-0.137056 -1.125709 0.000000 
-0.114311 -1.072062 0.000000 
-0.058186 -1.087727 0.000000 
-0.029377 -1.047550 0.000000 
-0.265318 -1.060027 0.000000 
-0.217198 -1.060827 0.000000 
-0.196633 -1.003530 0.000000 
-0.143120 -1.012239 0.000000 
-0.116563 -0.964970 0.000000 
-0.058945 -0.984616 0.000000 
-0.029568 -0.946496 0.000000 
-0.344206 -0.996871 0.000000 
-0.296791 -0.996864 0.000000 
-0.278030 -0.936921 0.000000 
-0.225992 -0.942788 0.000000 
-0.201664 -0.890671 0.000000 
-0.145749 -0.904145 0.000000 
-0.117890 -0.859802 0.000000 
-0.059328 -0.882508 0.000000 
-0.029759 -0.845442 0.000000 
-0.058559 -1.296064 0.000000 
-0.162226 -1.316907 0.000000 
-0.123292 -1.281289 0.000000 
-0.142917 -1.232306 0.000000 
-0.261851 -1.339064 0.000000 
-0.229092 -1.302036 0.000000 
-0.256854 -1.250805 0.000000 
-0.209613 -1.216692 0.000000 
-0.223062 -1.169118 0.000000 
-0.360414 -1.361364 0.000000 
-0.329787 -1.324241 0.000000 
-0.361761 -1.272439 0.000000 
-0.321587 -1.236030 0.000000 
-0.341985 -1.185796 0.000000 
-0.290702 -1.152997 0.000000 
-0.302189 -1.106262 0.000000 
-0.458977 -1.383664 0.000000 
-0.429420 -1.346589 0.000000 
-0.464588 -1.294547 0.000000 
-0.427556 -1.257520 0.000000 
-0.453135 -1.206005 0.000000 
-0.407738 -1.170690 0.000000 
-0.425037 -1.121262 0.000000 
-0.370772 -1.089633 0.000000 
-0.381315 -1.043405 0.000000 
-0.046960 -1.346880 0.000000 
-0.095301 -1.440926 0.000000 
-0.098873 -1.388278 0.000000 
-0.149405 -1.373081 0.000000 
-0.140093 -1.532630 0.000000 
-0.148617 -1.483931 0.000000 
-0.205981 -1.473694 0.000000 
-0.203197 -1.415491 0.000000 
-0.248777 -1.396344 0.000000 
-0.184111 -1.623593 0.000000 
-0.194039 -1.576502 0.000000 
-0.254475 -1.569203 0.000000 
-0.257893 -1.515093 0.000000 
-0.309886 -1.499720 0.000000 
-0.303554 -1.439175 0.000000 
-0.347255 -1.419017 0.000000 
-0.228129 -1.714557 0.000000 
-0.238687 -1.668333 0.000000 
-0.301302 -1.663380 0.000000 
-0.307162 -1.611342 0.000000 
-0.363386 -1.599221 0.000000 
-0.362692 -1.541709 0.000000 
-0.412122 -1.524416 0.000000 
-0.403017 -1.462269 0.000000 
-0.445733 -1.441691 0.000000 
-0.000000 -1.369495 0.000000 
0.043388 -1.465925 0.000000 
-0.000000 -1.435893 0.000000 
-0.043388 -1.465925 0.000000 
0.087158 -1.558122 0.000000 
0.043769 -1.534423 0.000000 
-0.000000 -1.572889 0.000000 
-0.043769 -1.534423 0.000000 
-0.087158 -1.558122 0.000000 
0.130831 -1.649252 0.000000 
0.087824 -1.627653 0.000000 
0.044436 -1.670352 0.000000 
-0.000000 -1.639287 0.000000 
-0.044436 -1.670352 0.000000 
-0.087824 -1.627653 0.000000 
-0.130831 -1.649252 0.000000 
0.174505 -1.740381 0.000000 
0.131782 -1.719815 0.000000 
0.088871 -1.765682 0.000000 
0.044532 -1.737818 0.000000 
-0.000000 -1.774218 0.000000 
-0.044532 -1.737818 0.000000 
-0.088871 -1.765682 0.000000 
-0.131782 -1.719815 0.000000 
-0.174505 -1.740381 0.000000 
0.046960 -1.346880 0.000000 
0.149405 -1.373081 0.000000 
0.098873 -1.388278 0.000000 
0.095301 -1.440926 0.000000 
0.248777 -1.396344 0.000000 
0.203197 -1.415491 0.000000 
0.205981 -1.473694 0.000000 
0.148617 -1.483931 0.000000 
0.140093 -1.532630 0.000000 
0.347255 -1.419017 0.000000 
0.303554 -1.439175 0.000000 
0.309886 -1.499720 0.000000 
0.257893 -1.515093 0.000000 
0.254475 -1.569203 0.000000 
0.194039 -1.576502 0.000000 
0.184111 -1.623593 0.000000 
0.445733 -1.441691 0.000000 
0.403017 -1.462269 0.000000 
0.412122 -1.524416 0.000000 
0.362692 -1.541709 0.000000 
0.363386 -1.599221 0.000000 
0.307162 -1.611342 0.000000 
0.301302 -1.663380 0.000000 
0.238687 -1.668333 0.000000 
0.228129 -1.714557 0.000000 
0.058559 -1.296064 0.000000 
0.142917 -1.232306 0.000000 
0.123292 -1.281289 0.000000 
0.162226 -1.316907 0.000000 
0.223062 -1.169118 0.000000 
0.209613 -1.216692 0.000000 
0.256854 -1.250805 0.000000 
0.229092 -1.302036 0.000000 
0.261851 -1.339064 0.000000 
0.302189 -1.106262 0.000000 
0.290702 -1.152997 0.000000 
0.341985 -1.185796 0.000000 
0.321587 -1.236030 0.000000 
0.361761 -1.272439 0.000000 
0.329787 -1.324241 0.000000 
0.360414 -1.361364 0.000000 
0.381315 -1.043405 0.000000 
0.370772 -1.089633 0.000000 
0.425037 -1.121262 0.000000 
0.407738 -1.170690 0.000000 
0.453135 -1.206005 0.000000 
0.427556 -1.257520 0.000000 
0.464588 -1.294547 0.000000 
0.429420 -1.346589 0.000000 
0.458977 -1.383664 0.000000 
0.026061 -1.255314 0.000000 
0.028809 -1.149607 0.000000 
0.054870 -1.195491 0.000000 
0.106992 -1.187258 0.000000 
0.029377 -1.047550 0.000000 
0.058186 -1.087727 0.000000 
0.114311 -1.072062 0.000000 
0.137056 -1.125709 0.000000 
0.186430 -1.123183 0.000000 
0.029568 -0.946496 0.000000 
0.058945 -0.984616 0.000000 
0.116563 -0.964970 0.000000 
0.143120 -1.012239 0.000000 
0.196633 -1.003530 0.000000 
0.217198 -1.060827 0.000000 
0.265318 -1.060027 0.000000 
0.029759 -0.845442 0.000000 
0.059328 -0.882508 0.000000 
0.117890 -0.859802 0.000000 
0.145749 -0.904145 0.000000 
0.201664 -0.890671 0.000000 
0.225992 -0.942788 0.000000 
0.278030 -0.936921 0.000000 
0.296791 -0.996864 0.000000 
0.344206 -0.996871 0.000000 
VECTORS X_EC float 
0.338794 -0.553264 0.000000 
-0.609100 0.527987 0.000000 
0.713312 0.639128 0.000000 
0.374519 0.019698 0.000000 
0.423588 -0.337032 0.000000 
-0.218274 -0.302929 0.000000 
-0.513962 0.972833 0.000000 
0.756418 -0.815681 0.000000 
0.381900 0.641926 0.000000 
-0.550868 0.810365 0.000000 
0.823577 0.821160 0.000000 
0.556234 0.047656 0.000000 
-0.139443 0.165225 0.000000 
-0.484677 -0.472900 0.000000 
0.766286 -0.207684 0.000000 
0.384386 -0.722305 0.000000 
0.474677 -0.042238 0.000000 
-0.141715 -0.042335 0.000000 
-0.385608 -0.851563 0.000000 
0.937896 -0.772368 0.000000 
0.621631 0.524052 0.000000 
-0.105264 0.705952 0.000000 
-0.467428 0.107325 0.000000 
0.771260 0.413854 0.000000 
0.386873 -0.086536 0.000000 
0.761262 -0.003130 0.000000 
0.108942 0.278247 0.000000 
-0.397202 -0.202593 0.000000 
-0.142083 -0.863868 0.000000 
-0.595936 0.577357 0.000000 
0.978194 0.077491 0.000000 
-0.660903 -0.614134 0.000000 
0.724964 0.925346 0.000000 
0.899809 0.283098 0.000000 
0.685384 0.878409 0.000000 
0.287229 0.377251 0.000000 
0.702895 -0.322077 0.000000 
0.180633 -0.813596 0.000000 
0.445811 0.508244 0.000000 
-0.220880 0.065458 0.000000 
-0.071546 -0.565467 0.000000 
-0.033296 -0.820538 0.000000 
-0.417537 0.678952 0.000000 
0.039645 -0.023610 0.000000 
-0.441768 -0.523482 0.000000 
-0.109248 0.781068 0.000000 
-0.699407 0.304312 0.000000 
-0.474522 -0.362967 0.000000 
0.820030 -0.789960 0.000000 
0.957100 0.585968 0.000000 
0.610485 0.682876 0.000000 
-0.761092 -0.047504 0.000000 
-0.714655 -0.758242 0.000000 
-0.057734 -0.963409 0.000000 
-0.178789 -0.809500 0.000000 
-0.067979 0.533074 0.000000 
0.677748 0.394870 0.000000 
0.641556 -0.390875 0.000000 
-0.765897 -0.649353 0.000000 
0.393446 0.418509 0.000000 
0.522510 -0.217221 0.000000 
-0.691820 -0.315765 0.000000 
-0.647393 0.953752 0.000000 
0.028512 0.746226 0.000000 
-0.053800 -0.071135 0.000000 
0.514316 -0.343266 0.000000 
0.965681 -0.353482 0.000000 
-0.897068 -0.977511 0.000000 
-0.083078 0.955636 0.000000 
-0.006893 0.253112 0.000000 
0.724017 0.089479 0.000000 
0.714996 -0.686925 0.000000 
-0.642413 -0.920382 0.000000 
-0.760780 0.240637 0.000000 
-0.205471 -0.037178 0.000000 
0.000000 0.988178 0.000000 
-0.564049 0.289991 0.000000 
0.000000 -0.115445 0.000000 
0.564049 0.289991 0.000000 
0.866949 -0.465354 0.000000 
-0.569003 -0.785285 0.000000 
0.000000 -0.265997 0.000000 
0.569003 -0.785285 0.000000 
-0.866949 -0.465354 0.000000 
0.299194 0.764896 0.000000 
0.858290 0.473312 0.000000 
-0.577662 -0.950242 0.000000 
0.000000 0.630380 0.000000 
0.577662 -0.950242 0.000000 
-0.858290 0.473312 0.000000 
-0.299194 0.764896 0.000000 
-0.268560 -0.004854 0.000000 
0.286830 -0.282495 0.000000 
0.844677 0.336703 0.000000 
-0.578910 -0.039460 0.000000 
0.000000 0.451944 0.000000 
0.578910 -0.039460 0.000000 
-0.844677 0.336703 0.000000 
-0.286830 -0.282495 0.000000 
0.268560 -0.004854 0.000000 
-0.610485 0.682876 0.000000 
0.057734 -0.963409 0.000000 
0.714655 -0.758242 0.000000 
0.761092 -0.047504 0.000000 
0.765897 -0.649353 0.000000 
-0.641556 -0.390875 0.000000 
-0.677748 0.394870 0.000000 
0.067979 0.533074 0.000000 
0.178789 -0.809500 0.000000 
-0.514316 -0.343266 0.000000 
0.053800 -0.071135 0.000000 
-0.028512 0.746226 0.000000 
0.647393 0.953752 0.000000 
0.691820 -0.315765 0.000000 
-0.522510 -0.217221 0.000000 
-0.393446 0.418509 0.000000 
0.205471 -0.037178 0.000000 
0.760780 0.240637 0.000000 
0.642413 -0.920382 0.000000 
-0.714996 -0.686925 0.000000 
-0.724017 0.089479 0.000000 
0.006894 0.253112 0.000000 
0.083078 0.955636 0.000000 
0.897068 -0.977511 0.000000 
-0.965681 -0.353482 0.000000 
-0.761262 -0.003130 0.000000 
0.142083 -0.863868 0.000000 
0.397202 -0.202593 0.000000 
-0.108942 0.278247 0.000000 
-0.899809 0.283098 0.000000 
-0.724964 0.925346 0.000000 
0.660903 -0.614134 0.000000 
-0.978194 0.077491 0.000000 
0.595936 0.577357 0.000000 
0.071546 -0.565467 0.000000 
0.220880 0.065458 0.000000 
-0.445811 0.508244 0.000000 
-0.180633 -0.813596 0.000000 
-0.702895 -0.322077 0.000000 
-0.287229 0.377251 0.000000 
-0.685384 0.878409 0.000000 
-0.957100 0.585968 0.000000 
-0.820030 -0.789960 0.000000 
0.474522 -0.362967 0.000000 
0.699407 0.304312 0.000000 
0.109248 0.781068 0.000000 
0.441768 -0.523482 0.000000 
-0.039645 -0.023610 0.000000 
0.417537 0.678952 0.000000 
0.033296 -0.820538 0.000000 
-0.338794 -0.553264 0.000000 
-0.374519 0.019698 0.000000 
-0.713312 0.639128 0.000000 
0.609100 0.527987 0.000000 
-0.381900 0.641926 0.000000 
-0.756418 -0.815681 0.000000 
0.513962 0.972833 0.000000 
0.218274 -0.302929 0.000000 
-0.423588 -0.337032 0.000000 
-0.384386 -0.722305 0.000000 
-0.766286 -0.207684 0.000000 
0.484677 -0.472900 0.000000 
0.139443 0.165225 0.000000 
-0.556234 0.047656 0.000000 
-0.823577 0.821160 0.000000 
0.550868 0.810365 0.000000 
-0.386873 -0.086536 0.000000 
-0.771260 0.413854 0.000000 
0.467428 0.107325 0.000000 
0.105264 0.705952 0.000000 
-0.621631 0.524052 0.000000 
-0.937896 -0.772368 0.000000 
0.385608 -0.851563 0.000000 
0.141715 -0.042335 0.000000 
-0.474677 -0.042238 0.000000 
CELL_DATA 175 
SCALARS MASS float 
LOOKUP_TABLE default 
0.078183 
0.086427 
0.094672 
0.086427 
0.088131 
0.092111 
0.085854 
0.092111 
0.088131 
0.088705 
0.091000 
0.086983 
0.091556 
0.086983 
0.091000 
0.088705 
0.089278 
0.091574 
0.089278 
0.092722 
0.089278 
0.092722 
0.089278 
0.091574 
0.089278 
0.078183 
0.086427 
0.094672 
0.086427 
0.088131 
0.092111 
0.085854 
0.092111 
0.088131 
0.088705 
0.091000 
0.086983 
0.091556 
0.086983 
0.091000 
0.088705 
0.089278 
0.091574 
0.089278 
0.092722 
0.089278 
0.092722 
0.089278 
0.091574 
0.089278 
0.078183 
0.086427 
0.094672 
0.086427 
0.088131 
0.092111 
0.085854 
0.092111 
0.088131 
0.088705 
0.091000 
0.086983 
0.091556 
0.086983 
0.091000 
0.088705 
0.089278 
0.091574 
0.089278 
0.092722 
0.089278 
0.092722 
0.089278 
0.091574 
0.089278 
0.078183 
0.086427 
0.094672 
0.086427 
0.088131 
0.092111 
0.085854 
0.092111 
0.088131 
0.088705 
0.091000 
0.086983 
0.091556 
0.086983 
0.091000 
0.088705 
0.089278 
0.091574 
0.089278 
0.092722 
0.089278 
0.092722 
0.089278 
0.091574 
0.089278 
0.078183 
0.086427 
0.094672 
0.086427 
0.088131 
0.092111 
0.085854 
0.092111 
0.088131 
0.088705 
0.091000 
0.086983 
0.091556 
0.086983 
0.091000 
0.088705 
0.089278 
0.091574 
0.089278 
0.092722 
0.089278 
0.092722 
0.089278 
0.091574 
0.089278 
0.078183 
0.086427 
0.094672 
0.086427 
0.088131 
0.092111 
0.085854 
0.092111 
0.088131 
0.088705 
0.091000 
0.086983 
0.091556 
0.086983 
0.091000 
0.088705 
0.089278 
0.091574 
0.089278 
0.092722 
0.089278 
0.092722 
0.089278 
0.091574 
0.089278 
0.078183 
0.086427 
0.094672 
0.086427 
0.088131 
0.092111 
0.085854 
0.092111 
0.088131 
0.088705 
0.091000 
0.086983 
0.091556 
0.086983 
0.091000 
0.088705 
0.089278 
0.091574 
0.089278 
0.092722 
0.089278 
0.092722 
0.089278 
0.091574 
0.089278 
SCALARS MASS float 
LOOKUP_TABLE default 
0.078183 
0.086427 
0.094672 
0.086427 
0.088131 
0.092111 
0.085854 
0.092111 
0.088131 
0.088705 
0.091000 
0.086983 
0.091556 
0.086983 
0.091000 
0.088705 
0.089278 
0.091574 
0.089278 
0.092722 
0.089278 
0.092722 
0.089278 
0.091574 
0.089278 
0.078183 
0.086427 
0.094672 
0.086427 
0.088131 
0.092111 
0.085854 
0.092111 
0.088131 
0.088705 
0.091000 
0.086983 
0.091556 
0.086983 
0.091000 
0.088705 
0.089278 
0.091574 
0.089278 
0.092722 
0.089278 
0.092722 
0.089278 
0.091574 
0.089278 
0.078183 
0.086427 
0.094672 
0.086427 
0.088131 
0.092111 
0.085854 
0.092111 
0.088131 
0.088705 
0.091000 
0.086983 
0.091556 
0.086983 
0.091000 
0.088705 
0.089278 
0.091574 
0.089278 
0.092722 
0.089278 
0.092722 
0.089278 
0.091574 
0.089278 
0.078183 
0.086427 
0.094672 
0.086427 
0.088131 
0.092111 
0.085854 
0.092111 
0.088131 
0.088705 
0.091000 
0.086983 
0.091556 
0.086983 
0.091000 
0.088705 
0.089278 
0.091574 
0.089278 
0.092722 
0.089278 
0.092722 
0.089278 
0.091574 
0.089278 
0.078183 
0.086427 
0.094672 
0.086427 
0.088131 
0.092111 
0.085854 
0.092111 
0.088131 
0.088705 
0.091000 
0.086983 
0.091556 
0.086983 
0.091000 
0.088705 
0.089278 
0.091574 
0.089278 
0.092722 
0.089278 
0.092722 
0.089278 
0.091574 
0.089278 
0.078183 
0.086427 
0.094672 
0.086427 
0.088131 
0.092111 
0.085854 
0.092111 
0.088131 
0.088705 
0.091000 
0.086983 
0.091556 
0.086983 
0.091000 
0.088705 
0.089278 
0.091574 
0.089278 
0.092722 
0.089278 
0.092722 
0.089278 
0.091574 
0.089278 
0.078183 
0.086427 
0.094672 
0.086427 
0.088131 
0.092111 
0.085854 
0.092111 
0.088131 
0.088705 
0.091000 
0.086983 
0.091556 
0.086983 
0.091000 
0.088705 
0.089278 
0.091574 
0.089278 
0.092722 
0.089278 
0.092722 
0.089278 
0.091574 
0.089278 
SCALARS DENSITY float 
LOOKUP_TABLE default 
20.000000 
20.000000 
20.000000 
20.000000 
20.000000 
20.000000 
20.000000 
20.000000 
20.000000 
20.000000 
20.000000 
20.000000 
20.000000 
20.000000 
20.000000 
20.000000 
20.000000 
20.000000 
20.000000 
20.000000 
20.000000 
20.000000 
20.000000 
20.000000 
20.000000 
20.000000 
20.000000 
20.000000 
20.000000 
20.000000 
20.000000 
20.000000 
20.000000 
20.000000 
20.000000 
20.000000 
20.000000 
20.000000 
20.000000 
20.000000 
20.000000 
20.000000 
20.000000 
20.000000 
20.000000 
20.000000 
20.000000 
20.000000 
20.000000 
20.000000 
20.000000 
20.000000 
20.000000 
20.000000 
20.000000 
20.000000 
20.000000 
20.000000 
20.000000 
20.000000 
20.000000 
20.000000 
20.000000 
20.000000 
20.000000 
20.000000 
20.000000 
20.000000 
20.000000 
20.000000 
20.000000 
20.000000 
20.000000 
20.000000 
20.000000 
20.000000 
20.000000 
20.000000 
20.000000 
20.000000 
20.000000 
20.000000 
20.000000 
20.000000 
20.000000 
20.000000 
20.000000 
20.000000 
20.000000 
20.000000 
20.000000 
20.000000 
20.000000 
20.000000 
20.000000 
20.000000 
20.000000 
20.000000 
20.000000 
20.000000 
20.000000 
20.000000 
20.000000 
20.000000 
20.000000 
20.000000 
20.000000 
20.000000 
20.000000 
20.000000 
20.000000 
20.000000 
20.000000 
20.000000 
20.000000 
20.000000 
20.000000 
20.000000 
20.000000 
20.000000 
20.000000 
20.000000 
20.000000 
20.000000 
20.000000 
20.000000 
20.000000 
20.000000 
20.000000 
20.000000 
20.000000 
20.000000 
20.000000 
20.000000 
20.000000 
20.000000 
20.000000 
20.000000 
20.000000 
20.000000 
20.000000 
20.000000 
20.000000 
20.000000 
20.000000 
20.000000 
20.000000 
20.000000 
20.000000 
20.000000 
20.000000 
20.000000 
20.000000 
20.000000 
20.000000 
20.000000 
20.000000 
20.000000 
20.000000 
20.000000 
20.000000 
20.000000 
20.000000 
20.000000 
20.000000 
20.000000 
20.000000 
20.000000 
20.000000 
20.000000 
20.000000 
20.000000 
20.000000 
20.000000 
20.000000 
SCALARS ELEM_i float 
LOOKUP_TABLE default 
173 
201 
174 
174 
201 
201 
202 
174 
175 
229 
202 
202 
202 
202 
175 
175 
229 
229 
229 
202 
203 
203 
203 
176 
176 
173 
200 
200 
200 
227 
200 
227 
201 
201 
227 
227 
227 
227 
228 
228 
228 
253 
254 
254 
254 
255 
255 
255 
228 
229 
173 
199 
199 
199 
198 
199 
199 
199 
226 
198 
198 
225 
226 
226 
226 
226 
197 
224 
225 
225 
225 
225 
252 
253 
253 
173 
172 
172 
172 
144 
171 
171 
171 
198 
144 
144 
170 
171 
170 
198 
198 
143 
143 
143 
170 
170 
170 
197 
197 
197 
173 
145 
145 
145 
118 
145 
145 
145 
144 
118 
118 
118 
118 
117 
144 
144 
91 
91 
90 
117 
117 
117 
117 
116 
143 
173 
146 
146 
146 
147 
147 
119 
146 
119 
120 
120 
120 
119 
119 
119 
119 
121 
120 
93 
93 
93 
92 
92 
92 
91 
173 
174 
174 
147 
175 
174 
148 
147 
147 
175 
175 
148 
148 
148 
148 
121 
176 
176 
149 
149 
149 
148 
121 
121 
121 
VECTORS VELOCITY float 
0.000000 -5.068238 0.000000 
0.000000 -5.068238 0.000000 
0.000000 -5.068238 0.000000 
-0.000000 -5.068238 0.000000 
0.000000 -5.068238 0.000000 
0.000000 -5.068238 0.000000 
0.000000 -5.068238 0.000000 
0.000000 -5.068238 0.000000 
0.000000 -5.068238 0.000000 
-0.000000 -5.068238 0.000000 
0.000000 -5.068238 0.000000 
-0.000000 -5.068238 0.000000 
-0.000000 -5.068238 0.000000 
-0.000000 -5.068238 0.000000 
0.000000 -5.068238 0.000000 
-0.000000 -5.068238 0.000000 
-0.000000 -5.068238 0.000000 
-0.000000 -5.068238 0.000000 
0.000000 -5.068238 0.000000 
-0.000000 -5.068238 0.000000 
-0.000000 -5.068238 0.000000 
-0.000000 -5.068238 0.000000 
0.000000 -5.068238 0.000000 
0.000000 -5.068238 0.000000 
0.000000 -5.068238 0.000000 
-0.000000 -5.068238 0.000000 
-0.000000 -5.068238 0.000000 
-0.000000 -5.068238 0.000000 
-0.000000 -5.068238 0.000000 
0.000000 -5.068238 0.000000 
0.000000 -5.068238 0.000000 
-0.000000 -5.068238 0.000000 
-0.000000 -5.068238 0.000000 
0.000000 -5.068238 0.000000 
0.000000 -5.068238 0.000000 
0.000000 -5.068238 0.000000 
-0.000000 -5.068238 0.000000 
0.000000 -5.068238 0.000000 
0.000000 -5.068238 0.000000 
0.000000 -5.068238 0.000000 
0.000000 -5.068238 0.000000 
0.000000 -5.068238 0.000000 
0.000000 -5.068238 0.000000 
0.000000 -5.068238 0.000000 
0.000000 -5.068238 0.000000 
-0.000000 -5.068238 0.000000 
-0.000000 -5.068238 0.000000 
-0.000000 -5.068238 0.000000 
-0.000000 -5.068238 0.000000 
-0.000000 -5.068238 0.000000 
-0.000000 -5.068238 0.000000 
0.000000 -5.068238 0.000000 
-0.000000 -5.068238 0.000000 
0.000000 -5.068238 0.000000 
0.000000 -5.068238 0.000000 
0.000000 -5.068238 0.000000 
-0.000000 -5.068238 0.000000 
0.000000 -5.068238 0.000000 
0.000000 -5.068238 0.000000 
0.000000 -5.068238 0.000000 
0.000000 -5.068238 0.000000 
-0.000000 -5.068238 0.000000 
-0.000000 -5.068238 0.000000 
-0.000000 -5.068238 0.000000 
-0.000000 -5.068238 0.000000 
0.000000 -5.068238 0.000000 
-0.000000 -5.068238 0.000000 
0.000000 -5.068238 0.000000 
0.000000 -5.068238 0.000000 
0.000000 -5.068238 0.000000 
0.000000 -5.068238 0.000000 
-0.000000 -5.068238 0.000000 
0.000000 -5.068238 0.000000 
-0.000000 -5.068238 0.000000 
0.000000 -5.068238 0.000000 
-0.000000 -5.068238 0.000000 
0.000000 -5.068238 0.000000 
0.000000 -5.068238 0.000000 
0.000000 -5.068238 0.000000 
-0.000000 -5.068238 0.000000 
0.000000 -5.068238 0.000000 
0.000000 -5.068238 0.000000 
0.000000 -5.068238 0.000000 
0.000000 -5.068238 0.000000 
-0.000000 -5.068238 0.000000 
-0.000000 -5.068238 0.000000 
-0.000000 -5.068238 0.000000 
0.000000 -5.068238 0.000000 
0.000000 -5.068238 0.000000 
0.000000 -5.068238 0.000000 
0.000000 -5.068238 0.000000 
-0.000000 -5.068238 0.000000 
-0.000000 -5.068238 0.000000 
-0.000000 -5.068238 0.000000 
-0.000000 -5.068238 0.000000 
0.000000 -5.068238 0.000000 
0.000000 -5.068238 0.000000 
0.000000 -5.068238 0.000000 
0.000000 -5.068238 0.000000 
-0.000000 -5.068238 0.000000 
-0.000000 -5.068238 0.000000 
-0.000000 -5.068238 0.000000 
0.000000 -5.068238 0.000000 
0.000000 -5.068238 0.000000 
-0.000000 -5.068238 0.000000 
-0.000000 -5.068238 0.000000 
-0.000000 -5.068238 0.000000 
-0.000000 -5.068238 0.000000 
-0.000000 -5.068238 0.000000 
-0.000000 -5.068238 0.000000 
-0.000000 -5.068238 0.000000 
-0.000000 -5.068238 0.000000 
-0.000000 -5.068238 0.000000 
-0.000000 -5.068238 0.000000 
-0.000000 -5.068238 0.000000 
-0.000000 -5.068238 0.000000 
-0.000000 -5.068238 0.000000 
-0.000000 -5.068238 0.000000 
0.000000 -5.068238 0.000000 
0.000000 -5.068238 0.000000 
-0.000000 -5.068238 0.000000 
-0.000000 -5.068238 0.000000 
-0.000000 -5.068238 0.000000 
-0.000000 -5.068238 0.000000 
-0.000000 -5.068238 0.000000 
0.000000 -5.068238 0.000000 
0.000000 -5.068238 0.000000 
0.000000 -5.068238 0.000000 
-0.000000 -5.068238 0.000000 
-0.000000 -5.068238 0.000000 
-0.000000 -5.068238 0.000000 
-0.000000 -5.068238 0.000000 
-0.000000 -5.068238 0.000000 
-0.000000 -5.068238 0.000000 
0.000000 -5.068238 0.000000 
-0.000000 -5.068238 0.000000 
-0.000000 -5.068238 0.000000 
-0.000000 -5.068238 0.000000 
-0.000000 -5.068238 0.000000 
-0.000000 -5.068238 0.000000 
-0.000000 -5.068238 0.000000 
-0.000000 -5.068238 0.000000 
0.000000 -5.068238 0.000000 
0.000000 -5.068238 0.000000 
-0.000000 -5.068238 0.000000 
-0.000000 -5.068238 0.000000 
-0.000000 -5.068238 0.000000 
0.000000 -5.068238 0.000000 
0.000000 -5.068238 0.000000 
0.000000 -5.068238 0.000000 
0.000000 -5.068238 0.000000 
-0.000000 -5.068238 0.000000 
0.000000 -5.068238 0.000000 
-0.000000 -5.068238 0.000000 
0.000000 -5.068238 0.000000 
-0.000000 -5.068238 0.000000 
-0.000000 -5.068238 0.000000 
-0.000000 -5.068238 0.000000 
-0.000000 -5.068238 0.000000 
-0.000000 -5.068238 0.000000 
0.000000 -5.068238 0.000000 
0.000000 -5.068238 0.000000 
0.000000 -5.068238 0.000000 
0.000000 -5.068238 0.000000 
0.000000 -5.068238 0.000000 
0.000000 -5.068238 0.000000 
0.000000 -5.068238 0.000000 
0.000000 -5.068238 0.000000 
0.000000 -5.068238 0.000000 
0.000000 -5.068238 0.000000 
0.000000 -5.068238 0.000000 
0.000000 -5.068238 0.000000 
-0.000000 -5.068238 0.000000 
0.000000 -5.068238 0.000000 
0.000000 -5.068238 0.000000 
TENSORS STRESS float 
-0.000000 0.000000 0.000000 
0.000000 -0.000000 0.000000 
0.000000 0.000000 0.000000 

0.000000 -0.000000 0.000000 
0.000000 0.000000 0.000000 
0.000000 0.000000 0.000000 

-0.000000 -0.000000 0.000000 
0.000000 -0.000000 0.000000 
0.000000 0.000000 0.000000 

-0.000000 -0.000000 0.000000 
0.000000 0.000000 0.000000 
0.000000 0.000000 0.000000 

-0.000000 0.000000 0.000000 
0.000000 -0.000000 0.000000 
0.000000 0.000000 0.000000 

0.000000 -0.000000 0.000000 
0.000000 0.000000 0.000000 
0.000000 0.000000 0.000000 

-0.000000 0.000000 0.000000 
0.000000 0.000000 0.000000 
0.000000 0.000000 0.000000 

-0.000000 0.000000 0.000000 
0.000000 -0.000000 0.000000 
0.000000 0.000000 0.000000 

-0.000000 0.000000 0.000000 
0.000000 -0.000000 0.000000 
0.000000 0.000000 0.000000 

0.000000 0.000000 0.000000 
0.000000 0.000000 0.000000 
0.000000 0.000000 0.000000 

-0.000000 0.000000 0.000000 
0.000000 0.000000 0.000000 
0.000000 0.000000 0.000000 

0.000000 0.000000 0.000000 
0.000000 0.000000 0.000000 
0.000000 0.000000 0.000000 

-0.000000 0.000000 0.000000 