# vtk DataFile Version 3.0 
vtk output 
ASCII 
DATASET UNSTRUCTURED_GRID 
POINTS 10 float 
-0.500000 4.000000 0.000000 
0.500000 4.000000 0.000000 
-0.500000 3.000000 0.000000 
0.500000 3.000000 0.000000 
-0.500000 2.000000 0.000000 
0.500000 2.000000 0.000000 
-0.500000 1.000000 0.000000 
0.500000 1.000000 0.000000 
-0.500000 0.000000 0.000000 
0.500000 0.000000 0.000000 
CELLS 4 20 
4 7  6  8  9 
4 5  4  6  7 
4 3  2  4  5 
4 1  0  2  3 
CELL_TYPES 4 
9 
9 
9 
9 
POINT_DATA 10 
VECTORS X_GC float 
-0.500000 4.000000 0.000000 
0.500000 4.000000 0.000000 
-0.500000 3.000000 0.000000 
0.500000 3.000000 0.000000 
-0.500000 2.000000 0.000000 
0.500000 2.000000 0.000000 
-0.500000 1.000000 0.000000 
0.500000 1.000000 0.000000 
-0.500000 0.000000 0.000000 
0.500000 0.000000 0.000000 
SCALARS Active_Nod_Active int 
LOOKUP_TABLE default 
100
100
200
200
100
100
0
0
0
0
VECTORS MOMENTUM float 
0.000000 -0.000981 0.000000 
0.000000 -0.000981 0.000000 
0.000000 -0.001962 0.000000 
0.000000 -0.001962 0.000000 
-0.000000 -0.000981 0.000000 
-0.000000 -0.000981 0.000000 
0.000000 0.000000 0.000000 
0.000000 0.000000 0.000000 
0.000000 0.000000 0.000000 
0.000000 0.000000 0.000000 
CELL_DATA 4 
