# vtk DataFile Version 3.0 
vtk output 
ASCII 
DATASET UNSTRUCTURED_GRID 
POINTS 100 float 
0.472482 -2.900385 0.000000 
0.460694 -2.803730 0.000000 
0.451005 -2.710393 0.000000 
0.450953 -2.608638 0.000000 
0.450658 -2.508296 0.000000 
0.450202 -2.408833 0.000000 
0.450111 -2.308901 0.000000 
0.450051 -2.208967 0.000000 
0.450011 -2.109030 0.000000 
0.450006 -2.009036 0.000000 
0.360284 -2.901015 0.000000 
0.355390 -2.804468 0.000000 
0.351207 -2.710935 0.000000 
0.350745 -2.608863 0.000000 
0.350407 -2.508359 0.000000 
0.350123 -2.408846 0.000000 
0.350062 -2.308908 0.000000 
0.350027 -2.208969 0.000000 
0.350006 -2.109030 0.000000 
0.350003 -2.009036 0.000000 
0.248791 -2.901635 0.000000 
0.250916 -2.804852 0.000000 
0.251928 -2.710588 0.000000 
0.250731 -2.608711 0.000000 
0.250196 -2.508318 0.000000 
0.250055 -2.408840 0.000000 
0.250021 -2.308901 0.000000 
0.250006 -2.208965 0.000000 
0.250002 -2.109029 0.000000 
0.250001 -2.009035 0.000000 
0.151428 -2.902045 0.000000 
0.151138 -2.804990 0.000000 
0.150748 -2.710028 0.000000 
0.150395 -2.608408 0.000000 
0.150179 -2.508190 0.000000 
0.150054 -2.408807 0.000000 
0.150026 -2.308882 0.000000 
0.150010 -2.208956 0.000000 
0.150002 -2.109027 0.000000 
0.150001 -2.009034 0.000000 
0.053797 -2.902326 0.000000 
0.051377 -2.805051 0.000000 
0.049700 -2.709579 0.000000 
0.050060 -2.608159 0.000000 
0.050130 -2.508081 0.000000 
0.050043 -2.408778 0.000000 
0.050025 -2.308865 0.000000 
0.050012 -2.208948 0.000000 
0.050002 -2.109026 0.000000 
0.050001 -2.009033 0.000000 
-0.053797 -2.902326 0.000000 
-0.051377 -2.805051 0.000000 
-0.049700 -2.709579 0.000000 
-0.050060 -2.608159 0.000000 
-0.050130 -2.508081 0.000000 
-0.050043 -2.408778 0.000000 
-0.050025 -2.308865 0.000000 
-0.050012 -2.208948 0.000000 
-0.050002 -2.109026 0.000000 
-0.050001 -2.009033 0.000000 
-0.151428 -2.902045 0.000000 
-0.151138 -2.804990 0.000000 
-0.150748 -2.710028 0.000000 
-0.150395 -2.608408 0.000000 
-0.150179 -2.508190 0.000000 
-0.150054 -2.408807 0.000000 
-0.150026 -2.308882 0.000000 
-0.150010 -2.208956 0.000000 
-0.150002 -2.109027 0.000000 
-0.150001 -2.009034 0.000000 
-0.248791 -2.901635 0.000000 
-0.250916 -2.804852 0.000000 
-0.251928 -2.710588 0.000000 
-0.250731 -2.608711 0.000000 
-0.250196 -2.508318 0.000000 
-0.250055 -2.408840 0.000000 
-0.250021 -2.308901 0.000000 
-0.250006 -2.208965 0.000000 
-0.250002 -2.109029 0.000000 
-0.250001 -2.009035 0.000000 
-0.360284 -2.901015 0.000000 
-0.355390 -2.804468 0.000000 
-0.351207 -2.710935 0.000000 
-0.350745 -2.608863 0.000000 
-0.350407 -2.508359 0.000000 
-0.350123 -2.408846 0.000000 
-0.350062 -2.308908 0.000000 
-0.350027 -2.208969 0.000000 
-0.350006 -2.109030 0.000000 
-0.350003 -2.009036 0.000000 
-0.472482 -2.900385 0.000000 
-0.460694 -2.803730 0.000000 
-0.451005 -2.710393 0.000000 
-0.450953 -2.608638 0.000000 
-0.450658 -2.508296 0.000000 
-0.450202 -2.408833 0.000000 
-0.450111 -2.308901 0.000000 
-0.450051 -2.208967 0.000000 
-0.450011 -2.109030 0.000000 
-0.450006 -2.009036 0.000000 
CELLS 100 200 
1 0 
1 1 
1 2 
1 3 
1 4 
1 5 
1 6 
1 7 
1 8 
1 9 
1 10 
1 11 
1 12 
1 13 
1 14 
1 15 
1 16 
1 17 
1 18 
1 19 
1 20 
1 21 
1 22 
1 23 
1 24 
1 25 
1 26 
1 27 
1 28 
1 29 
1 30 
1 31 
1 32 
1 33 
1 34 
1 35 
1 36 
1 37 
1 38 
1 39 
1 40 
1 41 
1 42 
1 43 
1 44 
1 45 
1 46 
1 47 
1 48 
1 49 
1 50 
1 51 
1 52 
1 53 
1 54 
1 55 
1 56 
1 57 
1 58 
1 59 
1 60 
1 61 
1 62 
1 63 
1 64 
1 65 
1 66 
1 67 
1 68 
1 69 
1 70 
1 71 
1 72 
1 73 
1 74 
1 75 
1 76 
1 77 
1 78 
1 79 
1 80 
1 81 
1 82 
1 83 
1 84 
1 85 
1 86 
1 87 
1 88 
1 89 
1 90 
1 91 
1 92 
1 93 
1 94 
1 95 
1 96 
1 97 
1 98 
1 99 
CELL_TYPES 100 
1 
1 
1 
1 
1 
1 
1 
1 
1 
1 
1 
1 
1 
1 
1 
1 
1 
1 
1 
1 
1 
1 
1 
1 
1 
1 
1 
1 
1 
1 
1 
1 
1 
1 
1 
1 
1 
1 
1 
1 
1 
1 
1 
1 
1 
1 
1 
1 
1 
1 
1 
1 
1 
1 
1 
1 
1 
1 
1 
1 
1 
1 
1 
1 
1 
1 
1 
1 
1 
1 
1 
1 
1 
1 
1 
1 
1 
1 
1 
1 
1 
1 
1 
1 
1 
1 
1 
1 
1 
1 
1 
1 
1 
1 
1 
1 
1 
1 
1 
1 
POINT_DATA 100 
VECTORS X_GC float 
0.472482 -2.900385 0.000000 
0.460694 -2.803730 0.000000 
0.451005 -2.710393 0.000000 
0.450953 -2.608638 0.000000 
0.450658 -2.508296 0.000000 
0.450202 -2.408833 0.000000 
0.450111 -2.308901 0.000000 
0.450051 -2.208967 0.000000 
0.450011 -2.109030 0.000000 
0.450006 -2.009036 0.000000 
0.360284 -2.901015 0.000000 
0.355390 -2.804468 0.000000 
0.351207 -2.710935 0.000000 
0.350745 -2.608863 0.000000 
0.350407 -2.508359 0.000000 
0.350123 -2.408846 0.000000 
0.350062 -2.308908 0.000000 
0.350027 -2.208969 0.000000 
0.350006 -2.109030 0.000000 
0.350003 -2.009036 0.000000 
0.248791 -2.901635 0.000000 
0.250916 -2.804852 0.000000 
0.251928 -2.710588 0.000000 
0.250731 -2.608711 0.000000 
0.250196 -2.508318 0.000000 
0.250055 -2.408840 0.000000 
0.250021 -2.308901 0.000000 
0.250006 -2.208965 0.000000 
0.250002 -2.109029 0.000000 
0.250001 -2.009035 0.000000 
0.151428 -2.902045 0.000000 
0.151138 -2.804990 0.000000 
0.150748 -2.710028 0.000000 
0.150395 -2.608408 0.000000 
0.150179 -2.508190 0.000000 
0.150054 -2.408807 0.000000 
0.150026 -2.308882 0.000000 
0.150010 -2.208956 0.000000 
0.150002 -2.109027 0.000000 
0.150001 -2.009034 0.000000 
0.053797 -2.902326 0.000000 
0.051377 -2.805051 0.000000 
0.049700 -2.709579 0.000000 
0.050060 -2.608159 0.000000 
0.050130 -2.508081 0.000000 
0.050043 -2.408778 0.000000 
0.050025 -2.308865 0.000000 
0.050012 -2.208948 0.000000 
0.050002 -2.109026 0.000000 
0.050001 -2.009033 0.000000 
-0.053797 -2.902326 0.000000 
-0.051377 -2.805051 0.000000 
-0.049700 -2.709579 0.000000 
-0.050060 -2.608159 0.000000 
-0.050130 -2.508081 0.000000 
-0.050043 -2.408778 0.000000 
-0.050025 -2.308865 0.000000 
-0.050012 -2.208948 0.000000 
-0.050002 -2.109026 0.000000 
-0.050001 -2.009033 0.000000 
-0.151428 -2.902045 0.000000 
-0.151138 -2.804990 0.000000 
-0.150748 -2.710028 0.000000 
-0.150395 -2.608408 0.000000 
-0.150179 -2.508190 0.000000 
-0.150054 -2.408807 0.000000 
-0.150026 -2.308882 0.000000 
-0.150010 -2.208956 0.000000 
-0.150002 -2.109027 0.000000 
-0.150001 -2.009034 0.000000 
-0.248791 -2.901635 0.000000 
-0.250916 -2.804852 0.000000 
-0.251928 -2.710588 0.000000 
-0.250731 -2.608711 0.000000 
-0.250196 -2.508318 0.000000 
-0.250055 -2.408840 0.000000 
-0.250021 -2.308901 0.000000 
-0.250006 -2.208965 0.000000 
-0.250002 -2.109029 0.000000 
-0.250001 -2.009035 0.000000 
-0.360284 -2.901015 0.000000 
-0.355390 -2.804468 0.000000 
-0.351207 -2.710935 0.000000 
-0.350745 -2.608863 0.000000 
-0.350407 -2.508359 0.000000 
-0.350123 -2.408846 0.000000 
-0.350062 -2.308908 0.000000 
-0.350027 -2.208969 0.000000 
-0.350006 -2.109030 0.000000 
-0.350003 -2.009036 0.000000 
-0.472482 -2.900385 0.000000 
-0.460694 -2.803730 0.000000 
-0.451005 -2.710393 0.000000 
-0.450953 -2.608638 0.000000 
-0.450658 -2.508296 0.000000 
-0.450202 -2.408833 0.000000 
-0.450111 -2.308901 0.000000 
-0.450051 -2.208967 0.000000 
-0.450011 -2.109030 0.000000 
-0.450006 -2.009036 0.000000 
VECTORS X_EC float 
-0.142272 -0.344802 0.000000 
0.010972 0.350357 0.000000 
0.136937 -0.909690 0.000000 
0.137607 -0.283391 0.000000 
0.141440 0.361998 0.000000 
0.147371 -0.980753 0.000000 
0.148554 -0.329838 0.000000 
0.149338 0.321051 0.000000 
0.149855 0.971900 0.000000 
0.149916 -0.378017 0.000000 
-0.683686 -0.336292 0.000000 
-0.620075 0.360323 0.000000 
-0.565697 -0.902371 0.000000 
-0.559688 -0.280350 0.000000 
-0.555290 0.362846 0.000000 
-0.551602 -0.980577 0.000000 
-0.550809 -0.329746 0.000000 
-0.550345 0.321088 0.000000 
-0.550082 0.971905 0.000000 
-0.550044 -0.378014 0.000000 
0.765716 -0.327927 0.000000 
0.738095 0.365507 0.000000 
0.724941 -0.907060 0.000000 
0.740491 -0.282402 0.000000 
0.747451 0.362290 0.000000 
0.749287 -0.980656 0.000000 
0.749725 -0.329834 0.000000 
0.749920 0.321029 0.000000 
0.749973 0.971894 0.000000 
0.749990 -0.378023 0.000000 
0.031440 -0.322394 0.000000 
0.035202 0.367367 0.000000 
0.040281 -0.914628 0.000000 
0.044866 -0.286497 0.000000 
0.047671 0.360561 0.000000 
0.049294 -0.981102 0.000000 
0.049656 -0.330097 0.000000 
0.049865 0.320903 0.000000 
0.049971 0.971871 0.000000 
0.049984 -0.378038 0.000000 
-0.699356 -0.318593 0.000000 
-0.667903 0.368192 0.000000 
-0.646101 -0.920682 0.000000 
-0.650785 -0.289849 0.000000 
-0.651696 0.359091 0.000000 
-0.650556 -0.981491 0.000000 
-0.650325 -0.330321 0.000000 
-0.650150 0.320800 0.000000 
-0.650027 0.971852 0.000000 
-0.650018 -0.378051 0.000000 
0.699356 -0.318593 0.000000 
0.667903 0.368192 0.000000 
0.646101 -0.920682 0.000000 
0.650785 -0.289849 0.000000 
0.651696 0.359091 0.000000 
0.650556 -0.981491 0.000000 
0.650325 -0.330321 0.000000 
0.650150 0.320800 0.000000 
0.650027 0.971852 0.000000 
0.650018 -0.378051 0.000000 
-0.031440 -0.322394 0.000000 
-0.035202 0.367367 0.000000 
-0.040281 -0.914628 0.000000 
-0.044866 -0.286497 0.000000 
-0.047671 0.360561 0.000000 
-0.049294 -0.981102 0.000000 
-0.049656 -0.330097 0.000000 
-0.049865 0.320903 0.000000 
-0.049971 0.971871 0.000000 
-0.049984 -0.378038 0.000000 
-0.765716 -0.327927 0.000000 
-0.738095 0.365507 0.000000 
-0.724941 -0.907060 0.000000 
-0.740491 -0.282402 0.000000 
-0.747451 0.362290 0.000000 
-0.749287 -0.980656 0.000000 
-0.749725 -0.329834 0.000000 
-0.749920 0.321029 0.000000 
-0.749973 0.971894 0.000000 
-0.749990 -0.378023 0.000000 
0.683686 -0.336292 0.000000 
0.620075 0.360323 0.000000 
0.565697 -0.902371 0.000000 
0.559688 -0.280350 0.000000 
0.555290 0.362846 0.000000 
0.551602 -0.980577 0.000000 
0.550809 -0.329746 0.000000 
0.550345 0.321088 0.000000 
0.550082 0.971905 0.000000 
0.550044 -0.378014 0.000000 
0.142272 -0.344802 0.000000 
-0.010972 0.350357 0.000000 
-0.136937 -0.909690 0.000000 
-0.137607 -0.283391 0.000000 
-0.141440 0.361998 0.000000 
-0.147371 -0.980753 0.000000 
-0.148554 -0.329838 0.000000 
-0.149338 0.321051 0.000000 
-0.149855 0.971900 0.000000 
-0.149916 -0.378017 0.000000 
CELL_DATA 100 
SCALARS MASS float 
LOOKUP_TABLE default 
10.000000 
10.000000 
10.000000 
10.000000 
10.000000 
10.000000 
10.000000 
10.000000 
10.000000 
10.000000 
10.000000 
10.000000 
10.000000 
10.000000 
10.000000 
10.000000 
10.000000 
10.000000 
10.000000 
10.000000 
10.000000 
10.000000 
10.000000 
10.000000 
10.000000 
10.000000 
10.000000 
10.000000 
10.000000 
10.000000 
10.000000 
10.000000 
10.000000 
10.000000 
10.000000 
10.000000 
10.000000 
10.000000 
10.000000 
10.000000 
10.000000 
10.000000 
10.000000 
10.000000 
10.000000 
10.000000 
10.000000 
10.000000 
10.000000 
10.000000 
10.000000 
10.000000 
10.000000 
10.000000 
10.000000 
10.000000 
10.000000 
10.000000 
10.000000 
10.000000 
10.000000 
10.000000 
10.000000 
10.000000 
10.000000 
10.000000 
10.000000 
10.000000 
10.000000 
10.000000 
10.000000 
10.000000 
10.000000 
10.000000 
10.000000 
10.000000 
10.000000 
10.000000 
10.000000 
10.000000 
10.000000 
10.000000 
10.000000 
10.000000 
10.000000 
10.000000 
10.000000 
10.000000 
10.000000 
10.000000 
10.000000 
10.000000 
10.000000 
10.000000 
10.000000 
10.000000 
10.000000 
10.000000 
10.000000 
10.000000 
SCALARS MASS float 
LOOKUP_TABLE default 
10.000000 
10.000000 
10.000000 
10.000000 
10.000000 
10.000000 
10.000000 
10.000000 
10.000000 
10.000000 
10.000000 
10.000000 
10.000000 
10.000000 
10.000000 
10.000000 
10.000000 
10.000000 
10.000000 
10.000000 
10.000000 
10.000000 
10.000000 
10.000000 
10.000000 
10.000000 
10.000000 
10.000000 
10.000000 
10.000000 
10.000000 
10.000000 
10.000000 
10.000000 
10.000000 
10.000000 
10.000000 
10.000000 
10.000000 
10.000000 
10.000000 
10.000000 
10.000000 
10.000000 
10.000000 
10.000000 
10.000000 
10.000000 
10.000000 
10.000000 
10.000000 
10.000000 
10.000000 
10.000000 
10.000000 
10.000000 
10.000000 
10.000000 
10.000000 
10.000000 
10.000000 
10.000000 
10.000000 
10.000000 
10.000000 
10.000000 
10.000000 
10.000000 
10.000000 
10.000000 
10.000000 
10.000000 
10.000000 
10.000000 
10.000000 
10.000000 
10.000000 
10.000000 
10.000000 
10.000000 
10.000000 
10.000000 
10.000000 
10.000000 
10.000000 
10.000000 
10.000000 
10.000000 
10.000000 
10.000000 
10.000000 
10.000000 
10.000000 
10.000000 
10.000000 
10.000000 
10.000000 
10.000000 
10.000000 
10.000000 
SCALARS DENSITY float 
LOOKUP_TABLE default 
7877.369643 
769.479371 
1033.745017 
1043.723127 
1000.885678 
1002.948378 
1004.046400 
1000.411192 
1000.132199 
1000.170555 
7392.474248 
756.702454 
1034.505668 
1040.665525 
1000.274048 
1002.489561 
1003.827306 
1000.373891 
1000.118360 
1000.164754 
7501.810092 
747.387605 
1033.814590 
1041.611107 
1001.295278 
1002.589693 
1003.927586 
1000.400752 
1000.124995 
1000.171389 
16053.933750 
968.314570 
1059.148420 
1047.549948 
1005.831085 
1005.465354 
1005.188809 
1000.768189 
1000.235214 
1000.224139 
9759.334411 
802.018770 
1043.665310 
1047.967977 
1006.369440 
1003.850501 
1004.747420 
1000.577070 
1000.176290 
1000.209262 
9759.334411 
802.018770 
1043.665310 
1047.967977 
1006.369440 
1003.850501 
1004.747420 
1000.577070 
1000.176290 
1000.209262 
16053.933750 
968.314570 
1059.148420 
1047.549948 
1005.831085 
1005.465354 
1005.188809 
1000.768189 
1000.235214 
1000.224139 
7501.810092 
747.387605 
1033.814590 
1041.611107 
1001.295278 
1002.589693 
1003.927586 
1000.400752 
1000.124995 
1000.171389 
7392.474248 
756.702454 
1034.505668 
1040.665525 
1000.274048 
1002.489561 
1003.827306 
1000.373891 
1000.118360 
1000.164754 
7877.369643 
769.479371 
1033.745017 
1043.723127 
1000.885678 
1002.948378 
1004.046400 
1000.411192 
1000.132199 
1000.170555 
SCALARS ELEM_i float 
LOOKUP_TABLE default 
81 
82 
82 
83 
84 
84 
85 
86 
87 
87 
108 
109 
109 
110 
111 
111 
112 
113 
114 
114 
108 
109 
109 
110 
111 
111 
112 
113 
114 
114 
135 
136 
136 
137 
138 
138 
139 
140 
141 
141 
162 
163 
163 
164 
165 
165 
166 
167 
168 
168 
162 
163 
163 
164 
165 
165 
166 
167 
168 
168 
189 
190 
190 
191 
192 
192 
193 
194 
195 
195 
216 
217 
217 
218 
219 
219 
220 
221 
222 
222 
216 
217 
217 
218 
219 
219 
220 
221 
222 
222 
243 
244 
244 
245 
246 
246 
247 
248 
249 
249 
VECTORS VELOCITY float 
6.364706 -8.734331 0.000000 
1.336885 -1.083817 0.000000 
-0.747335 -10.000236 0.000000 
0.277602 -7.005953 0.000000 
0.326579 -6.471021 0.000000 
0.042468 -6.983853 0.000000 
0.052626 -6.885653 0.000000 
0.033470 -6.889336 0.000000 
0.003925 -6.940129 0.000000 
0.003829 -6.936702 0.000000 
1.695636 -9.514695 0.000000 
0.389940 -1.782415 0.000000 
0.092975 -10.350005 0.000000 
0.215824 -7.170340 0.000000 
0.133870 -6.529365 0.000000 
0.020338 -6.993244 0.000000 
0.021405 -6.892391 0.000000 
0.013033 -6.892849 0.000000 
0.001569 -6.940607 0.000000 
0.001517 -6.936981 0.000000 
-1.233415 -9.814301 0.000000 
0.739481 -1.888374 0.000000 
1.359060 -10.007612 0.000000 
0.326724 -7.061695 0.000000 
0.001365 -6.525115 0.000000 
0.022763 -6.992877 0.000000 
0.005030 -6.887849 0.000000 
-0.000321 -6.889231 0.000000 
0.000625 -6.940314 0.000000 
0.000047 -6.936477 0.000000 
0.605879 -10.087226 0.000000 
0.445523 -1.961463 0.000000 
0.242182 -9.650844 0.000000 
0.141503 -6.915863 0.000000 
0.075356 -6.486718 0.000000 
0.026428 -6.979897 0.000000 
0.014354 -6.876599 0.000000 
0.006167 -6.882999 0.000000 
0.001038 -6.939820 0.000000 
0.000793 -6.935718 0.000000 
1.825027 -10.289528 0.000000 
0.059121 -2.010834 0.000000 
-0.648664 -9.388034 0.000000 
-0.029258 -6.802903 0.000000 
0.107599 -6.452682 0.000000 
0.019066 -6.968212 0.000000 
0.016671 -6.867209 0.000000 
0.009335 -6.877990 0.000000 
0.001025 -6.939424 0.000000 
0.001121 -6.935119 0.000000 
-1.825027 -10.289528 0.000000 
-0.059121 -2.010834 0.000000 
0.648664 -9.388034 0.000000 
0.029258 -6.802903 0.000000 
-0.107599 -6.452682 0.000000 
-0.019066 -6.968212 0.000000 
-0.016671 -6.867209 0.000000 
-0.009335 -6.877990 0.000000 
-0.001025 -6.939424 0.000000 
-0.001121 -6.935119 0.000000 
-0.605879 -10.087226 0.000000 
-0.445523 -1.961463 0.000000 
-0.242182 -9.650844 0.000000 
-0.141503 -6.915863 0.000000 
-0.075356 -6.486718 0.000000 
-0.026428 -6.979897 0.000000 
-0.014354 -6.876599 0.000000 
-0.006167 -6.882999 0.000000 
-0.001038 -6.939820 0.000000 
-0.000793 -6.935718 0.000000 
1.233415 -9.814301 0.000000 
-0.739481 -1.888374 0.000000 
-1.359060 -10.007612 0.000000 
-0.326724 -7.061695 0.000000 
-0.001365 -6.525115 0.000000 
-0.022763 -6.992877 0.000000 
-0.005030 -6.887849 0.000000 
0.000321 -6.889231 0.000000 
-0.000625 -6.940314 0.000000 
-0.000047 -6.936477 0.000000 
-1.695636 -9.514695 0.000000 
-0.389940 -1.782415 0.000000 
-0.092975 -10.350005 0.000000 
-0.215824 -7.170340 0.000000 
-0.133870 -6.529365 0.000000 
-0.020338 -6.993244 0.000000 
-0.021405 -6.892391 0.000000 
-0.013033 -6.892849 0.000000 
-0.001569 -6.940607 0.000000 
-0.001517 -6.936981 0.000000 
-6.364706 -8.734331 0.000000 
-1.336885 -1.083817 0.000000 
0.747335 -10.000236 0.000000 
-0.277602 -7.005953 0.000000 
-0.326579 -6.471021 0.000000 
-0.042468 -6.983853 0.000000 
-0.052626 -6.885653 0.000000 
-0.033470 -6.889336 0.000000 
-0.003925 -6.940129 0.000000 
-0.003829 -6.936702 0.000000 
TENSORS STRESS float 
-1001.302794 -36.304313 0.000000 
0.000000 -1382.224623 0.000000 
0.000000 0.000000 0.000000 

2287.045737 -847.199521 0.000000 
0.000000 1905.206551 0.000000 
0.000000 0.000000 0.000000 

-276.750338 -114.837648 0.000000 
0.000000 -412.821661 0.000000 
0.000000 0.000000 0.000000 

-24.832207 -36.129493 0.000000 
0.000000 -60.132065 0.000000 
0.000000 0.000000 0.000000 

-10.659537 -15.508396 0.000000 
0.000000 -30.761819 0.000000 
0.000000 0.000000 0.000000 

-19.546689 -5.867381 0.000000 
0.000000 -33.061757 0.000000 
0.000000 0.000000 0.000000 

-32.460662 -6.399224 0.000000 
0.000000 -43.608670 0.000000 
0.000000 0.000000 0.000000 

-5.609991 -1.355108 0.000000 
0.000000 -8.328438 0.000000 
0.000000 0.000000 0.000000 

-1.518898 -0.294597 0.000000 
0.000000 -2.317581 0.000000 
0.000000 0.000000 0.000000 

-2.154827 -0.310415 0.000000 
0.000000 -2.837844 0.000000 
0.000000 0.000000 0.000000 

-1033.014247 -15.140917 0.000000 
0.000000 -1447.056598 0.000000 
0.000000 0.000000 0.000000 

2346.378979 -398.853478 0.000000 
0.000000 1935.819879 0.000000 
0.000000 0.000000 0.000000 

-364.349867 -84.819652 0.000000 
0.000000 -469.708332 0.000000 
0.000000 0.000000 0.000000 

-9.218582 -40.649276 0.000000 
0.000000 -24.669941 0.000000 
0.000000 0.000000 0.000000 

-4.488696 -18.042765 0.000000 
0.000000 -23.547869 0.000000 
0.000000 0.000000 0.000000 

-14.418979 -4.633779 0.000000 
0.000000 -28.331822 0.000000 
0.000000 0.000000 0.000000 

-29.677630 -4.467350 0.000000 
0.000000 -40.794174 0.000000 
0.000000 0.000000 0.000000 

-4.992683 -1.055175 0.000000 
0.000000 -7.786758 0.000000 
0.000000 0.000000 0.000000 

-1.284918 -0.238619 0.000000 
0.000000 -2.120417 0.000000 
0.000000 0.000000 0.000000 

-2.046134 -0.217820 0.000000 
0.000000 -2.743181 0.000000 
0.000000 0.000000 0.000000 

-1035.093187 8.234731 0.000000 
0.000000 -1447.018592 0.000000 
0.000000 0.000000 0.000000 

2577.616762 94.920190 0.000000 
0.000000 2206.071543 0.000000 
0.000000 0.000000 0.000000 

-328.743550 -20.295569 0.000000 
0.000000 -425.933373 0.000000 
0.000000 0.000000 0.000000 

-19.975661 -36.486368 0.000000 
0.000000 -37.841754 0.000000 
0.000000 0.000000 0.000000 

-15.845406 -14.715597 0.000000 
0.000000 -37.408014 0.000000 
0.000000 0.000000 0.000000 

-15.137431 -1.850473 0.000000 
0.000000 -29.208715 0.000000 
0.000000 0.000000 0.000000 

-30.393468 -1.688109 0.000000 
0.000000 -41.668521 0.000000 
0.000000 0.000000 0.000000 

-5.410773 -0.491706 0.000000 
0.000000 -8.297691 0.000000 
0.000000 0.000000 0.000000 

-1.378459 -0.100193 0.000000 
0.000000 -2.234741 0.000000 
0.000000 0.000000 0.000000 

-2.139665 -0.079401 0.000000 
0.000000 -2.857495 0.000000 
0.000000 0.000000 0.000000 

-785.426409 0.734288 0.000000 
0.000000 -924.889567 0.000000 
0.000000 0.000000 0.000000 

-303.966964 -15.949971 0.000000 
0.000000 -114.378754 0.000000 
0.000000 0.000000 0.000000 

-195.674494 -40.012849 0.000000 
0.000000 -305.960947 0.000000 
0.000000 0.000000 0.000000 

-1.968933 -33.573269 0.000000 
0.000000 -36.665657 0.000000 
0.000000 0.000000 0.000000 

-65.535661 -14.906420 0.000000 
0.000000 -88.768457 0.000000 
0.000000 0.000000 0.000000 

-50.163247 -3.270757 0.000000 
0.000000 -59.345281 0.000000 
0.000000 0.000000 0.000000 

-47.410068 -2.269657 0.000000 
0.000000 -57.097886 0.000000 
0.000000 0.000000 0.000000 

-11.652689 -0.743576 0.000000 
0.000000 -13.901930 0.000000 
0.000000 0.000000 0.000000 

-3.250940 -0.164022 0.000000 
0.000000 -3.860867 0.000000 
0.000000 0.000000 0.000000 

-3.090258 -0.104816 0.000000 
0.000000 -3.729413 0.000000 
0.000000 0.000000 0.000000 

-966.655376 -4.475701 0.000000 
0.000000 -1257.197266 0.000000 
0.000000 0.000000 0.000000 

1773.741279 -118.522625 0.000000 
0.000000 1666.366650 0.000000 
0.000000 0.000000 0.000000 

-244.193940 -20.819602 0.000000 
0.000000 -343.727039 0.000000 
0.000000 0.000000 0.000000 

-57.096737 -4.757631 0.000000 
0.000000 -93.409922 0.000000 
0.000000 0.000000 0.000000 

-67.685454 -1.860064 0.000000 
0.000000 -99.508494 0.000000 
0.000000 0.000000 0.000000 

-26.441921 -1.106794 0.000000 
0.000000 -41.300398 0.000000 
0.000000 0.000000 0.000000 

-38.572106 -1.105650 0.000000 
0.000000 -51.207540 0.000000 
0.000000 0.000000 0.000000 

-8.067257 -0.281332 0.000000 
0.000000 -11.391115 0.000000 
0.000000 0.000000 0.000000 

-2.152633 -0.050348 0.000000 
0.000000 -3.040998 0.000000 
0.000000 0.000000 0.000000 

-2.706354 -0.050347 0.000000 
0.000000 -3.494000 0.000000 
0.000000 0.000000 0.000000 

-966.655376 4.475701 0.000000 
0.000000 -1257.197266 0.000000 
0.000000 0.000000 0.000000 

1773.741279 118.522625 0.000000 
0.000000 1666.366650 0.000000 
0.000000 0.000000 0.000000 

-244.193940 20.819602 0.000000 
0.000000 -343.727039 0.000000 
0.000000 0.000000 0.000000 

-57.096737 4.757631 0.000000 
0.000000 -93.409922 0.000000 
0.000000 0.000000 0.000000 

-67.685454 1.860064 0.000000 
0.000000 -99.508494 0.000000 
0.000000 0.000000 0.000000 

-26.441921 1.106794 0.000000 
0.000000 -41.300398 0.000000 
0.000000 0.000000 0.000000 

-38.572106 1.105650 0.000000 
0.000000 -51.207540 0.000000 
0.000000 0.000000 0.000000 

-8.067257 0.281332 0.000000 
0.000000 -11.391115 0.000000 
0.000000 0.000000 0.000000 

-2.152633 0.050348 0.000000 
0.000000 -3.040998 0.000000 
0.000000 0.000000 0.000000 

-2.706354 0.050347 0.000000 
0.000000 -3.494000 0.000000 
0.000000 0.000000 0.000000 

-785.426409 -0.734288 0.000000 
0.000000 -924.889567 0.000000 
0.000000 0.000000 0.000000 

-303.966964 15.949971 0.000000 
0.000000 -114.378754 0.000000 
0.000000 0.000000 0.000000 

-195.674494 40.012849 0.000000 
0.000000 -305.960947 0.000000 
0.000000 0.000000 0.000000 

-1.968933 33.573269 0.000000 
0.000000 -36.665657 0.000000 
0.000000 0.000000 0.000000 

-65.535661 14.906420 0.000000 
0.000000 -88.768457 0.000000 
0.000000 0.000000 0.000000 

-50.163247 3.270757 0.000000 
0.000000 -59.345281 0.000000 
0.000000 0.000000 0.000000 

-47.410068 2.269657 0.000000 
0.000000 -57.097886 0.000000 
0.000000 0.000000 0.000000 

-11.652689 0.743576 0.000000 
0.000000 -13.901930 0.000000 
0.000000 0.000000 0.000000 

-3.250940 0.164022 0.000000 
0.000000 -3.860867 0.000000 
0.000000 0.000000 0.000000 

-3.090258 0.104816 0.000000 
0.000000 -3.729413 0.000000 
0.000000 0.000000 0.000000 

-1035.093187 -8.234731 0.000000 
0.000000 -1447.018592 0.000000 
0.000000 0.000000 0.000000 

2577.616762 -94.920190 0.000000 
0.000000 2206.071543 0.000000 
0.000000 0.000000 0.000000 

-328.743550 20.295569 0.000000 
0.000000 -425.933373 0.000000 
0.000000 0.000000 0.000000 

-19.975661 36.486368 0.000000 
0.000000 -37.841754 0.000000 
0.000000 0.000000 0.000000 

-15.845406 14.715597 0.000000 
0.000000 -37.408014 0.000000 
0.000000 0.000000 0.000000 

-15.137431 1.850473 0.000000 
0.000000 -29.208715 0.000000 
0.000000 0.000000 0.000000 

-30.393468 1.688109 0.000000 
0.000000 -41.668521 0.000000 
0.000000 0.000000 0.000000 

-5.410773 0.491706 0.000000 
0.000000 -8.297691 0.000000 
0.000000 0.000000 0.000000 

-1.378459 0.100193 0.000000 
0.000000 -2.234741 0.000000 
0.000000 0.000000 0.000000 

-2.139665 0.079401 0.000000 
0.000000 -2.857495 0.000000 
0.000000 0.000000 0.000000 

-1033.014247 15.140917 0.000000 
0.000000 -1447.056598 0.000000 
0.000000 0.000000 0.000000 

2346.378979 398.853478 0.000000 
0.000000 1935.819879 0.000000 
0.000000 0.000000 0.000000 

-364.349867 84.819652 0.000000 
0.000000 -469.708332 0.000000 
0.000000 0.000000 0.000000 

-9.218582 40.649276 0.000000 
0.000000 -24.669941 0.000000 
0.000000 0.000000 0.000000 

-4.488696 18.042765 0.000000 
0.000000 -23.547869 0.000000 
0.000000 0.000000 0.000000 

-14.418979 4.633779 0.000000 
0.000000 -28.331822 0.000000 
0.000000 0.000000 0.000000 

-29.677630 4.467350 0.000000 
0.000000 -40.794174 0.000000 
0.000000 0.000000 0.000000 

-4.992683 1.055175 0.000000 
0.000000 -7.786758 0.000000 
0.000000 0.000000 0.000000 

-1.284918 0.238619 0.000000 
0.000000 -2.120417 0.000000 
0.000000 0.000000 0.000000 

-2.046134 0.217820 0.000000 
0.000000 -2.743181 0.000000 
0.000000 0.000000 0.000000 

-1001.302794 36.304313 0.000000 
0.000000 -1382.224623 0.000000 
0.000000 0.000000 0.000000 

2287.045737 847.199521 0.000000 
0.000000 1905.206551 0.000000 
0.000000 0.000000 0.000000 

-276.750338 114.837648 0.000000 
0.000000 -412.821661 0.000000 
0.000000 0.000000 0.000000 

-24.832207 36.129493 0.000000 
0.000000 -60.132065 0.000000 
0.000000 0.000000 0.000000 

-10.659537 15.508396 0.000000 
0.000000 -30.761819 0.000000 
0.000000 0.000000 0.000000 

-19.546689 5.867381 0.000000 
0.000000 -33.061757 0.000000 
0.000000 0.000000 0.000000 

-32.460662 6.399224 0.000000 
0.000000 -43.608670 0.000000 
0.000000 0.000000 0.000000 

-5.609991 1.355108 0.000000 
0.000000 -8.328438 0.000000 
0.000000 0.000000 0.000000 

-1.518898 0.294597 0.000000 
0.000000 -2.317581 0.000000 
0.000000 0.000000 0.000000 

-2.154827 0.310415 0.000000 
0.000000 -2.837844 0.000000 
0.000000 0.000000 0.000000 

TENSORS STRAIN float 
0.081423 -0.041467 0.000000 
0.000000 -0.353673 0.000000 
0.000000 0.000000 0.000000 

0.044689 -0.094526 0.000000 
0.000000 0.002086 0.000000 
0.000000 0.000000 0.000000 

0.005030 -0.017213 0.000000 
0.000000 -0.015366 0.000000 
0.000000 0.000000 0.000000 

0.002028 -0.005468 0.000000 
0.000000 -0.003314 0.000000 
0.000000 0.000000 0.000000 

0.001158 -0.002251 0.000000 
0.000000 -0.001759 0.000000 
0.000000 0.000000 0.000000 

0.000600 -0.000853 0.000000 
0.000000 -0.001365 0.000000 
0.000000 0.000000 0.000000 

0.000258 -0.000932 0.000000 
0.000000 -0.001365 0.000000 
0.000000 0.000000 0.000000 

0.000096 -0.000197 0.000000 
0.000000 -0.000298 0.000000 
0.000000 0.000000 0.000000 

0.000030 -0.000043 0.000000 
0.000000 -0.000086 0.000000 
0.000000 0.000000 0.000000 

0.000013 -0.000045 0.000000 
0.000000 -0.000086 0.000000 
0.000000 0.000000 0.000000 

0.088987 -0.016230 0.000000 
0.000000 -0.354828 0.000000 
0.000000 0.000000 0.000000 

0.046016 -0.043763 0.000000 
0.000000 0.000969 0.000000 
0.000000 0.000000 0.000000 

0.001646 -0.012723 0.000000 
0.000000 -0.014158 0.000000 
0.000000 0.000000 0.000000 

0.000910 -0.006134 0.000000 
0.000000 -0.001421 0.000000 
0.000000 0.000000 0.000000 

0.001179 -0.002617 0.000000 
0.000000 -0.001585 0.000000 
0.000000 0.000000 0.000000 

0.000700 -0.000674 0.000000 
0.000000 -0.001322 0.000000 
0.000000 0.000000 0.000000 

0.000296 -0.000650 0.000000 
0.000000 -0.001322 0.000000 
0.000000 0.000000 0.000000 

0.000110 -0.000153 0.000000 
0.000000 -0.000295 0.000000 
0.000000 0.000000 0.000000 

0.000036 -0.000035 0.000000 
0.000000 -0.000085 0.000000 
0.000000 0.000000 0.000000 

0.000016 -0.000032 0.000000 
0.000000 -0.000085 0.000000 
0.000000 0.000000 0.000000 

0.089041 0.008957 0.000000 
0.000000 -0.359036 0.000000 
0.000000 0.000000 0.000000 

0.046053 0.010287 0.000000 
0.000000 0.005788 0.000000 
0.000000 0.000000 0.000000 

0.001628 -0.003042 0.000000 
0.000000 -0.012941 0.000000 
0.000000 0.000000 0.000000 

0.000913 -0.005511 0.000000 
0.000000 -0.001786 0.000000 
0.000000 0.000000 0.000000 

0.001179 -0.002137 0.000000 
0.000000 -0.001952 0.000000 
0.000000 0.000000 0.000000 

0.000700 -0.000269 0.000000 
0.000000 -0.001345 0.000000 
0.000000 0.000000 0.000000 

0.000296 -0.000246 0.000000 
0.000000 -0.001345 0.000000 
0.000000 0.000000 0.000000 

0.000110 -0.000071 0.000000 
0.000000 -0.000309 0.000000 
0.000000 0.000000 0.000000 

0.000036 -0.000015 0.000000 
0.000000 -0.000088 0.000000 
0.000000 0.000000 0.000000 

0.000016 -0.000012 0.000000 
0.000000 -0.000088 0.000000 
0.000000 0.000000 0.000000 

-0.036743 0.001709 0.000000 
0.000000 -0.361388 0.000000 
0.000000 0.000000 0.000000 

-0.016247 -0.002239 0.000000 
0.000000 0.010373 0.000000 
0.000000 0.000000 0.000000 

0.004617 -0.006145 0.000000 
0.000000 -0.012321 0.000000 
0.000000 0.000000 0.000000 

0.002342 -0.005100 0.000000 
0.000000 -0.002929 0.000000 
0.000000 0.000000 0.000000 

0.000569 -0.002174 0.000000 
0.000000 -0.002819 0.000000 
0.000000 0.000000 0.000000 

-0.000129 -0.000477 0.000000 
0.000000 -0.001468 0.000000 
0.000000 0.000000 0.000000 

-0.000056 -0.000331 0.000000 
0.000000 -0.001468 0.000000 
0.000000 0.000000 0.000000 

-0.000022 -0.000108 0.000000 
0.000000 -0.000349 0.000000 
0.000000 0.000000 0.000000 

-0.000007 -0.000024 0.000000 
0.000000 -0.000096 0.000000 
0.000000 0.000000 0.000000 

-0.000003 -0.000015 0.000000 
0.000000 -0.000096 0.000000 
0.000000 0.000000 0.000000 

0.048224 -0.006334 0.000000 
0.000000 -0.362923 0.000000 
0.000000 0.000000 0.000000 

0.026246 -0.013783 0.000000 
0.000000 0.013760 0.000000 
0.000000 0.000000 0.000000 

0.003083 -0.003151 0.000000 
0.000000 -0.011980 0.000000 
0.000000 0.000000 0.000000 

0.001615 -0.000723 0.000000 
0.000000 -0.003903 0.000000 
0.000000 0.000000 0.000000 

0.001102 -0.000271 0.000000 
0.000000 -0.003542 0.000000 