# vtk DataFile Version 3.0 
vtk output 
ASCII 
DATASET UNSTRUCTURED_GRID 
POINTS 100 float 
0.450000 -2.812764 0.000000 
0.450000 -2.712764 0.000000 
0.450000 -2.612764 0.000000 
0.450000 -2.512764 0.000000 
0.450000 -2.412764 0.000000 
0.450000 -2.312764 0.000000 
0.450000 -2.212764 0.000000 
0.450000 -2.112764 0.000000 
0.450000 -2.012764 0.000000 
0.450000 -1.912764 0.000000 
0.350000 -2.812764 0.000000 
0.350000 -2.712764 0.000000 
0.350000 -2.612764 0.000000 
0.350000 -2.512764 0.000000 
0.350000 -2.412764 0.000000 
0.350000 -2.312764 0.000000 
0.350000 -2.212764 0.000000 
0.350000 -2.112764 0.000000 
0.350000 -2.012764 0.000000 
0.350000 -1.912764 0.000000 
0.250000 -2.812764 0.000000 
0.250000 -2.712764 0.000000 
0.250000 -2.612764 0.000000 
0.250000 -2.512764 0.000000 
0.250000 -2.412764 0.000000 
0.250000 -2.312764 0.000000 
0.250000 -2.212764 0.000000 
0.250000 -2.112764 0.000000 
0.250000 -2.012764 0.000000 
0.250000 -1.912764 0.000000 
0.150000 -2.812764 0.000000 
0.150000 -2.712764 0.000000 
0.150000 -2.612764 0.000000 
0.150000 -2.512764 0.000000 
0.150000 -2.412764 0.000000 
0.150000 -2.312764 0.000000 
0.150000 -2.212764 0.000000 
0.150000 -2.112764 0.000000 
0.150000 -2.012764 0.000000 
0.150000 -1.912764 0.000000 
0.050000 -2.812764 0.000000 
0.050000 -2.712764 0.000000 
0.050000 -2.612764 0.000000 
0.050000 -2.512764 0.000000 
0.050000 -2.412764 0.000000 
0.050000 -2.312764 0.000000 
0.050000 -2.212764 0.000000 
0.050000 -2.112764 0.000000 
0.050000 -2.012764 0.000000 
0.050000 -1.912764 0.000000 
-0.050000 -2.812764 0.000000 
-0.050000 -2.712764 0.000000 
-0.050000 -2.612764 0.000000 
-0.050000 -2.512764 0.000000 
-0.050000 -2.412764 0.000000 
-0.050000 -2.312764 0.000000 
-0.050000 -2.212764 0.000000 
-0.050000 -2.112764 0.000000 
-0.050000 -2.012764 0.000000 
-0.050000 -1.912764 0.000000 
-0.150000 -2.812764 0.000000 
-0.150000 -2.712764 0.000000 
-0.150000 -2.612764 0.000000 
-0.150000 -2.512764 0.000000 
-0.150000 -2.412764 0.000000 
-0.150000 -2.312764 0.000000 
-0.150000 -2.212764 0.000000 
-0.150000 -2.112764 0.000000 
-0.150000 -2.012764 0.000000 
-0.150000 -1.912764 0.000000 
-0.250000 -2.812764 0.000000 
-0.250000 -2.712764 0.000000 
-0.250000 -2.612764 0.000000 
-0.250000 -2.512764 0.000000 
-0.250000 -2.412764 0.000000 
-0.250000 -2.312764 0.000000 
-0.250000 -2.212764 0.000000 
-0.250000 -2.112764 0.000000 
-0.250000 -2.012764 0.000000 
-0.250000 -1.912764 0.000000 
-0.350000 -2.812764 0.000000 
-0.350000 -2.712764 0.000000 
-0.350000 -2.612764 0.000000 
-0.350000 -2.512764 0.000000 
-0.350000 -2.412764 0.000000 
-0.350000 -2.312764 0.000000 
-0.350000 -2.212764 0.000000 
-0.350000 -2.112764 0.000000 
-0.350000 -2.012764 0.000000 
-0.350000 -1.912764 0.000000 
-0.450000 -2.812764 0.000000 
-0.450000 -2.712764 0.000000 
-0.450000 -2.612764 0.000000 
-0.450000 -2.512764 0.000000 
-0.450000 -2.412764 0.000000 
-0.450000 -2.312764 0.000000 
-0.450000 -2.212764 0.000000 
-0.450000 -2.112764 0.000000 
-0.450000 -2.012764 0.000000 
-0.450000 -1.912764 0.000000 
CELLS 100 200 
1 0 
1 1 
1 2 
1 3 
1 4 
1 5 
1 6 
1 7 
1 8 
1 9 
1 10 
1 11 
1 12 
1 13 
1 14 
1 15 
1 16 
1 17 
1 18 
1 19 
1 20 
1 21 
1 22 
1 23 
1 24 
1 25 
1 26 
1 27 
1 28 
1 29 
1 30 
1 31 
1 32 
1 33 
1 34 
1 35 
1 36 
1 37 
1 38 
1 39 
1 40 
1 41 
1 42 
1 43 
1 44 
1 45 
1 46 
1 47 
1 48 
1 49 
1 50 
1 51 
1 52 
1 53 
1 54 
1 55 
1 56 
1 57 
1 58 
1 59 
1 60 
1 61 
1 62 
1 63 
1 64 
1 65 
1 66 
1 67 
1 68 
1 69 
1 70 
1 71 
1 72 
1 73 
1 74 
1 75 
1 76 
1 77 
1 78 
1 79 
1 80 
1 81 
1 82 
1 83 
1 84 
1 85 
1 86 
1 87 
1 88 
1 89 
1 90 
1 91 
1 92 
1 93 
1 94 
1 95 
1 96 
1 97 
1 98 
1 99 
CELL_TYPES 100 
1 
1 
1 
1 
1 
1 
1 
1 
1 
1 
1 
1 
1 
1 
1 
1 
1 
1 
1 
1 
1 
1 
1 
1 
1 
1 
1 
1 
1 
1 
1 
1 
1 
1 
1 
1 
1 
1 
1 
1 
1 
1 
1 
1 
1 
1 
1 
1 
1 
1 
1 
1 
1 
1 
1 
1 
1 
1 
1 
1 
1 
1 
1 
1 
1 
1 
1 
1 
1 
1 
1 
1 
1 
1 
1 
1 
1 
1 
1 
1 
1 
1 
1 
1 
1 
1 
1 
1 
1 
1 
1 
1 
1 
1 
1 
1 
1 
1 
1 
1 
POINT_DATA 100 
VECTORS X_GC float 
0.450000 -2.812764 0.000000 
0.450000 -2.712764 0.000000 
0.450000 -2.612764 0.000000 
0.450000 -2.512764 0.000000 
0.450000 -2.412764 0.000000 
0.450000 -2.312764 0.000000 
0.450000 -2.212764 0.000000 
0.450000 -2.112764 0.000000 
0.450000 -2.012764 0.000000 
0.450000 -1.912764 0.000000 
0.350000 -2.812764 0.000000 
0.350000 -2.712764 0.000000 
0.350000 -2.612764 0.000000 
0.350000 -2.512764 0.000000 
0.350000 -2.412764 0.000000 
0.350000 -2.312764 0.000000 
0.350000 -2.212764 0.000000 
0.350000 -2.112764 0.000000 
0.350000 -2.012764 0.000000 
0.350000 -1.912764 0.000000 
0.250000 -2.812764 0.000000 
0.250000 -2.712764 0.000000 
0.250000 -2.612764 0.000000 
0.250000 -2.512764 0.000000 
0.250000 -2.412764 0.000000 
0.250000 -2.312764 0.000000 
0.250000 -2.212764 0.000000 
0.250000 -2.112764 0.000000 
0.250000 -2.012764 0.000000 
0.250000 -1.912764 0.000000 
0.150000 -2.812764 0.000000 
0.150000 -2.712764 0.000000 
0.150000 -2.612764 0.000000 
0.150000 -2.512764 0.000000 
0.150000 -2.412764 0.000000 
0.150000 -2.312764 0.000000 
0.150000 -2.212764 0.000000 
0.150000 -2.112764 0.000000 
0.150000 -2.012764 0.000000 
0.150000 -1.912764 0.000000 
0.050000 -2.812764 0.000000 
0.050000 -2.712764 0.000000 
0.050000 -2.612764 0.000000 
0.050000 -2.512764 0.000000 
0.050000 -2.412764 0.000000 
0.050000 -2.312764 0.000000 
0.050000 -2.212764 0.000000 
0.050000 -2.112764 0.000000 
0.050000 -2.012764 0.000000 
0.050000 -1.912764 0.000000 
-0.050000 -2.812764 0.000000 
-0.050000 -2.712764 0.000000 
-0.050000 -2.612764 0.000000 
-0.050000 -2.512764 0.000000 
-0.050000 -2.412764 0.000000 
-0.050000 -2.312764 0.000000 
-0.050000 -2.212764 0.000000 
-0.050000 -2.112764 0.000000 
-0.050000 -2.012764 0.000000 
-0.050000 -1.912764 0.000000 
-0.150000 -2.812764 0.000000 
-0.150000 -2.712764 0.000000 
-0.150000 -2.612764 0.000000 
-0.150000 -2.512764 0.000000 
-0.150000 -2.412764 0.000000 
-0.150000 -2.312764 0.000000 
-0.150000 -2.212764 0.000000 
-0.150000 -2.112764 0.000000 
-0.150000 -2.012764 0.000000 
-0.150000 -1.912764 0.000000 
-0.250000 -2.812764 0.000000 
-0.250000 -2.712764 0.000000 
-0.250000 -2.612764 0.000000 
-0.250000 -2.512764 0.000000 
-0.250000 -2.412764 0.000000 
-0.250000 -2.312764 0.000000 
-0.250000 -2.212764 0.000000 
-0.250000 -2.112764 0.000000 
-0.250000 -2.012764 0.000000 
-0.250000 -1.912764 0.000000 
-0.350000 -2.812764 0.000000 
-0.350000 -2.712764 0.000000 
-0.350000 -2.612764 0.000000 
-0.350000 -2.512764 0.000000 
-0.350000 -2.412764 0.000000 
-0.350000 -2.312764 0.000000 
-0.350000 -2.212764 0.000000 
-0.350000 -2.112764 0.000000 
-0.350000 -2.012764 0.000000 
-0.350000 -1.912764 0.000000 
-0.450000 -2.812764 0.000000 
-0.450000 -2.712764 0.000000 
-0.450000 -2.612764 0.000000 
-0.450000 -2.512764 0.000000 
-0.450000 -2.412764 0.000000 
-0.450000 -2.312764 0.000000 
-0.450000 -2.212764 0.000000 
-0.450000 -2.112764 0.000000 
-0.450000 -2.012764 0.000000 
-0.450000 -1.912764 0.000000 
VECTORS X_EC float 
0.150000 0.472319 0.000000 
0.150000 -0.877681 0.000000 
0.150000 -0.227681 0.000000 
0.150000 0.422319 0.000000 
0.150000 -0.927681 0.000000 
0.150000 -0.277681 0.000000 
0.150000 0.372319 0.000000 
0.150000 -0.977681 0.000000 
0.150000 -0.327681 0.000000 
0.150000 0.322319 0.000000 
-0.550000 0.472319 0.000000 
-0.550000 -0.877681 0.000000 
-0.550000 -0.227681 0.000000 
-0.550000 0.422319 0.000000 
-0.550000 -0.927681 0.000000 
-0.550000 -0.277681 0.000000 
-0.550000 0.372319 0.000000 
-0.550000 -0.977681 0.000000 
-0.550000 -0.327681 0.000000 
-0.550000 0.322319 0.000000 
0.750000 0.472319 0.000000 
0.750000 -0.877681 0.000000 
0.750000 -0.227681 0.000000 
0.750000 0.422319 0.000000 
0.750000 -0.927681 0.000000 
0.750000 -0.277681 0.000000 
0.750000 0.372319 0.000000 
0.750000 -0.977681 0.000000 
0.750000 -0.327681 0.000000 
0.750000 0.322319 0.000000 
0.050000 0.472319 0.000000 
0.050000 -0.877681 0.000000 
0.050000 -0.227681 0.000000 
0.050000 0.422319 0.000000 
0.050000 -0.927681 0.000000 
0.050000 -0.277681 0.000000 
0.050000 0.372319 0.000000 
0.050000 -0.977681 0.000000 
0.050000 -0.327681 0.000000 
0.050000 0.322319 0.000000 
-0.650000 0.472319 0.000000 
-0.650000 -0.877681 0.000000 
-0.650000 -0.227681 0.000000 
-0.650000 0.422319 0.000000 
-0.650000 -0.927681 0.000000 
-0.650000 -0.277681 0.000000 
-0.650000 0.372319 0.000000 
-0.650000 -0.977681 0.000000 
-0.650000 -0.327681 0.000000 
-0.650000 0.322319 0.000000 
0.650000 0.472319 0.000000 
0.650000 -0.877681 0.000000 
0.650000 -0.227681 0.000000 
0.650000 0.422319 0.000000 
0.650000 -0.927681 0.000000 
0.650000 -0.277681 0.000000 
0.650000 0.372319 0.000000 
0.650000 -0.977681 0.000000 
0.650000 -0.327681 0.000000 
0.650000 0.322319 0.000000 
-0.050000 0.472319 0.000000 
-0.050000 -0.877681 0.000000 
-0.050000 -0.227681 0.000000 
-0.050000 0.422319 0.000000 
-0.050000 -0.927681 0.000000 
-0.050000 -0.277681 0.000000 
-0.050000 0.372319 0.000000 
-0.050000 -0.977681 0.000000 
-0.050000 -0.327681 0.000000 
-0.050000 0.322319 0.000000 
-0.750000 0.472319 0.000000 
-0.750000 -0.877681 0.000000 
-0.750000 -0.227681 0.000000 
-0.750000 0.422319 0.000000 
-0.750000 -0.927681 0.000000 
-0.750000 -0.277681 0.000000 
-0.750000 0.372319 0.000000 
-0.750000 -0.977681 0.000000 
-0.750000 -0.327681 0.000000 
-0.750000 0.322319 0.000000 
0.550000 0.472319 0.000000 
0.550000 -0.877681 0.000000 
0.550000 -0.227681 0.000000 
0.550000 0.422319 0.000000 
0.550000 -0.927681 0.000000 
0.550000 -0.277681 0.000000 
0.550000 0.372319 0.000000 
0.550000 -0.977681 0.000000 
0.550000 -0.327681 0.000000 
0.550000 0.322319 0.000000 
-0.150000 0.472319 0.000000 
-0.150000 -0.877681 0.000000 
-0.150000 -0.227681 0.000000 
-0.150000 0.422319 0.000000 
-0.150000 -0.927681 0.000000 
-0.150000 -0.277681 0.000000 
-0.150000 0.372319 0.000000 
-0.150000 -0.977681 0.000000 
-0.150000 -0.327681 0.000000 
-0.150000 0.322319 0.000000 
CELL_DATA 100 
SCALARS MASS float 
LOOKUP_TABLE default 
10.000000 
10.000000 
10.000000 
10.000000 
10.000000 
10.000000 
10.000000 
10.000000 
10.000000 
10.000000 
10.000000 
10.000000 
10.000000 
10.000000 
10.000000 
10.000000 
10.000000 
10.000000 
10.000000 
10.000000 
10.000000 
10.000000 
10.000000 
10.000000 
10.000000 
10.000000 
10.000000 
10.000000 
10.000000 
10.000000 
10.000000 
10.000000 
10.000000 
10.000000 
10.000000 
10.000000 
10.000000 
10.000000 
10.000000 
10.000000 
10.000000 
10.000000 
10.000000 
10.000000 
10.000000 
10.000000 
10.000000 
10.000000 
10.000000 
10.000000 
10.000000 
10.000000 
10.000000 
10.000000 
10.000000 
10.000000 
10.000000 
10.000000 
10.000000 
10.000000 
10.000000 
10.000000 
10.000000 
10.000000 
10.000000 
10.000000 
10.000000 
10.000000 
10.000000 
10.000000 
10.000000 
10.000000 
10.000000 
10.000000 
10.000000 
10.000000 
10.000000 
10.000000 
10.000000 
10.000000 
10.000000 
10.000000 
10.000000 
10.000000 
10.000000 
10.000000 
10.000000 
10.000000 
10.000000 
10.000000 
10.000000 
10.000000 
10.000000 
10.000000 
10.000000 
10.000000 
10.000000 
10.000000 
10.000000 
10.000000 
SCALARS MASS float 
LOOKUP_TABLE default 
10.000000 
10.000000 
10.000000 
10.000000 
10.000000 
10.000000 
10.000000 
10.000000 
10.000000 
10.000000 
10.000000 
10.000000 
10.000000 
10.000000 
10.000000 
10.000000 
10.000000 
10.000000 
10.000000 
10.000000 
10.000000 
10.000000 
10.000000 
10.000000 
10.000000 
10.000000 
10.000000 
10.000000 
10.000000 
10.000000 
10.000000 
10.000000 
10.000000 
10.000000 
10.000000 
10.000000 
10.000000 
10.000000 
10.000000 
10.000000 
10.000000 
10.000000 
10.000000 
10.000000 
10.000000 
10.000000 
10.000000 
10.000000 
10.000000 
10.000000 
10.000000 
10.000000 
10.000000 
10.000000 
10.000000 
10.000000 
10.000000 
10.000000 
10.000000 
10.000000 
10.000000 
10.000000 
10.000000 
10.000000 
10.000000 
10.000000 
10.000000 
10.000000 
10.000000 
10.000000 
10.000000 
10.000000 
10.000000 
10.000000 
10.000000 
10.000000 
10.000000 
10.000000 
10.000000 
10.000000 
10.000000 
10.000000 
10.000000 
10.000000 
10.000000 
10.000000 
10.000000 
10.000000 
10.000000 
10.000000 
10.000000 
10.000000 
10.000000 
10.000000 
10.000000 
10.000000 
10.000000 
10.000000 
10.000000 
10.000000 
SCALARS DENSITY float 
LOOKUP_TABLE default 
1000.000000 
1000.000000 
1000.000000 
1000.000000 
1000.000000 
1000.000000 
1000.000000 
1000.000000 
1000.000000 
1000.000000 
1000.000000 
1000.000000 
1000.000000 
1000.000000 
1000.000000 
1000.000000 
1000.000000 
1000.000000 
1000.000000 
1000.000000 
1000.000000 
1000.000000 
1000.000000 
1000.000000 
1000.000000 
1000.000000 
1000.000000 
1000.000000 
1000.000000 
1000.000000 
1000.000000 
1000.000000 
1000.000000 
1000.000000 
1000.000000 
1000.000000 
1000.000000 
1000.000000 
1000.000000 
1000.000000 
1000.000000 
1000.000000 
1000.000000 
1000.000000 
1000.000000 
1000.000000 
1000.000000 
1000.000000 
1000.000000 
1000.000000 
1000.000000 
1000.000000 
1000.000000 
1000.000000 
1000.000000 
1000.000000 
1000.000000 
1000.000000 
1000.000000 
1000.000000 
1000.000000 
1000.000000 
1000.000000 
1000.000000 
1000.000000 
1000.000000 
1000.000000 
1000.000000 
1000.000000 
1000.000000 
1000.000000 
1000.000000 
1000.000000 
1000.000000 
1000.000000 
1000.000000 
1000.000000 
1000.000000 
1000.000000 
1000.000000 
1000.000000 
1000.000000 
1000.000000 
1000.000000 
1000.000000 
1000.000000 
1000.000000 
1000.000000 
1000.000000 
1000.000000 
1000.000000 
1000.000000 
1000.000000 
1000.000000 
1000.000000 
1000.000000 
1000.000000 
1000.000000 
1000.000000 
1000.000000 
SCALARS ELEM_i float 
LOOKUP_TABLE default 
82 
82 
83 
84 
84 
85 
86 
86 
87 
88 
109 
109 
110 
111 
111 
112 
113 
113 
114 
115 
109 
109 
110 
111 
111 
112 
113 
113 
114 
115 
136 
136 
137 
138 
138 
139 
140 
140 
141 
142 
163 
163 
164 
165 
165 
166 
167 
167 
168 
169 
163 
163 
164 
165 
165 
166 
167 
167 
168 
169 
190 
190 
191 
192 
192 
193 
194 
194 
195 
196 
217 
217 
218 
219 
219 
220 
221 
221 
222 
223 
217 
217 
218 
219 
219 
220 
221 
221 
222 
223 
244 
244 
245 
246 
246 
247 
248 
248 
249 
250 
VECTORS VELOCITY float 
-0.000000 -6.805197 0.000000 
-0.000000 -6.805197 0.000000 
-0.000000 -6.805197 0.000000 
0.000000 -6.805197 0.000000 
0.000000 -6.805197 0.000000 
0.000000 -6.805197 0.000000 
0.000000 -6.805197 0.000000 
0.000000 -6.805197 0.000000 
0.000000 -6.805197 0.000000 
0.000000 -6.805197 0.000000 
0.000000 -6.805197 0.000000 
-0.000000 -6.805197 0.000000 
-0.000000 -6.805197 0.000000 
0.000000 -6.805197 0.000000 
-0.000000 -6.805197 0.000000 
-0.000000 -6.805197 0.000000 
0.000000 -6.805197 0.000000 
-0.000000 -6.805197 0.000000 
-0.000000 -6.805197 0.000000 
-0.000000 -6.805197 0.000000 
0.000000 -6.805197 0.000000 
-0.000000 -6.805197 0.000000 
-0.000000 -6.805197 0.000000 
0.000000 -6.805197 0.000000 
-0.000000 -6.805197 0.000000 
0.000000 -6.805197 0.000000 
0.000000 -6.805197 0.000000 
-0.000000 -6.805197 0.000000 
-0.000000 -6.805197 0.000000 
0.000000 -6.805197 0.000000 
-0.000000 -6.805197 0.000000 
-0.000000 -6.805197 0.000000 
-0.000000 -6.805197 0.000000 
-0.000000 -6.805197 0.000000 
-0.000000 -6.805197 0.000000 
0.000000 -6.805197 0.000000 
0.000000 -6.805197 0.000000 
-0.000000 -6.805197 0.000000 
0.000000 -6.805197 0.000000 
0.000000 -6.805197 0.000000 
-0.000000 -6.805197 0.000000 
-0.000000 -6.805197 0.000000 
-0.000000 -6.805197 0.000000 
-0.000000 -6.805197 0.000000 
-0.000000 -6.805197 0.000000 
-0.000000 -6.805197 0.000000 
0.000000 -6.805197 0.000000 
-0.000000 -6.805197 0.000000 
0.000000 -6.805197 0.000000 
0.000000 -6.805197 0.000000 
0.000000 -6.805197 0.000000 
0.000000 -6.805197 0.000000 
-0.000000 -6.805197 0.000000 
-0.000000 -6.805197 0.000000 
-0.000000 -6.805197 0.000000 
0.000000 -6.805197 0.000000 
-0.000000 -6.805197 0.000000 
0.000000 -6.805197 0.000000 
0.000000 -6.805197 0.000000 
-0.000000 -6.805197 0.000000 
-0.000000 -6.805197 0.000000 
0.000000 -6.805197 0.000000 
0.000000 -6.805197 0.000000 
0.000000 -6.805197 0.000000 
0.000000 -6.805197 0.000000 
0.000000 -6.805197 0.000000 
-0.000000 -6.805197 0.000000 
0.000000 -6.805197 0.000000 
0.000000 -6.805197 0.000000 
0.000000 -6.805197 0.000000 
-0.000000 -6.805197 0.000000 
-0.000000 -6.805197 0.000000 
0.000000 -6.805197 0.000000 
0.000000 -6.805197 0.000000 
0.000000 -6.805197 0.000000 
-0.000000 -6.805197 0.000000 
-0.000000 -6.805197 0.000000 
0.000000 -6.805197 0.000000 
0.000000 -6.805197 0.000000 
0.000000 -6.805197 0.000000 
0.000000 -6.805197 0.000000 
0.000000 -6.805197 0.000000 
0.000000 -6.805197 0.000000 
-0.000000 -6.805197 0.000000 
-0.000000 -6.805197 0.000000 
0.000000 -6.805197 0.000000 
0.000000 -6.805197 0.000000 
-0.000000 -6.805197 0.000000 
0.000000 -6.805197 0.000000 
0.000000 -6.805197 0.000000 
0.000000 -6.805197 0.000000 
0.000000 -6.805197 0.000000 
0.000000 -6.805197 0.000000 
-0.000000 -6.805197 0.000000 
0.000000 -6.805197 0.000000 
0.000000 -6.805197 0.000000 
-0.000000 -6.805197 0.000000 
0.000000 -6.805197 0.000000 
0.000000 -6.805197 0.000000 
-0.000000 -6.805197 0.000000 
TENSORS STRESS float 
0.000000 -0.000000 0.000000 
0.000000 0.000000 0.000000 
0.000000 0.000000 0.000000 

0.000000 -0.000000 0.000000 
0.000000 0.000000 0.000000 
0.000000 0.000000 0.000000 

0.000000 -0.000000 0.000000 
0.000000 0.000000 0.000000 
0.000000 0.000000 0.000000 

-0.000000 -0.000000 0.000000 
0.000000 -0.000000 0.000000 
0.000000 0.000000 0.000000 

-0.000000 0.000000 0.000000 
0.000000 -0.000000 0.000000 
0.000000 0.000000 0.000000 

-0.000000 0.000000 0.000000 
0.000000 -0.000000 0.000000 
0.000000 0.000000 0.000000 

0.000000 0.000000 0.000000 
0.000000 0.000000 0.000000 
0.000000 0.000000 0.000000 

0.000000 0.000000 0.000000 
0.000000 -0.000000 0.000000 
0.000000 0.000000 0.000000 

-0.000000 0.000000 0.000000 
0.000000 -0.000000 0.000000 
0.000000 0.000000 0.000000 

0.000000 0.000000 0.000000 
0.000000 0.000000 0.000000 
0.000000 0.000000 0.000000 

0.000000 0.000000 0.000000 
0.000000 0.000000 0.000000 
0.000000 0.000000 0.000000 

-0.000000 -0.000000 0.000000 
0.000000 -0.000000 0.000000 
0.000000 0.000000 0.000000 

0.000000 -0.000000 0.000000 
0.000000 0.000000 0.000000 
0.000000 0.000000 0.000000 

-0.000000 0.000000 0.000000 
0.000000 -0.000000 0.000000 
0.000000 0.000000 0.000000 

0.000000 -0.000000 0.000000 
0.000000 -0.000000 0.000000 
0.000000 0.000000 0.000000 

0.000000 -0.000000 0.000000 
0.000000 0.000000 0.000000 
0.000000 0.000000 0.000000 

-0.000000 -0.000000 0.000000 
0.000000 0.000000 0.000000 
0.000000 0.000000 0.000000 

-0.000000 -0.000000 0.000000 
0.000000 -0.000000 0.000000 
0.000000 0.000000 0.000000 

0.000000 -0.000000 0.000000 
0.000000 0.000000 0.000000 
0.000000 0.000000 0.000000 

0.000000 0.000000 0.000000 
0.000000 0.000000 0.000000 
0.000000 0.000000 0.000000 

-0.000000 -0.000000 0.000000 
0.000000 -0.000000 0.000000 
0.000000 0.000000 0.000000 

0.000000 -0.000000 0.000000 
0.000000 0.000000 0.000000 
0.000000 0.000000 0.000000 

-0.000000 -0.000000 0.000000 
0.000000 -0.000000 0.000000 
0.000000 0.000000 0.000000 

0.000000 0.000000 0.000000 
0.000000 0.000000 0.000000 
0.000000 0.000000 0.000000 

0.000000 -0.000000 0.000000 
0.000000 0.000000 0.000000 
0.000000 0.000000 0.000000 

-0.000000 0.000000 0.000000 
0.000000 -0.000000 0.000000 
0.000000 0.000000 0.000000 

-0.000000 -0.000000 0.000000 
0.000000 -0.000000 0.000000 
0.000000 0.000000 0.000000 

0.000000 0.000000 0.000000 
0.000000 0.000000 0.000000 
0.000000 0.000000 0.000000 

0.000000 -0.000000 0.000000 
0.000000 0.000000 0.000000 
0.000000 0.000000 0.000000 

0.000000 0.000000 0.000000 
0.000000 0.000000 0.000000 
0.000000 0.000000 0.000000 

-0.000000 -0.000000 0.000000 
0.000000 -0.000000 0.000000 
0.000000 0.000000 0.000000 

0.000000 0.000000 0.000000 
0.000000 0.000000 0.000000 
0.000000 0.000000 0.000000 

-0.000000 0.000000 0.000000 
0.000000 -0.000000 0.000000 
0.000000 0.000000 0.000000 

0.000000 0.000000 0.000000 
0.000000 0.000000 0.000000 
0.000000 0.000000 0.000000 

-0.000000 0.000000 0.000000 
0.000000 -0.000000 0.000000 
0.000000 0.000000 0.000000 

0.000000 0.000000 0.000000 
0.000000 0.000000 0.000000 
0.000000 0.000000 0.000000 

-0.000000 0.000000 0.000000 
0.000000 -0.000000 0.000000 
0.000000 0.000000 0.000000 

0.000000 -0.000000 0.000000 
0.000000 0.000000 0.000000 
0.000000 0.000000 0.000000 

-0.000000 -0.000000 0.000000 
0.000000 -0.000000 0.000000 
0.000000 0.000000 0.000000 

0.000000 0.000000 0.000000 
0.000000 -0.000000 0.000000 
0.000000 0.000000 0.000000 

-0.000000 -0.000000 0.000000 
0.000000 0.000000 0.000000 
0.000000 0.000000 0.000000 

0.000000 0.000000 0.000000 
0.000000 0.000000 0.000000 
0.000000 0.000000 0.000000 

-0.000000 0.000000 0.000000 
0.000000 -0.000000 0.000000 
0.000000 0.000000 0.000000 

0.000000 -0.000000 0.000000 
0.000000 0.000000 0.000000 
0.000000 0.000000 0.000000 

0.000000 -0.000000 0.000000 
0.000000 0.000000 0.000000 
0.000000 0.000000 0.000000 

-0.000000 0.000000 0.000000 
0.000000 -0.000000 0.000000 
0.000000 0.000000 0.000000 

-0.000000 -0.000000 0.000000 
0.000000 -0.000000 0.000000 
0.000000 0.000000 0.000000 

-0.000000 -0.000000 0.000000 
0.000000 -0.000000 0.000000 
0.000000 0.000000 0.000000 

0.000000 -0.000000 0.000000 
0.000000 -0.000000 0.000000 
0.000000 0.000000 0.000000 

0.000000 0.000000 0.000000 
0.000000 0.000000 0.000000 
0.000000 0.000000 0.000000 

-0.000000 -0.000000 0.000000 
0.000000 -0.000000 0.000000 
0.000000 0.000000 0.000000 

0.000000 0.000000 0.000000 
0.000000 0.000000 0.000000 
0.000000 0.000000 0.000000 

-0.000000 0.000000 0.000000 
0.000000 -0.000000 0.000000 
0.000000 0.000000 0.000000 

0.000000 -0.000000 0.000000 
0.000000 0.000000 0.000000 
0.000000 0.000000 0.000000 

0.000000 -0.000000 0.000000 
0.000000 0.000000 0.000000 
0.000000 0.000000 0.000000 

0.000000 -0.000000 0.000000 
0.000000 0.000000 0.000000 
0.000000 0.000000 0.000000 

-0.000000 -0.000000 0.000000 
0.000000 -0.000000 0.000000 
0.000000 0.000000 0.000000 

-0.000000 0.000000 0.000000 
0.000000 -0.000000 0.000000 
0.000000 0.000000 0.000000 

0.000000 -0.000000 0.000000 
0.000000 0.000000 0.000000 
0.000000 0.000000 0.000000 

-0.000000 0.000000 0.000000 
0.000000 -0.000000 0.000000 
0.000000 0.000000 0.000000 

0.000000 -0.000000 0.000000 
0.000000 0.000000 0.000000 
0.000000 0.000000 0.000000 

-0.000000 -0.000000 0.000000 
0.000000 -0.000000 0.000000 
0.000000 0.000000 0.000000 

-0.000000 -0.000000 0.000000 
0.000000 -0.000000 0.000000 
0.000000 0.000000 0.000000 

0.000000 -0.000000 0.000000 
0.000000 0.000000 0.000000 
0.000000 0.000000 0.000000 

0.000000 -0.000000 0.000000 
0.000000 -0.000000 0.000000 
0.000000 0.000000 0.000000 

0.000000 -0.000000 0.000000 
0.000000 0.000000 0.000000 
0.000000 0.000000 0.000000 

-0.000000 -0.000000 0.000000 
0.000000 -0.000000 0.000000 
0.000000 0.000000 0.000000 

0.000000 -0.000000 0.000000 
0.000000 -0.000000 0.000000 
0.000000 0.000000 0.000000 

-0.000000 -0.000000 0.000000 
0.000000 -0.000000 0.000000 
0.000000 0.000000 0.000000 

0.000000 -0.000000 0.000000 
0.000000 0.000000 0.000000 
0.000000 0.000000 0.000000 

0.000000 0.000000 0.000000 
0.000000 0.000000 0.000000 
0.000000 0.000000 0.000000 

0.000000 -0.000000 0.000000 
0.000000 0.000000 0.000000 
0.000000 0.000000 0.000000 

-0.000000 0.000000 0.000000 
0.000000 -0.000000 0.000000 
0.000000 0.000000 0.000000 

0.000000 0.000000 0.000000 
0.000000 0.000000 0.000000 
0.000000 0.000000 0.000000 

0.000000 -0.000000 0.000000 
0.000000 -0.000000 0.000000 
0.000000 0.000000 0.000000 

-0.000000 0.000000 0.000000 
0.000000 -0.000000 0.000000 
0.000000 0.000000 0.000000 

0.000000 -0.000000 0.000000 
0.000000 0.000000 0.000000 
0.000000 0.000000 0.000000 

-0.000000 0.000000 0.000000 
0.000000 -0.000000 0.000000 
0.000000 0.000000 0.000000 

-0.000000 0.000000 0.000000 
0.000000 -0.000000 0.000000 
0.000000 0.000000 0.000000 

0.000000 -0.000000 0.000000 
0.000000 0.000000 0.000000 
0.000000 0.000000 0.000000 

0.000000 0.000000 0.000000 
0.000000 0.000000 0.000000 
0.000000 0.000000 0.000000 

0.000000 0.000000 0.000000 
0.000000 0.000000 0.000000 
0.000000 0.000000 0.000000 

0.000000 -0.000000 0.000000 
0.000000 0.000000 0.000000 
0.000000 0.000000 0.000000 

0.000000 -0.000000 0.000000 
0.000000 0.000000 0.000000 
0.000000 0.000000 0.000000 

-0.000000 0.000000 0.000000 
0.000000 -0.000000 0.000000 
0.000000 0.000000 0.000000 

-0.000000 0.000000 0.000000 
0.000000 -0.000000 0.000000 
0.000000 0.000000 0.000000 

0.000000 0.000000 0.000000 
0.000000 0.000000 0.000000 
0.000000 0.000000 0.000000 

-0.000000 -0.000000 0.000000 
0.000000 -0.000000 0.000000 
0.000000 0.000000 0.000000 

-0.000000 0.000000 0.000000 
0.000000 -0.000000 0.000000 
0.000000 0.000000 0.000000 

-0.000000 -0.000000 0.000000 
0.000000 -0.000000 0.000000 
0.000000 0.000000 0.000000 

0.000000 0.000000 0.000000 
0.000000 0.000000 0.000000 
0.000000 0.000000 0.000000 

-0.000000 -0.000000 0.000000 
0.000000 -0.000000 0.000000 
0.000000 0.000000 0.000000 

-0.000000 0.000000 0.000000 
0.000000 -0.000000 0.000000 
0.000000 0.000000 0.000000 

-0.000000 -0.000000 0.000000 
0.000000 -0.000000 0.000000 
0.000000 0.000000 0.000000 

0.000000 -0.000000 0.000000 
0.000000 0.000000 0.000000 
0.000000 0.000000 0.000000 

-0.000000 -0.000000 0.000000 
0.000000 -0.000000 0.000000 
0.000000 0.000000 0.000000 

0.000000 -0.000000 0.000000 
0.000000 0.000000 0.000000 
0.000000 0.000000 0.000000 

-0.000000 -0.000000 0.000000 
0.000000 -0.000000 0.000000 
0.000000 0.000000 0.000000 

-0.000000 0.000000 0.000000 
0.000000 -0.000000 0.000000 
0.000000 0.000000 0.000000 

-0.000000 0.000000 0.000000 
0.000000 -0.000000 0.000000 
0.000000 0.000000 0.000000 

TENSORS STRAIN float 
-0.000000 -0.000000 0.000000 
0.000000 0.000000 0.000000 
0.000000 0.000000 0.000000 

-0.000000 -0.000000 0.000000 
0.000000 0.000000 0.000000 
0.000000 0.000000 0.000000 

0.000000 -0.000000 0.000000 
0.000000 0.000000 0.000000 
0.000000 0.000000 0.000000 

-0.000000 -0.000000 0.000000 
0.000000 -0.000000 0.000000 
0.000000 0.000000 0.000000 

-0.000000 0.000000 0.000000 
0.000000 0.000000 0.000000 
0.000000 0.000000 0.000000 

-0.000000 0.000000 0.000000 
0.000000 -0.000000 0.000000 
0.000000 0.000000 0.000000 

-0.000000 0.000000 0.000000 
0.000000 0.000000 0.000000 
0.000000 0.000000 0.000000 

0.000000 0.000000 0.000000 
0.000000 -0.000000 0.000000 
0.000000 0.000000 0.000000 

0.000000 0.000000 0.000000 
0.000000 -0.000000 0.000000 
0.000000 0.000000 0.000000 

0.000000 0.000000 0.000000 
0.000000 -0.000000 0.000000 
0.000000 0.000000 0.000000 

0.000000 0.000000 0.000000 
0.000000 0.000000 0.000000 
0.000000 0.000000 0.000000 

-0.000000 -0.000000 0.000000 
0.000000 -0.000000 0.000000 
0.000000 0.000000 0.000000 

-0.000000 -0.000000 0.000000 
0.000000 0.000000 0.000000 
0.000000 0.000000 0.000000 

-0.000000 0.000000 0.000000 
0.000000 -0.000000 0.000000 
0.000000 0.000000 0.000000 

0.000000 -0.000000 0.000000 
0.000000 -0.000000 0.000000 
0.000000 0.000000 0.000000 

-0.000000 -0.000000 0.000000 
0.000000 0.000000 0.000000 
0.000000 0.000000 0.000000 

-0.000000 -0.000000 0.000000 
0.000000 0.000000 0.000000 
0.000000 0.000000 0.000000 

-0.000000 -0.000000 0.000000 
0.000000 0.000000 0.000000 
0.000000 0.000000 0.000000 

0.000000 -0.000000 0.000000 
0.000000 0.000000 0.000000 
0.000000 0.000000 0.000000 

0.000000 0.000000 0.000000 
0.000000 0.000000 0.000000 
0.000000 0.000000 0.000000 

0.000000 -0.000000 0.000000 
0.000000 -0.000000 0.000000 
0.000000 0.000000 0.000000 

-0.000000 -0.000000 0.000000 
0.000000 0.000000 0.000000 
0.000000 0.000000 0.000000 

-0.000000 -0.000000 0.000000 
0.000000 -0.000000 0.000000 
0.000000 0.000000 0.000000 

-0.000000 0.000000 0.000000 
0.000000 0.000000 0.000000 
0.000000 0.000000 0.000000 

0.000000 -0.000000 0.000000 
0.000000 -0.000000 0.000000 
0.000000 0.000000 0.000000 

-0.000000 0.000000 0.000000 
0.000000 -0.000000 0.000000 
0.000000 0.000000 0.000000 

-0.000000 -0.000000 0.000000 
0.000000 0.000000 0.000000 
0.000000 0.000000 0.000000 

-0.000000 0.000000 0.000000 
0.000000 0.000000 0.000000 
0.000000 0.000000 0.000000 

0.000000 -0.000000 0.000000 
0.000000 0.000000 0.000000 
0.000000 0.000000 0.000000 

0.000000 0.000000 0.000000 
0.000000 -0.000000 0.000000 
0.000000 0.000000 0.000000 

-0.000000 -0.000000 0.000000 
0.000000 0.000000 0.000000 
0.000000 0.000000 0.000000 

0.000000 0.000000 0.000000 
0.000000 -0.000000 0.000000 
0.000000 0.000000 0.000000 

0.000000 0.000000 0.000000 
0.000000 -0.000000 0.000000 
0.000000 0.000000 0.000000 

0.000000 0.000000 0.000000 
0.000000 0.000000 0.000000 
0.000000 0.000000 0.000000 

-0.000000 0.000000 0.000000 
0.000000 0.000000 0.000000 
0.000000 0.000000 0.000000 

0.000000 0.000000 0.000000 
0.000000 0.000000 0.000000 
0.000000 0.000000 0.000000 

-0.000000 0.000000 0.000000 
0.000000 -0.000000 0.000000 
0.000000 0.000000 0.000000 

0.000000 -0.000000 0.000000 
0.000000 0.000000 0.000000 
0.000000 0.000000 0.000000 

-0.000000 -0.000000 0.000000 
0.000000 -0.000000 0.000000 
0.000000 0.000000 0.000000 

0.000000 0.000000 0.000000 
0.000000 -0.000000 0.000000 
0.000000 0.000000 0.000000 

-0.000000 -0.000000 0.000000 
0.000000 0.000000 0.000000 
0.000000 0.000000 0.000000 

0.000000 0.000000 0.000000 
0.000000 -0.000000 0.000000 
0.000000 0.000000 0.000000 

0.000000 0.000000 0.000000 
0.000000 -0.000000 0.000000 
0.000000 0.000000 0.000000 

0.000000 -0.000000 0.000000 
0.000000 -0.000000 0.000000 
0.000000 0.000000 0.000000 

0.000000 -0.000000 0.000000 
0.000000 0.000000 0.000000 
0.000000 0.000000 0.000000 

0.000000 0.000000 0.000000 
0.000000 -0.000000 0.000000 
0.000000 0.000000 0.000000 

0.000000 -0.000000 0.000000 
0.000000 -0.000000 0.000000 
0.000000 0.000000 0.000000 

0.000000 -0.000000 0.000000 
0.000000 -0.000000 0.000000 
0.000000 0.000000 0.000000 

0.000000 -0.000000 0.000000 
0.000000 -0.000000 0.000000 
0.000000 0.000000 0.000000 

0.000000 0.000000 0.000000 