# vtk DataFile Version 3.0 
vtk output 
ASCII 
DATASET UNSTRUCTURED_GRID 
POINTS 100 float 
0.456271 -2.879419 0.000000 
0.452813 -2.778458 0.000000 
0.450331 -2.679672 0.000000 
0.450135 -2.579806 0.000000 
0.450051 -2.479894 0.000000 
0.450006 -2.379951 0.000000 
0.450002 -2.279957 0.000000 
0.450001 -2.179959 0.000000 
0.450000 -2.079960 0.000000 
0.450000 -1.979960 0.000000 
0.352456 -2.879466 0.000000 
0.351170 -2.778504 0.000000 
0.350206 -2.679709 0.000000 
0.350066 -2.579822 0.000000 
0.350022 -2.479900 0.000000 
0.350004 -2.379952 0.000000 
0.350001 -2.279957 0.000000 
0.350000 -2.179959 0.000000 
0.350000 -2.079960 0.000000 
0.350000 -1.979960 0.000000 
0.248861 -2.879513 0.000000 
0.249626 -2.778498 0.000000 
0.250104 -2.679687 0.000000 
0.250012 -2.579811 0.000000 
0.249999 -2.479896 0.000000 
0.250001 -2.379951 0.000000 
0.250000 -2.279957 0.000000 
0.250000 -2.179959 0.000000 
0.250000 -2.079960 0.000000 
0.250000 -1.979960 0.000000 
0.150233 -2.879561 0.000000 
0.150130 -2.778482 0.000000 
0.150046 -2.679655 0.000000 
0.150018 -2.579794 0.000000 
0.150006 -2.479889 0.000000 
0.150001 -2.379951 0.000000 
0.150000 -2.279957 0.000000 
0.150000 -2.179959 0.000000 
0.150000 -2.079960 0.000000 
0.150000 -1.979960 0.000000 
0.051364 -2.879597 0.000000 
0.050555 -2.778470 0.000000 
0.050007 -2.679629 0.000000 
0.050021 -2.579780 0.000000 
0.050011 -2.479883 0.000000 
0.050001 -2.379950 0.000000 
0.050000 -2.279957 0.000000 
0.050000 -2.179959 0.000000 
0.050000 -2.079960 0.000000 
0.050000 -1.979960 0.000000 
-0.051364 -2.879597 0.000000 
-0.050555 -2.778470 0.000000 
-0.050007 -2.679629 0.000000 
-0.050021 -2.579780 0.000000 
-0.050011 -2.479883 0.000000 
-0.050001 -2.379950 0.000000 
-0.050000 -2.279957 0.000000 
-0.050000 -2.179959 0.000000 
-0.050000 -2.079960 0.000000 
-0.050000 -1.979960 0.000000 
-0.150233 -2.879561 0.000000 
-0.150130 -2.778482 0.000000 
-0.150046 -2.679655 0.000000 
-0.150018 -2.579794 0.000000 
-0.150006 -2.479889 0.000000 
-0.150001 -2.379951 0.000000 
-0.150000 -2.279957 0.000000 
-0.150000 -2.179959 0.000000 
-0.150000 -2.079960 0.000000 
-0.150000 -1.979960 0.000000 
-0.248861 -2.879513 0.000000 
-0.249626 -2.778498 0.000000 
-0.250104 -2.679687 0.000000 
-0.250012 -2.579811 0.000000 
-0.249999 -2.479896 0.000000 
-0.250001 -2.379951 0.000000 
-0.250000 -2.279957 0.000000 
-0.250000 -2.179959 0.000000 
-0.250000 -2.079960 0.000000 
-0.250000 -1.979960 0.000000 
-0.352456 -2.879466 0.000000 
-0.351170 -2.778504 0.000000 
-0.350206 -2.679709 0.000000 
-0.350066 -2.579822 0.000000 
-0.350022 -2.479900 0.000000 
-0.350004 -2.379952 0.000000 
-0.350001 -2.279957 0.000000 
-0.350000 -2.179959 0.000000 
-0.350000 -2.079960 0.000000 
-0.350000 -1.979960 0.000000 
-0.456271 -2.879419 0.000000 
-0.452813 -2.778458 0.000000 
-0.450331 -2.679672 0.000000 
-0.450135 -2.579806 0.000000 
-0.450051 -2.479894 0.000000 
-0.450006 -2.379951 0.000000 
-0.450002 -2.279957 0.000000 
-0.450001 -2.179959 0.000000 
-0.450000 -2.079960 0.000000 
-0.450000 -1.979960 0.000000 
CELLS 100 200 
1 0 
1 1 
1 2 
1 3 
1 4 
1 5 
1 6 
1 7 
1 8 
1 9 
1 10 
1 11 
1 12 
1 13 
1 14 
1 15 
1 16 
1 17 
1 18 
1 19 
1 20 
1 21 
1 22 
1 23 
1 24 
1 25 
1 26 
1 27 
1 28 
1 29 
1 30 
1 31 
1 32 
1 33 
1 34 
1 35 
1 36 
1 37 
1 38 
1 39 
1 40 
1 41 
1 42 
1 43 
1 44 
1 45 
1 46 
1 47 
1 48 
1 49 
1 50 
1 51 
1 52 
1 53 
1 54 
1 55 
1 56 
1 57 
1 58 
1 59 
1 60 
1 61 
1 62 
1 63 
1 64 
1 65 
1 66 
1 67 
1 68 
1 69 
1 70 
1 71 
1 72 
1 73 
1 74 
1 75 
1 76 
1 77 
1 78 
1 79 
1 80 
1 81 
1 82 
1 83 
1 84 
1 85 
1 86 
1 87 
1 88 
1 89 
1 90 
1 91 
1 92 
1 93 
1 94 
1 95 
1 96 
1 97 
1 98 
1 99 
CELL_TYPES 100 
1 
1 
1 
1 
1 
1 
1 
1 
1 
1 
1 
1 
1 
1 
1 
1 
1 
1 
1 
1 
1 
1 
1 
1 
1 
1 
1 
1 
1 
1 
1 
1 
1 
1 
1 
1 
1 
1 
1 
1 
1 
1 
1 
1 
1 
1 
1 
1 
1 
1 
1 
1 
1 
1 
1 
1 
1 
1 
1 
1 
1 
1 
1 
1 
1 
1 
1 
1 
1 
1 
1 
1 
1 
1 
1 
1 
1 
1 
1 
1 
1 
1 
1 
1 
1 
1 
1 
1 
1 
1 
1 
1 
1 
1 
1 
1 
1 
1 
1 
1 
POINT_DATA 100 
VECTORS X_GC float 
0.456271 -2.879419 0.000000 
0.452813 -2.778458 0.000000 
0.450331 -2.679672 0.000000 
0.450135 -2.579806 0.000000 
0.450051 -2.479894 0.000000 
0.450006 -2.379951 0.000000 
0.450002 -2.279957 0.000000 
0.450001 -2.179959 0.000000 
0.450000 -2.079960 0.000000 
0.450000 -1.979960 0.000000 
0.352456 -2.879466 0.000000 
0.351170 -2.778504 0.000000 
0.350206 -2.679709 0.000000 
0.350066 -2.579822 0.000000 
0.350022 -2.479900 0.000000 
0.350004 -2.379952 0.000000 
0.350001 -2.279957 0.000000 
0.350000 -2.179959 0.000000 
0.350000 -2.079960 0.000000 
0.350000 -1.979960 0.000000 
0.248861 -2.879513 0.000000 
0.249626 -2.778498 0.000000 
0.250104 -2.679687 0.000000 
0.250012 -2.579811 0.000000 
0.249999 -2.479896 0.000000 
0.250001 -2.379951 0.000000 
0.250000 -2.279957 0.000000 
0.250000 -2.179959 0.000000 
0.250000 -2.079960 0.000000 
0.250000 -1.979960 0.000000 
0.150233 -2.879561 0.000000 
0.150130 -2.778482 0.000000 
0.150046 -2.679655 0.000000 
0.150018 -2.579794 0.000000 
0.150006 -2.479889 0.000000 
0.150001 -2.379951 0.000000 
0.150000 -2.279957 0.000000 
0.150000 -2.179959 0.000000 
0.150000 -2.079960 0.000000 
0.150000 -1.979960 0.000000 
0.051364 -2.879597 0.000000 
0.050555 -2.778470 0.000000 
0.050007 -2.679629 0.000000 
0.050021 -2.579780 0.000000 
0.050011 -2.479883 0.000000 
0.050001 -2.379950 0.000000 
0.050000 -2.279957 0.000000 
0.050000 -2.179959 0.000000 
0.050000 -2.079960 0.000000 
0.050000 -1.979960 0.000000 
-0.051364 -2.879597 0.000000 
-0.050555 -2.778470 0.000000 
-0.050007 -2.679629 0.000000 
-0.050021 -2.579780 0.000000 
-0.050011 -2.479883 0.000000 
-0.050001 -2.379950 0.000000 
-0.050000 -2.279957 0.000000 
-0.050000 -2.179959 0.000000 
-0.050000 -2.079960 0.000000 
-0.050000 -1.979960 0.000000 
-0.150233 -2.879561 0.000000 
-0.150130 -2.778482 0.000000 
-0.150046 -2.679655 0.000000 
-0.150018 -2.579794 0.000000 
-0.150006 -2.479889 0.000000 
-0.150001 -2.379951 0.000000 
-0.150000 -2.279957 0.000000 
-0.150000 -2.179959 0.000000 
-0.150000 -2.079960 0.000000 
-0.150000 -1.979960 0.000000 
-0.248861 -2.879513 0.000000 
-0.249626 -2.778498 0.000000 
-0.250104 -2.679687 0.000000 
-0.250012 -2.579811 0.000000 
-0.249999 -2.479896 0.000000 
-0.250001 -2.379951 0.000000 
-0.250000 -2.279957 0.000000 
-0.250000 -2.179959 0.000000 
-0.250000 -2.079960 0.000000 
-0.250000 -1.979960 0.000000 
-0.352456 -2.879466 0.000000 
-0.351170 -2.778504 0.000000 
-0.350206 -2.679709 0.000000 
-0.350066 -2.579822 0.000000 
-0.350022 -2.479900 0.000000 
-0.350004 -2.379952 0.000000 
-0.350001 -2.279957 0.000000 
-0.350000 -2.179959 0.000000 
-0.350000 -2.079960 0.000000 
-0.350000 -1.979960 0.000000 
-0.456271 -2.879419 0.000000 
-0.452813 -2.778458 0.000000 
-0.450331 -2.679672 0.000000 
-0.450135 -2.579806 0.000000 
-0.450051 -2.479894 0.000000 
-0.450006 -2.379951 0.000000 
-0.450002 -2.279957 0.000000 
-0.450001 -2.179959 0.000000 
-0.450000 -2.079960 0.000000 
-0.450000 -1.979960 0.000000 
VECTORS X_EC float 
0.068473 -0.627838 0.000000 
0.113428 0.009181 0.000000 
0.145696 0.675565 0.000000 
0.148244 -0.672621 0.000000 
0.149340 -0.021428 0.000000 
0.149918 0.629343 0.000000 
0.149975 -0.720576 0.000000 
0.149992 -0.070551 0.000000 
0.149999 0.579460 0.000000 
0.150000 -0.770539 0.000000 
-0.581933 -0.627213 0.000000 
-0.565206 0.009804 0.000000 
-0.552683 0.676071 0.000000 
-0.550860 -0.672407 0.000000 
-0.550288 -0.021353 0.000000 
-0.550046 0.629347 0.000000 
-0.550012 -0.720574 0.000000 
-0.550003 -0.070550 0.000000 
-0.550000 0.579460 0.000000 
-0.550000 -0.770539 0.000000 
0.764802 -0.626570 0.000000 
0.754864 0.009718 0.000000 
0.748648 0.675774 0.000000 
0.749843 -0.672555 0.000000 
0.750009 -0.021408 0.000000 
0.749990 0.629344 0.000000 
0.750000 -0.720576 0.000000 
0.750001 -0.070551 0.000000 
0.750000 0.579460 0.000000 
0.750000 -0.770539 0.000000 
0.046973 -0.625926 0.000000 
0.048313 0.009512 0.000000 
0.049403 0.675337 0.000000 
0.049772 -0.672786 0.000000 
0.049918 -0.021502 0.000000 
0.049988 0.629333 0.000000 
0.049996 -0.720579 0.000000 
0.049999 -0.070552 0.000000 
0.050000 0.579460 0.000000 
0.050000 -0.770540 0.000000 
-0.667736 -0.625447 0.000000 
-0.657218 0.009340 0.000000 
-0.650095 0.674993 0.000000 
-0.650269 -0.672970 0.000000 
-0.650140 -0.021577 0.000000 
-0.650013 0.629324 0.000000 
-0.650006 -0.720582 0.000000 
-0.650002 -0.070553 0.000000 
-0.650000 0.579460 0.000000 
-0.650000 -0.770540 0.000000 
0.667736 -0.625447 0.000000 
0.657218 0.009340 0.000000 
0.650095 0.674993 0.000000 
0.650269 -0.672970 0.000000 
0.650140 -0.021577 0.000000 
0.650013 0.629324 0.000000 
0.650006 -0.720582 0.000000 
0.650002 -0.070553 0.000000 
0.650000 0.579460 0.000000 
0.650000 -0.770540 0.000000 
-0.046973 -0.625926 0.000000 
-0.048313 0.009512 0.000000 
-0.049403 0.675337 0.000000 
-0.049772 -0.672786 0.000000 
-0.049918 -0.021502 0.000000 
-0.049988 0.629333 0.000000 
-0.049996 -0.720579 0.000000 
-0.049999 -0.070552 0.000000 
-0.050000 0.579460 0.000000 
-0.050000 -0.770540 0.000000 
-0.764802 -0.626570 0.000000 
-0.754864 0.009718 0.000000 
-0.748648 0.675774 0.000000 
-0.749843 -0.672555 0.000000 
-0.750009 -0.021408 0.000000 
-0.749990 0.629344 0.000000 
-0.750000 -0.720576 0.000000 
-0.750001 -0.070551 0.000000 
-0.750000 0.579460 0.000000 
-0.750000 -0.770539 0.000000 
0.581933 -0.627213 0.000000 
0.565206 0.009804 0.000000 
0.552683 0.676071 0.000000 
0.550860 -0.672407 0.000000 
0.550288 -0.021353 0.000000 
0.550046 0.629347 0.000000 
0.550012 -0.720574 0.000000 
0.550003 -0.070550 0.000000 
0.550000 0.579460 0.000000 
0.550000 -0.770539 0.000000 
-0.068473 -0.627838 0.000000 
-0.113428 0.009181 0.000000 
-0.145696 0.675565 0.000000 
-0.148244 -0.672621 0.000000 
-0.149340 -0.021428 0.000000 
-0.149918 0.629343 0.000000 
-0.149975 -0.720576 0.000000 
-0.149992 -0.070551 0.000000 
-0.149999 0.579460 0.000000 
-0.150000 -0.770539 0.000000 
CELL_DATA 100 
SCALARS MASS float 
LOOKUP_TABLE default 
10.000000 
10.000000 
10.000000 
10.000000 
10.000000 
10.000000 
10.000000 
10.000000 
10.000000 
10.000000 
10.000000 
10.000000 
10.000000 
10.000000 
10.000000 
10.000000 
10.000000 
10.000000 
10.000000 
10.000000 
10.000000 
10.000000 
10.000000 
10.000000 
10.000000 
10.000000 
10.000000 
10.000000 
10.000000 
10.000000 
10.000000 
10.000000 
10.000000 
10.000000 
10.000000 
10.000000 
10.000000 
10.000000 
10.000000 
10.000000 
10.000000 
10.000000 
10.000000 
10.000000 
10.000000 
10.000000 
10.000000 
10.000000 
10.000000 
10.000000 
10.000000 
10.000000 
10.000000 
10.000000 
10.000000 
10.000000 
10.000000 
10.000000 
10.000000 
10.000000 
10.000000 
10.000000 
10.000000 
10.000000 
10.000000 
10.000000 
10.000000 
10.000000 
10.000000 
10.000000 
10.000000 
10.000000 
10.000000 
10.000000 
10.000000 
10.000000 
10.000000 
10.000000 
10.000000 
10.000000 
10.000000 
10.000000 
10.000000 
10.000000 
10.000000 
10.000000 
10.000000 
10.000000 
10.000000 
10.000000 
10.000000 
10.000000 
10.000000 
10.000000 
10.000000 
10.000000 
10.000000 
10.000000 
10.000000 
10.000000 
SCALARS MASS float 
LOOKUP_TABLE default 
10.000000 
10.000000 
10.000000 
10.000000 
10.000000 
10.000000 
10.000000 
10.000000 
10.000000 
10.000000 
10.000000 
10.000000 
10.000000 
10.000000 
10.000000 
10.000000 
10.000000 
10.000000 
10.000000 
10.000000 
10.000000 
10.000000 
10.000000 
10.000000 
10.000000 
10.000000 
10.000000 
10.000000 
10.000000 
10.000000 
10.000000 
10.000000 
10.000000 
10.000000 
10.000000 
10.000000 
10.000000 
10.000000 
10.000000 
10.000000 
10.000000 
10.000000 
10.000000 
10.000000 
10.000000 
10.000000 
10.000000 
10.000000 
10.000000 
10.000000 
10.000000 
10.000000 
10.000000 
10.000000 
10.000000 
10.000000 
10.000000 
10.000000 
10.000000 
10.000000 
10.000000 
10.000000 
10.000000 
10.000000 
10.000000 
10.000000 
10.000000 
10.000000 
10.000000 
10.000000 
10.000000 
10.000000 
10.000000 
10.000000 
10.000000 
10.000000 
10.000000 
10.000000 
10.000000 
10.000000 
10.000000 
10.000000 
10.000000 
10.000000 
10.000000 
10.000000 
10.000000 
10.000000 
10.000000 
10.000000 
10.000000 
10.000000 
10.000000 
10.000000 
10.000000 
10.000000 
10.000000 
10.000000 
10.000000 
10.000000 
SCALARS DENSITY float 
LOOKUP_TABLE default 
1646.143707 
971.163843 
1005.181680 
1008.108009 
999.999842 
1000.081464 
1000.106809 
1000.001006 
1000.000452 
1000.000583 
1633.239593 
967.915104 
1004.342625 
1007.961747 
999.982082 
1000.071318 
1000.103853 
1000.000883 
1000.000409 
1000.000573 
1633.576661 
967.709541 
1004.366356 
1007.985533 
999.995970 
1000.073741 
1000.106277 
1000.000925 
1000.000423 
1000.000586 
1724.007932 
990.568083 
1010.231482 
1008.745044 
1000.096591 
1000.128015 
1000.119667 
1000.001874 
1000.000712 
1000.000658 
1667.459150 
976.018391 
1006.657283 
1008.351764 
1000.095821 
1000.105851 
1000.121188 
1000.001386 
1000.000568 
1000.000673 
1667.459150 
976.018391 
1006.657283 
1008.351764 
1000.095821 
1000.105851 
1000.121188 
1000.001386 
1000.000568 
1000.000673 
1724.007932 
990.568083 
1010.231482 
1008.745044 
1000.096591 
1000.128015 
1000.119667 
1000.001874 
1000.000712 
1000.000658 
1633.576661 
967.709541 
1004.366356 
1007.985533 
999.995970 
1000.073741 
1000.106277 
1000.000925 
1000.000423 
1000.000586 
1633.239593 
967.915104 
1004.342625 
1007.961747 
999.982082 
1000.071318 
1000.103853 
1000.000883 
1000.000409 
1000.000573 
1646.143707 
971.163843 
1005.181680 
1008.108009 
999.999842 
1000.081464 
1000.106809 
1000.001006 
1000.000452 
1000.000583 
SCALARS ELEM_i float 
LOOKUP_TABLE default 
81 
82 
83 
83 
84 
85 
85 
86 
87 
87 
108 
109 
110 
110 
111 
112 
112 
113 
114 
114 
108 
109 
110 
110 
111 
112 
112 
113 
114 
114 
135 
136 
137 
137 
138 
139 
139 
140 
141 
141 
162 
163 
164 
164 
165 
166 
166 
167 
168 
168 
162 
163 
164 
164 
165 
166 
166 
167 
168 
168 
189 
190 
191 
191 
192 
193 
193 
194 
195 
195 
216 
217 
218 
218 
219 
220 
220 
221 
222 
222 
216 
217 
218 
218 
219 
220 
220 
221 
222 
222 
243 
244 
245 
245 
246 
247 
247 
248 
249 
249 
VECTORS VELOCITY float 
4.529213 -8.567224 0.000000 
1.695333 -4.929802 0.000000 
-0.112851 -7.247382 0.000000 
0.088427 -6.803840 0.000000 
0.052661 -6.828881 0.000000 
0.000940 -6.902376 0.000000 
0.001534 -6.899440 0.000000 
0.000689 -6.900356 0.000000 
0.000012 -6.901329 0.000000 
0.000012 -6.901319 0.000000 
1.268998 -8.632014 0.000000 
0.487153 -4.987247 0.000000 
-0.014157 -7.290953 0.000000 
0.034445 -6.823107 0.000000 
0.018473 -6.835655 0.000000 
0.000388 -6.902605 0.000000 
0.000535 -6.899603 0.000000 
0.000237 -6.900422 0.000000 
0.000005 -6.901331 0.000000 
0.000004 -6.901320 0.000000 
-1.332111 -8.678073 0.000000 
-0.407898 -4.968843 0.000000 
0.150546 -7.264696 0.000000 
0.005852 -6.810512 0.000000 
-0.007209 -6.831160 0.000000 
0.000388 -6.902584 0.000000 
-0.000168 -6.899505 0.000000 
-0.000103 -6.900376 0.000000 
0.000001 -6.901330 0.000000 
-0.000002 -6.901319 0.000000 
0.228799 -8.732260 0.000000 
0.118266 -4.946814 0.000000 
0.033812 -7.232025 0.000000 
0.013585 -6.794288 0.000000 
0.004894 -6.825126 0.000000 
0.000593 -6.902326 0.000000 
0.000267 -6.899272 0.000000 
0.000095 -6.900278 0.000000 
0.000003 -6.901329 0.000000 
0.000002 -6.901318 0.000000 
1.365536 -8.773803 0.000000 
0.488261 -4.930008 0.000000 
-0.065336 -7.207031 0.000000 
0.016622 -6.781800 0.000000 
0.013204 -6.820449 0.000000 
0.000506 -6.902096 0.000000 
0.000509 -6.899078 0.000000 
0.000216 -6.900197 0.000000 
0.000003 -6.901328 0.000000 
0.000004 -6.901317 0.000000 
-1.365536 -8.773803 0.000000 
-0.488261 -4.930008 0.000000 
0.065336 -7.207031 0.000000 
-0.016622 -6.781800 0.000000 
-0.013204 -6.820449 0.000000 
-0.000506 -6.902096 0.000000 
-0.000509 -6.899078 0.000000 
-0.000216 -6.900197 0.000000 
-0.000003 -6.901328 0.000000 
-0.000004 -6.901317 0.000000 
-0.228799 -8.732260 0.000000 
-0.118266 -4.946814 0.000000 
-0.033812 -7.232025 0.000000 
-0.013585 -6.794288 0.000000 
-0.004894 -6.825126 0.000000 
-0.000593 -6.902326 0.000000 
-0.000267 -6.899272 0.000000 
-0.000095 -6.900278 0.000000 
-0.000003 -6.901329 0.000000 
-0.000002 -6.901318 0.000000 
1.332111 -8.678073 0.000000 
0.407898 -4.968843 0.000000 
-0.150546 -7.264696 0.000000 
-0.005852 -6.810512 0.000000 
0.007209 -6.831160 0.000000 
-0.000388 -6.902584 0.000000 
0.000168 -6.899505 0.000000 
0.000103 -6.900376 0.000000 
-0.000001 -6.901330 0.000000 
0.000002 -6.901319 0.000000 
-1.268998 -8.632014 0.000000 
-0.487153 -4.987247 0.000000 
0.014157 -7.290953 0.000000 
-0.034445 -6.823107 0.000000 
-0.018473 -6.835655 0.000000 
-0.000388 -6.902605 0.000000 
-0.000535 -6.899603 0.000000 
-0.000237 -6.900422 0.000000 
-0.000005 -6.901331 0.000000 
-0.000004 -6.901320 0.000000 
-4.529213 -8.567224 0.000000 
-1.695333 -4.929802 0.000000 
0.112851 -7.247382 0.000000 
-0.088427 -6.803840 0.000000 
-0.052661 -6.828881 0.000000 
-0.000940 -6.902376 0.000000 
-0.001534 -6.899440 0.000000 
-0.000689 -6.900356 0.000000 
-0.000012 -6.901329 0.000000 
-0.000012 -6.901319 0.000000 
TENSORS STRESS float 
-2816.989954 -23.048079 0.000000 
0.000000 -3572.152784 0.000000 
0.000000 0.000000 0.000000 

553.815349 -117.043547 0.000000 
0.000000 561.546768 0.000000 
0.000000 0.000000 0.000000 

-69.115226 -22.255627 0.000000 
0.000000 -112.079834 0.000000 
0.000000 0.000000 0.000000 

-125.879350 -22.730480 0.000000 
0.000000 -158.360989 0.000000 
0.000000 0.000000 0.000000 

0.377201 -0.582295 0.000000 
0.000000 -0.236042 0.000000 
0.000000 0.000000 0.000000 

-1.681776 -0.302962 0.000000 
0.000000 -2.387486 0.000000 
0.000000 0.000000 0.000000 

-2.376240 -0.323909 0.000000 
0.000000 -2.955658 0.000000 
0.000000 0.000000 0.000000 

-0.024341 -0.007175 0.000000 
0.000000 -0.036416 0.000000 
0.000000 0.000000 0.000000 

-0.011446 -0.001922 0.000000 
0.000000 -0.016001 0.000000 
0.000000 0.000000 0.000000 

-0.015813 -0.002020 0.000000 
0.000000 -0.019574 0.000000 
0.000000 0.000000 0.000000 

-2756.340085 -10.979570 0.000000 
0.000000 -3532.664908 0.000000 
0.000000 0.000000 0.000000 

624.981016 -58.722082 0.000000 
0.000000 619.603740 0.000000 
0.000000 0.000000 0.000000 

-53.936913 -12.226228 0.000000 
0.000000 -99.121104 0.000000 
0.000000 0.000000 0.000000 

-122.800136 -12.067489 0.000000 
0.000000 -155.266420 0.000000 
0.000000 0.000000 0.000000 

0.790617 -0.596029 0.000000 
0.000000 0.211107 0.000000 
0.000000 0.000000 0.000000 

-1.412214 -0.203917 0.000000 
0.000000 -2.149894 0.000000 
0.000000 0.000000 0.000000 

-2.302198 -0.191418 0.000000 
0.000000 -2.878030 0.000000 
0.000000 0.000000 0.000000 

-0.020465 -0.004948 0.000000 
0.000000 -0.032839 0.000000 
0.000000 0.000000 0.000000 

-0.010058 -0.001268 0.000000 
0.000000 -0.014802 0.000000 
0.000000 0.000000 0.000000 

-0.015508 -0.001184 0.000000 
0.000000 -0.019260 0.000000 
0.000000 0.000000 0.000000 

-2758.210760 2.580828 0.000000 
0.000000 -3534.921158 0.000000 
0.000000 0.000000 0.000000 

630.096894 9.358056 0.000000 
0.000000 625.831478 0.000000 
0.000000 0.000000 0.000000 

-54.431498 0.388049 0.000000 
0.000000 -99.723415 0.000000 
0.000000 0.000000 0.000000 

-123.289342 0.498064 0.000000 
0.000000 -155.863552 0.000000 
0.000000 0.000000 0.000000 

0.467730 -0.453075 0.000000 
0.000000 -0.183518 0.000000 
0.000000 0.000000 0.000000 

-1.468422 -0.042085 0.000000 
0.000000 -2.218590 0.000000 
0.000000 0.000000 0.000000 

-2.358401 -0.029592 0.000000 
0.000000 -2.946722 0.000000 
0.000000 0.000000 0.000000 

-0.021640 -0.001742 0.000000 
0.000000 -0.034275 0.000000 
0.000000 0.000000 0.000000 

-0.010436 -0.000277 0.000000 
0.000000 -0.015263 0.000000 
0.000000 0.000000 0.000000 

-0.015885 -0.000193 0.000000 
0.000000 -0.019722 0.000000 
0.000000 0.000000 0.000000 

-3163.733492 0.038441 0.000000 
0.000000 -3800.290017 0.000000 
0.000000 0.000000 0.000000 

125.220457 -2.178636 0.000000 
0.000000 212.212954 0.000000 
0.000000 0.000000 0.000000 

-167.402789 -1.722437 0.000000 
0.000000 -192.298921 0.000000 
0.000000 0.000000 0.000000 

-140.209023 -1.434459 0.000000 
0.000000 -170.131063 0.000000 
0.000000 0.000000 0.000000 

-2.071565 -0.444761 0.000000 
0.000000 -2.630668 0.000000 
0.000000 0.000000 0.000000 

-2.941589 -0.077551 0.000000 
0.000000 -3.487052 0.000000 
0.000000 0.000000 0.000000 

-2.715739 -0.037491 0.000000 
0.000000 -3.302275 0.000000 
0.000000 0.000000 0.000000 

-0.052202 -0.002930 0.000000 
0.000000 -0.061367 0.000000 
0.000000 0.000000 0.000000 

-0.019856 -0.000601 0.000000 
0.000000 -0.023449 0.000000 
0.000000 0.000000 0.000000 

-0.018069 -0.000296 0.000000 
0.000000 -0.021986 0.000000 
0.000000 0.000000 0.000000 

-2918.581905 -3.027391 0.000000 
0.000000 -3641.233431 0.000000 
0.000000 0.000000 0.000000 

444.424466 -15.411487 0.000000 
0.000000 476.521042 0.000000 
0.000000 0.000000 0.000000 

-98.446142 -3.013399 0.000000 
0.000000 -136.463967 0.000000 
0.000000 0.000000 0.000000 

-131.344403 -3.008377 0.000000 
0.000000 -163.286760 0.000000 
0.000000 0.000000 0.000000 

-1.912767 -0.071294 0.000000 
0.000000 -2.812468 0.000000 
0.000000 0.000000 0.000000 

-2.291548 -0.038587 0.000000 
0.000000 -3.008454 0.000000 
0.000000 0.000000 0.000000 

-2.715951 -0.038586 0.000000 
0.000000 -3.355675 0.000000 
0.000000 0.000000 0.000000 

-0.034876 -0.001502 0.000000 
0.000000 -0.048995 0.000000 
0.000000 0.000000 0.000000 

-0.014825 -0.000319 0.000000 
0.000000 -0.019738 0.000000 
0.000000 0.000000 0.000000 

-0.018333 -0.000319 0.000000 
0.000000 -0.022609 0.000000 
0.000000 0.000000 0.000000 

-2918.581905 3.027391 0.000000 
0.000000 -3641.233431 0.000000 
0.000000 0.000000 0.000000 

444.424466 15.411487 0.000000 
0.000000 476.521042 0.000000 
0.000000 0.000000 0.000000 

-98.446142 3.013399 0.000000 
0.000000 -136.463967 0.000000 
0.000000 0.000000 0.000000 

-131.344403 3.008377 0.000000 
0.000000 -163.286760 0.000000 
0.000000 0.000000 0.000000 

-1.912767 0.071294 0.000000 
0.000000 -2.812468 0.000000 
0.000000 0.000000 0.000000 

-2.291548 0.038587 0.000000 
0.000000 -3.008454 0.000000 
0.000000 0.000000 0.000000 

-2.715951 0.038586 0.000000 
0.000000 -3.355675 0.000000 
0.000000 0.000000 0.000000 

-0.034876 0.001502 0.000000 
0.000000 -0.048995 0.000000 
0.000000 0.000000 0.000000 

-0.014825 0.000319 0.000000 
0.000000 -0.019738 0.000000 
0.000000 0.000000 0.000000 

-0.018333 0.000319 0.000000 
0.000000 -0.022609 0.000000 
0.000000 0.000000 0.000000 

-3163.733492 -0.038441 0.000000 
0.000000 -3800.290017 0.000000 
0.000000 0.000000 0.000000 

125.220457 2.178636 0.000000 
0.000000 212.212954 0.000000 
0.000000 0.000000 0.000000 

-167.402789 1.722437 0.000000 
0.000000 -192.298921 0.000000 
0.000000 0.000000 0.000000 

-140.209023 1.434459 0.000000 
0.000000 -170.131063 0.000000 
0.000000 0.000000 0.000000 

-2.071565 0.444761 0.000000 
0.000000 -2.630668 0.000000 
0.000000 0.000000 0.000000 

-2.941589 0.077551 0.000000 
0.000000 -3.487052 0.000000 
0.000000 0.000000 0.000000 

-2.715739 0.037491 0.000000 
0.000000 -3.302275 0.000000 
0.000000 0.000000 0.000000 

-0.052202 0.002930 0.000000 
0.000000 -0.061367 0.000000 
0.000000 0.000000 0.000000 

-0.019856 0.000601 0.000000 
0.000000 -0.023449 0.000000 
0.000000 0.000000 0.000000 

-0.018069 0.000296 0.000000 
0.000000 -0.021986 0.000000 
0.000000 0.000000 0.000000 

-2758.210760 -2.580828 0.000000 
0.000000 -3534.921158 0.000000 
0.000000 0.000000 0.000000 

630.096894 -9.358056 0.000000 
0.000000 625.831478 0.000000 
0.000000 0.000000 0.000000 

-54.431498 -0.388049 0.000000 
0.000000 -99.723415 0.000000 
0.000000 0.000000 0.000000 

-123.289342 -0.498064 0.000000 
0.000000 -155.863552 0.000000 
0.000000 0.000000 0.000000 

0.467730 0.453075 0.000000 
0.000000 -0.183518 0.000000 
0.000000 0.000000 0.000000 

-1.468422 0.042085 0.000000 
0.000000 -2.218590 0.000000 
0.000000 0.000000 0.000000 

-2.358401 0.029592 0.000000 
0.000000 -2.946722 0.000000 
0.000000 0.000000 0.000000 

-0.021640 0.001742 0.000000 
0.000000 -0.034275 0.000000 
0.000000 0.000000 0.000000 

-0.010436 0.000277 0.000000 
0.000000 -0.015263 0.000000 
0.000000 0.000000 0.000000 

-0.015885 0.000193 0.000000 
0.000000 -0.019722 0.000000 
0.000000 0.000000 0.000000 

-2756.340085 10.979570 0.000000 
0.000000 -3532.664908 0.000000 
0.000000 0.000000 0.000000 

624.981016 58.722082 0.000000 
0.000000 619.603740 0.000000 
0.000000 0.000000 0.000000 

-53.936913 12.226228 0.000000 
0.000000 -99.121104 0.000000 
0.000000 0.000000 0.000000 

-122.800136 12.067489 0.000000 
0.000000 -155.266420 0.000000 
0.000000 0.000000 0.000000 

0.790617 0.596029 0.000000 
0.000000 0.211107 0.000000 
0.000000 0.000000 0.000000 

-1.412214 0.203917 0.000000 
0.000000 -2.149894 0.000000 
0.000000 0.000000 0.000000 

-2.302198 0.191418 0.000000 
0.000000 -2.878030 0.000000 
0.000000 0.000000 0.000000 

-0.020465 0.004948 0.000000 
0.000000 -0.032839 0.000000 
0.000000 0.000000 0.000000 

-0.010058 0.001268 0.000000 
0.000000 -0.014802 0.000000 
0.000000 0.000000 0.000000 

-0.015508 0.001184 0.000000 
0.000000 -0.019260 0.000000 
0.000000 0.000000 0.000000 

-2816.989954 23.048079 0.000000 
0.000000 -3572.152784 0.000000 
0.000000 0.000000 0.000000 

553.815349 117.043547 0.000000 
0.000000 561.546768 0.000000 
0.000000 0.000000 0.000000 

-69.115226 22.255627 0.000000 
0.000000 -112.079834 0.000000 
0.000000 0.000000 0.000000 

-125.879350 22.730480 0.000000 
0.000000 -158.360989 0.000000 
0.000000 0.000000 0.000000 

0.377201 0.582295 0.000000 
0.000000 -0.236042 0.000000 
0.000000 0.000000 0.000000 

-1.681776 0.302962 0.000000 
0.000000 -2.387486 0.000000 
0.000000 0.000000 0.000000 

-2.376240 0.323909 0.000000 
0.000000 -2.955658 0.000000 
0.000000 0.000000 0.000000 

-0.024341 0.007175 0.000000 
0.000000 -0.036416 0.000000 
0.000000 0.000000 0.000000 

-0.011446 0.001922 0.000000 
0.000000 -0.016001 0.000000 
0.000000 0.000000 0.000000 

-0.015813 0.002020 0.000000 
0.000000 -0.019574 0.000000 
0.000000 0.000000 0.000000 

TENSORS STRAIN float 
0.013874 -0.005501 0.000000 
0.000000 -0.166377 0.000000 
0.000000 0.000000 0.000000 

0.007309 -0.016482 0.000000 
0.000000 0.008398 0.000000 
0.000000 0.000000 0.000000 

0.001811 -0.003244 0.000000 
0.000000 -0.004452 0.000000 
0.000000 0.000000 0.000000 

0.000297 -0.003323 0.000000 
0.000000 -0.004451 0.000000 
0.000000 0.000000 0.000000 

0.000045 -0.000084 0.000000 
0.000000 -0.000043 0.000000 
0.000000 0.000000 0.000000 

0.000022 -0.000044 0.000000 
0.000000 -0.000081 0.000000 
0.000000 0.000000 0.000000 

0.000003 -0.000047 0.000000 
0.000000 -0.000081 0.000000 
0.000000 0.000000 0.000000 

0.000000 -0.000001 0.000000 
0.000000 -0.000001 0.000000 
0.000000 0.000000 0.000000 

0.000000 -0.000000 0.000000 
0.000000 -0.000001 0.000000 
0.000000 0.000000 0.000000 

0.000000 -0.000000 0.000000 
0.000000 -0.000001 0.000000 
0.000000 0.000000 0.000000 

0.017456 -0.002600 0.000000 
0.000000 -0.166393 0.000000 
0.000000 0.000000 0.000000 

0.009111 -0.008242 0.000000 
0.000000 0.008356 0.000000 
0.000000 0.000000 0.000000 

0.002176 -0.001781 0.000000 
0.000000 -0.004405 0.000000 
0.000000 0.000000 0.000000 

0.000341 -0.001764 0.000000 
0.000000 -0.004405 0.000000 
0.000000 0.000000 0.000000 

0.000049 -0.000086 0.000000 
0.000000 -0.000035 0.000000 
0.000000 0.000000 0.000000 

0.000028 -0.000030 0.000000 
0.000000 -0.000079 0.000000 
0.000000 0.000000 0.000000 

0.000004 -0.000028 0.000000 
0.000000 -0.000079 0.000000 
0.000000 0.000000 0.000000 

0.000001 -0.000001 0.000000 
0.000000 -0.000001 0.000000 
0.000000 0.000000 0.000000 

0.000000 -0.000000 0.000000 
0.000000 -0.000001 0.000000 
0.000000 0.000000 0.000000 

0.000000 -0.000000 0.000000 
0.000000 -0.000001 0.000000 
0.000000 0.000000 0.000000 

0.017457 0.000611 0.000000 
0.000000 -0.166521 0.000000 
0.000000 0.000000 0.000000 

0.009111 0.001313 0.000000 
0.000000 0.008512 0.000000 
0.000000 0.000000 0.000000 

0.002175 0.000057 0.000000 
0.000000 -0.004421 0.000000 
0.000000 0.000000 0.000000 

0.000340 0.000073 0.000000 
0.000000 -0.004421 0.000000 
0.000000 0.000000 0.000000 

0.000049 -0.000066 0.000000 
0.000000 -0.000045 0.000000 
0.000000 0.000000 0.000000 

0.000028 -0.000006 0.000000 
0.000000 -0.000081 0.000000 
0.000000 0.000000 0.000000 

0.000004 -0.000004 0.000000 
0.000000 -0.000081 0.000000 
0.000000 0.000000 0.000000 

0.000001 -0.000000 0.000000 
0.000000 -0.000001 0.000000 
0.000000 0.000000 0.000000 

0.000000 -0.000000 0.000000 
0.000000 -0.000001 0.000000 
0.000000 0.000000 0.000000 

0.000000 -0.000000 0.000000 
0.000000 -0.000001 0.000000 
0.000000 0.000000 0.000000 

-0.007480 0.000010 0.000000 
0.000000 -0.166607 0.000000 
0.000000 0.000000 0.000000 

-0.003824 -0.000313 0.000000 
0.000000 0.008671 0.000000 
0.000000 0.000000 0.000000 

-0.000811 -0.000252 0.000000 
0.000000 -0.004458 0.000000 
0.000000 0.000000 0.000000 

-0.000081 -0.000210 0.000000 
0.000000 -0.004458 0.000000 
0.000000 0.000000 0.000000 

0.000006 -0.000064 0.000000 
0.000000 -0.000075 0.000000 
0.000000 0.000000 0.000000 

-0.000007 -0.000011 0.000000 
0.000000 -0.000086 0.000000 
0.000000 0.000000 0.000000 

-0.000001 -0.000005 0.000000 
0.000000 -0.000086 0.000000 
0.000000 0.000000 0.000000 

-0.000000 -0.000000 0.000000 
0.000000 -0.000001 0.000000 
0.000000 0.000000 0.000000 

-0.000000 -0.000000 0.000000 
0.000000 -0.000001 0.000000 
0.000000 0.000000 0.000000 

-0.000000 -0.000000 0.000000 
0.000000 -0.000001 0.000000 
0.000000 0.000000 0.000000 

0.008060 -0.000732 0.000000 
0.000000 -0.166664 0.000000 
0.000000 0.000000 0.000000 

0.004246 -0.002181 0.000000 
0.000000 0.008788 0.000000 
0.000000 0.000000 0.000000 

0.001060 -0.000440 0.000000 
0.000000 -0.004489 0.000000 
0.000000 0.000000 0.000000 

0.000181 -0.000440 0.000000 
0.000000 -0.004489 0.000000 
0.000000 0.000000 0.000000 

0.000031 -0.000010 0.000000 
0.000000 -0.000099 0.000000 
0.000000 0.000000 0.000000 

0.000014 -0.000006 0.000000 
0.000000 -0.000090 0.000000 
0.000000 0.000000 0.000000 

0.000002 -0.000006 0.000000 