# vtk DataFile Version 3.0 
vtk output 
ASCII 
DATASET UNSTRUCTURED_GRID 
POINTS 100 float 
0.467237 -2.894819 0.000000 
0.458219 -2.795637 0.000000 
0.450900 -2.699500 0.000000 
0.450674 -2.598805 0.000000 
0.450388 -2.498854 0.000000 
0.450095 -2.399218 0.000000 
0.450046 -2.299269 0.000000 
0.450018 -2.199303 0.000000 
0.450003 -2.099327 0.000000 
0.450002 -1.999329 0.000000 
0.357661 -2.895136 0.000000 
0.353953 -2.796000 0.000000 
0.350806 -2.699788 0.000000 
0.350440 -2.598921 0.000000 
0.350215 -2.498890 0.000000 
0.350056 -2.399223 0.000000 
0.350024 -2.299272 0.000000 
0.350009 -2.199305 0.000000 
0.350002 -2.099327 0.000000 
0.350001 -1.999329 0.000000 
0.248424 -2.895481 0.000000 
0.250074 -2.796143 0.000000 
0.251006 -2.699605 0.000000 
0.250320 -2.598834 0.000000 
0.250072 -2.498859 0.000000 
0.250020 -2.399219 0.000000 
0.250005 -2.299269 0.000000 
0.250001 -2.199303 0.000000 
0.250000 -2.099327 0.000000 
0.250000 -1.999329 0.000000 
0.150921 -2.895745 0.000000 
0.150676 -2.796178 0.000000 
0.150396 -2.699314 0.000000 
0.150194 -2.598674 0.000000 
0.150082 -2.498788 0.000000 
0.150021 -2.399205 0.000000 
0.150009 -2.299261 0.000000 
0.150003 -2.199300 0.000000 
0.150001 -2.099326 0.000000 
0.150000 -1.999329 0.000000 
0.053118 -2.895932 0.000000 
0.051234 -2.796186 0.000000 
0.049874 -2.699081 0.000000 
0.050065 -2.598545 0.000000 
0.050076 -2.498730 0.000000 
0.050019 -2.399193 0.000000 
0.050011 -2.299255 0.000000 
0.050005 -2.199297 0.000000 
0.050001 -2.099326 0.000000 
0.050000 -1.999329 0.000000 
-0.053118 -2.895932 0.000000 
-0.051234 -2.796186 0.000000 
-0.049874 -2.699081 0.000000 
-0.050065 -2.598545 0.000000 
-0.050076 -2.498730 0.000000 
-0.050019 -2.399193 0.000000 
-0.050011 -2.299255 0.000000 
-0.050005 -2.199297 0.000000 
-0.050001 -2.099326 0.000000 
-0.050000 -1.999329 0.000000 
-0.150921 -2.895745 0.000000 
-0.150676 -2.796178 0.000000 
-0.150396 -2.699314 0.000000 
-0.150194 -2.598674 0.000000 
-0.150082 -2.498788 0.000000 
-0.150021 -2.399205 0.000000 
-0.150009 -2.299261 0.000000 
-0.150003 -2.199300 0.000000 
-0.150001 -2.099326 0.000000 
-0.150000 -1.999329 0.000000 
-0.248424 -2.895481 0.000000 
-0.250074 -2.796143 0.000000 
-0.251006 -2.699605 0.000000 
-0.250320 -2.598834 0.000000 
-0.250072 -2.498859 0.000000 
-0.250020 -2.399219 0.000000 
-0.250005 -2.299269 0.000000 
-0.250001 -2.199303 0.000000 
-0.250000 -2.099327 0.000000 
-0.250000 -1.999329 0.000000 
-0.357661 -2.895136 0.000000 
-0.353953 -2.796000 0.000000 
-0.350806 -2.699788 0.000000 
-0.350440 -2.598921 0.000000 
-0.350215 -2.498890 0.000000 
-0.350056 -2.399223 0.000000 
-0.350024 -2.299272 0.000000 
-0.350009 -2.199305 0.000000 
-0.350002 -2.099327 0.000000 
-0.350001 -1.999329 0.000000 
-0.467237 -2.894819 0.000000 
-0.458219 -2.795637 0.000000 
-0.450900 -2.699500 0.000000 
-0.450674 -2.598805 0.000000 
-0.450388 -2.498854 0.000000 
-0.450095 -2.399218 0.000000 
-0.450046 -2.299269 0.000000 
-0.450018 -2.199303 0.000000 
-0.450003 -2.099327 0.000000 
-0.450002 -1.999329 0.000000 
CELLS 100 200 
1 0 
1 1 
1 2 
1 3 
1 4 
1 5 
1 6 
1 7 
1 8 
1 9 
1 10 
1 11 
1 12 
1 13 
1 14 
1 15 
1 16 
1 17 
1 18 
1 19 
1 20 
1 21 
1 22 
1 23 
1 24 
1 25 
1 26 
1 27 
1 28 
1 29 
1 30 
1 31 
1 32 
1 33 
1 34 
1 35 
1 36 
1 37 
1 38 
1 39 
1 40 
1 41 
1 42 
1 43 
1 44 
1 45 
1 46 
1 47 
1 48 
1 49 
1 50 
1 51 
1 52 
1 53 
1 54 
1 55 
1 56 
1 57 
1 58 
1 59 
1 60 
1 61 
1 62 
1 63 
1 64 
1 65 
1 66 
1 67 
1 68 
1 69 
1 70 
1 71 
1 72 
1 73 
1 74 
1 75 
1 76 
1 77 
1 78 
1 79 
1 80 
1 81 
1 82 
1 83 
1 84 
1 85 
1 86 
1 87 
1 88 
1 89 
1 90 
1 91 
1 92 
1 93 
1 94 
1 95 
1 96 
1 97 
1 98 
1 99 
CELL_TYPES 100 
1 
1 
1 
1 
1 
1 
1 
1 
1 
1 
1 
1 
1 
1 
1 
1 
1 
1 
1 
1 
1 
1 
1 
1 
1 
1 
1 
1 
1 
1 
1 
1 
1 
1 
1 
1 
1 
1 
1 
1 
1 
1 
1 
1 
1 
1 
1 
1 
1 
1 
1 
1 
1 
1 
1 
1 
1 
1 
1 
1 
1 
1 
1 
1 
1 
1 
1 
1 
1 
1 
1 
1 
1 
1 
1 
1 
1 
1 
1 
1 
1 
1 
1 
1 
1 
1 
1 
1 
1 
1 
1 
1 
1 
1 
1 
1 
1 
1 
1 
1 
POINT_DATA 100 
VECTORS X_GC float 
0.467237 -2.894819 0.000000 
0.458219 -2.795637 0.000000 
0.450900 -2.699500 0.000000 
0.450674 -2.598805 0.000000 
0.450388 -2.498854 0.000000 
0.450095 -2.399218 0.000000 
0.450046 -2.299269 0.000000 
0.450018 -2.199303 0.000000 
0.450003 -2.099327 0.000000 
0.450002 -1.999329 0.000000 
0.357661 -2.895136 0.000000 
0.353953 -2.796000 0.000000 
0.350806 -2.699788 0.000000 
0.350440 -2.598921 0.000000 
0.350215 -2.498890 0.000000 
0.350056 -2.399223 0.000000 
0.350024 -2.299272 0.000000 
0.350009 -2.199305 0.000000 
0.350002 -2.099327 0.000000 
0.350001 -1.999329 0.000000 
0.248424 -2.895481 0.000000 
0.250074 -2.796143 0.000000 
0.251006 -2.699605 0.000000 
0.250320 -2.598834 0.000000 
0.250072 -2.498859 0.000000 
0.250020 -2.399219 0.000000 
0.250005 -2.299269 0.000000 
0.250001 -2.199303 0.000000 
0.250000 -2.099327 0.000000 
0.250000 -1.999329 0.000000 
0.150921 -2.895745 0.000000 
0.150676 -2.796178 0.000000 
0.150396 -2.699314 0.000000 
0.150194 -2.598674 0.000000 
0.150082 -2.498788 0.000000 
0.150021 -2.399205 0.000000 
0.150009 -2.299261 0.000000 
0.150003 -2.199300 0.000000 
0.150001 -2.099326 0.000000 
0.150000 -1.999329 0.000000 
0.053118 -2.895932 0.000000 
0.051234 -2.796186 0.000000 
0.049874 -2.699081 0.000000 
0.050065 -2.598545 0.000000 
0.050076 -2.498730 0.000000 
0.050019 -2.399193 0.000000 
0.050011 -2.299255 0.000000 
0.050005 -2.199297 0.000000 
0.050001 -2.099326 0.000000 
0.050000 -1.999329 0.000000 
-0.053118 -2.895932 0.000000 
-0.051234 -2.796186 0.000000 
-0.049874 -2.699081 0.000000 
-0.050065 -2.598545 0.000000 
-0.050076 -2.498730 0.000000 
-0.050019 -2.399193 0.000000 
-0.050011 -2.299255 0.000000 
-0.050005 -2.199297 0.000000 
-0.050001 -2.099326 0.000000 
-0.050000 -1.999329 0.000000 
-0.150921 -2.895745 0.000000 
-0.150676 -2.796178 0.000000 
-0.150396 -2.699314 0.000000 
-0.150194 -2.598674 0.000000 
-0.150082 -2.498788 0.000000 
-0.150021 -2.399205 0.000000 
-0.150009 -2.299261 0.000000 
-0.150003 -2.199300 0.000000 
-0.150001 -2.099326 0.000000 
-0.150000 -1.999329 0.000000 
-0.248424 -2.895481 0.000000 
-0.250074 -2.796143 0.000000 
-0.251006 -2.699605 0.000000 
-0.250320 -2.598834 0.000000 
-0.250072 -2.498859 0.000000 
-0.250020 -2.399219 0.000000 
-0.250005 -2.299269 0.000000 
-0.250001 -2.199303 0.000000 
-0.250000 -2.099327 0.000000 
-0.250000 -1.999329 0.000000 
-0.357661 -2.895136 0.000000 
-0.353953 -2.796000 0.000000 
-0.350806 -2.699788 0.000000 
-0.350440 -2.598921 0.000000 
-0.350215 -2.498890 0.000000 
-0.350056 -2.399223 0.000000 
-0.350024 -2.299272 0.000000 
-0.350009 -2.199305 0.000000 
-0.350002 -2.099327 0.000000 
-0.350001 -1.999329 0.000000 
-0.467237 -2.894819 0.000000 
-0.458219 -2.795637 0.000000 
-0.450900 -2.699500 0.000000 
-0.450674 -2.598805 0.000000 
-0.450388 -2.498854 0.000000 
-0.450095 -2.399218 0.000000 
-0.450046 -2.299269 0.000000 
-0.450018 -2.199303 0.000000 
-0.450003 -2.099327 0.000000 
-0.450002 -1.999329 0.000000 
VECTORS X_EC float 
-0.074084 -0.419948 0.000000 
0.043149 0.241106 0.000000 
0.138298 0.943246 0.000000 
0.141244 -0.416138 0.000000 
0.144955 0.234530 0.000000 
0.148759 0.889437 0.000000 
0.149404 -0.459869 0.000000 
0.149760 0.190597 0.000000 
0.149958 0.840914 0.000000 
0.149979 -0.509054 0.000000 
-0.649594 -0.415670 0.000000 
-0.601390 0.245996 0.000000 
-0.560472 0.947132 0.000000 
-0.555714 -0.414562 0.000000 
-0.552793 0.235015 0.000000 
-0.550729 0.889510 0.000000 
-0.550313 -0.459832 0.000000 
-0.550115 0.190612 0.000000 
-0.550023 0.840915 0.000000 
-0.550010 -0.509054 0.000000 
0.770491 -0.411002 0.000000 
0.749042 0.247936 0.000000 
0.736924 0.944670 0.000000 
0.745834 -0.415736 0.000000 
0.749070 0.234590 0.000000 
0.749744 0.889462 0.000000 
0.749930 -0.459869 0.000000 
0.749988 0.190592 0.000000 
0.749994 0.840913 0.000000 
0.749999 -0.509055 0.000000 
0.038021 -0.407442 0.000000 
0.041215 0.248405 0.000000 
0.044857 0.940732 0.000000 
0.047479 -0.417896 0.000000 
0.048930 0.233642 0.000000 
0.049724 0.889268 0.000000 
0.049878 -0.459970 0.000000 
0.049956 0.190549 0.000000 
0.049992 0.840906 0.000000 
0.049996 -0.509059 0.000000 
-0.690532 -0.404912 0.000000 
-0.666039 0.248508 0.000000 
-0.648359 0.937596 0.000000 
-0.650850 -0.419647 0.000000 
-0.650989 0.232857 0.000000 
-0.650245 0.889100 0.000000 
-0.650137 -0.460056 0.000000 
-0.650059 0.190513 0.000000 
-0.650008 0.840901 0.000000 
-0.650005 -0.509062 0.000000 
0.690532 -0.404912 0.000000 
0.666039 0.248508 0.000000 
0.648359 0.937596 0.000000 
0.650850 -0.419647 0.000000 
0.650989 0.232857 0.000000 
0.650245 0.889100 0.000000 
0.650137 -0.460056 0.000000 
0.650059 0.190513 0.000000 
0.650008 0.840901 0.000000 
0.650005 -0.509062 0.000000 
-0.038021 -0.407442 0.000000 
-0.041215 0.248405 0.000000 
-0.044857 0.940732 0.000000 
-0.047479 -0.417896 0.000000 
-0.048930 0.233642 0.000000 
-0.049724 0.889268 0.000000 
-0.049878 -0.459970 0.000000 
-0.049956 0.190549 0.000000 
-0.049992 0.840906 0.000000 
-0.049996 -0.509059 0.000000 
-0.770491 -0.411002 0.000000 
-0.749042 0.247936 0.000000 
-0.736924 0.944670 0.000000 
-0.745834 -0.415736 0.000000 
-0.749070 0.234590 0.000000 
-0.749744 0.889462 0.000000 
-0.749930 -0.459869 0.000000 
-0.749988 0.190592 0.000000 
-0.749994 0.840913 0.000000 
-0.749999 -0.509055 0.000000 
0.649594 -0.415670 0.000000 
0.601390 0.245996 0.000000 
0.560472 0.947132 0.000000 
0.555714 -0.414562 0.000000 
0.552793 0.235015 0.000000 
0.550729 0.889510 0.000000 
0.550313 -0.459832 0.000000 
0.550115 0.190612 0.000000 
0.550023 0.840915 0.000000 
0.550010 -0.509054 0.000000 
0.074084 -0.419948 0.000000 
-0.043149 0.241106 0.000000 
-0.138298 0.943246 0.000000 
-0.141244 -0.416138 0.000000 
-0.144955 0.234530 0.000000 
-0.148759 0.889437 0.000000 
-0.149404 -0.459869 0.000000 
-0.149760 0.190597 0.000000 
-0.149958 0.840914 0.000000 
-0.149979 -0.509054 0.000000 
CELL_DATA 100 
SCALARS MASS float 
LOOKUP_TABLE default 
10.000000 
10.000000 
10.000000 
10.000000 
10.000000 
10.000000 
10.000000 
10.000000 
10.000000 
10.000000 
10.000000 
10.000000 
10.000000 
10.000000 
10.000000 
10.000000 
10.000000 
10.000000 
10.000000 
10.000000 
10.000000 
10.000000 
10.000000 
10.000000 
10.000000 
10.000000 
10.000000 
10.000000 
10.000000 
10.000000 
10.000000 
10.000000 
10.000000 
10.000000 
10.000000 
10.000000 
10.000000 
10.000000 
10.000000 
10.000000 
10.000000 
10.000000 
10.000000 
10.000000 
10.000000 
10.000000 
10.000000 
10.000000 
10.000000 
10.000000 
10.000000 
10.000000 
10.000000 
10.000000 
10.000000 
10.000000 
10.000000 
10.000000 
10.000000 
10.000000 
10.000000 
10.000000 
10.000000 
10.000000 
10.000000 
10.000000 
10.000000 
10.000000 
10.000000 
10.000000 
10.000000 
10.000000 
10.000000 
10.000000 
10.000000 
10.000000 
10.000000 
10.000000 
10.000000 
10.000000 
10.000000 
10.000000 
10.000000 
10.000000 
10.000000 
10.000000 
10.000000 
10.000000 
10.000000 
10.000000 
10.000000 
10.000000 
10.000000 
10.000000 
10.000000 
10.000000 
10.000000 
10.000000 
10.000000 
10.000000 
SCALARS MASS float 
LOOKUP_TABLE default 
10.000000 
10.000000 
10.000000 
10.000000 
10.000000 
10.000000 
10.000000 
10.000000 
10.000000 
10.000000 
10.000000 
10.000000 
10.000000 
10.000000 
10.000000 
10.000000 
10.000000 
10.000000 
10.000000 
10.000000 
10.000000 
10.000000 
10.000000 
10.000000 
10.000000 
10.000000 
10.000000 
10.000000 
10.000000 
10.000000 
10.000000 
10.000000 
10.000000 
10.000000 
10.000000 
10.000000 
10.000000 
10.000000 
10.000000 
10.000000 
10.000000 
10.000000 
10.000000 
10.000000 
10.000000 
10.000000 
10.000000 
10.000000 
10.000000 
10.000000 
10.000000 
10.000000 
10.000000 
10.000000 
10.000000 
10.000000 
10.000000 
10.000000 
10.000000 
10.000000 
10.000000 
10.000000 
10.000000 
10.000000 
10.000000 
10.000000 
10.000000 
10.000000 
10.000000 
10.000000 
10.000000 
10.000000 
10.000000 
10.000000 
10.000000 
10.000000 
10.000000 
10.000000 
10.000000 
10.000000 
10.000000 
10.000000 
10.000000 
10.000000 
10.000000 
10.000000 
10.000000 
10.000000 
10.000000 
10.000000 
10.000000 
10.000000 
10.000000 
10.000000 
10.000000 
10.000000 
10.000000 
10.000000 
10.000000 
10.000000 
SCALARS DENSITY float 
LOOKUP_TABLE default 
4254.651530 
844.348780 
1021.524242 
1037.161072 
1000.012005 
1001.463955 
1001.945033 
1000.097353 
1000.039472 
1000.050466 
4071.575621 
832.032576 
1019.328617 
1035.604431 
999.741346 
1001.264290 
1001.865488 
1000.087110 
1000.035695 
1000.049187 
4092.781275 
828.221491 
1019.659488 
1035.940638 
1000.127894 
1001.316085 
1001.917319 
1000.093105 
1000.037439 
1000.050931 
6142.132828 
963.588531 
1046.160898 
1041.340047 
1002.041151 
1002.501988 
1002.365890 
1000.187267 
1000.066434 
1000.062683 
4733.669203 
868.104149 
1030.318962 
1039.436521 
1002.236902 
1001.923372 
1002.266997 
1000.137602 
1000.051525 
1000.060783 
4733.669203 
868.104149 
1030.318962 
1039.436521 
1002.236902 
1001.923372 
1002.266997 
1000.137602 
1000.051525 
1000.060783 
6142.132828 
963.588531 
1046.160898 
1041.340047 
1002.041151 
1002.501988 
1002.365890 
1000.187267 
1000.066434 
1000.062683 
4092.781275 
828.221491 
1019.659488 
1035.940638 
1000.127894 
1001.316085 
1001.917319 
1000.093105 
1000.037439 
1000.050931 
4071.575621 
832.032576 
1019.328617 
1035.604431 
999.741346 
1001.264290 
1001.865488 
1000.087110 
1000.035695 
1000.049187 
4254.651530 
844.348780 
1021.524242 
1037.161072 
1000.012005 
1001.463955 
1001.945033 
1000.097353 
1000.039472 
1000.050466 
SCALARS ELEM_i float 
LOOKUP_TABLE default 
81 
82 
83 
83 
84 
85 
85 
86 
87 
87 
108 
109 
110 
110 
111 
112 
112 
113 
114 
114 
108 
109 
110 
110 
111 
112 
112 
113 
114 
114 
135 
136 
137 
137 
138 
139 
139 
140 
141 
141 
162 
163 
164 
164 
165 
166 
166 
167 
168 
168 
162 
163 
164 
164 
165 
166 
166 
167 
168 
168 
189 
190 
191 
191 
192 
193 
193 
194 
195 
195 
216 
217 
218 
218 
219 
220 
220 
221 
222 
222 
216 
217 
218 
218 
219 
220 
220 
221 
222 
222 
243 
244 
245 
245 
246 
247 
247 
248 
249 
249 
VECTORS VELOCITY float 
6.709548 -9.086004 0.000000 
2.049680 -2.377519 0.000000 
-0.607631 -9.055526 0.000000 
0.259171 -6.792946 0.000000 
0.265709 -6.533057 0.000000 
0.018532 -6.952144 0.000000 
0.025330 -6.900016 0.000000 
0.014782 -6.905419 0.000000 
0.001086 -6.928298 0.000000 
0.001088 -6.927255 0.000000 
1.874449 -9.504654 0.000000 
0.617952 -2.748629 0.000000 
-0.025331 -9.283302 0.000000 
0.146103 -6.896802 0.000000 
0.102477 -6.569941 0.000000 
0.008440 -6.956259 0.000000 
0.009700 -6.902925 0.000000 
0.005470 -6.906827 0.000000 
0.000422 -6.928439 0.000000 
0.000410 -6.927339 0.000000 
-1.584359 -9.723417 0.000000 
0.082903 -2.773335 0.000000 
0.893730 -9.090714 0.000000 
0.167596 -6.821872 0.000000 
-0.016663 -6.551289 0.000000 
0.008807 -6.956103 0.000000 
0.000242 -6.900868 0.000000 
-0.001068 -6.905403 0.000000 
0.000146 -6.928363 0.000000 
-0.000049 -6.927221 0.000000 
0.523888 -9.943883 0.000000 
0.352826 -2.781733 0.000000 
0.177829 -8.871943 0.000000 
0.090847 -6.723295 0.000000 
0.041311 -6.517638 0.000000 
0.011852 -6.950829 0.000000 
0.006067 -6.895934 0.000000 
0.002427 -6.902803 0.000000 
0.000278 -6.928235 0.000000 
0.000201 -6.927035 0.000000 
1.992866 -10.110593 0.000000 
0.446936 -2.785476 0.000000 
-0.411949 -8.707662 0.000000 
0.011740 -6.647143 0.000000 
0.074467 -6.490429 0.000000 
0.009455 -6.946084 0.000000 
0.008440 -6.891828 0.000000 
0.004373 -6.900699 0.000000 
0.000290 -6.928134 0.000000 
0.000330 -6.926888 0.000000 
-1.992866 -10.110593 0.000000 
-0.446936 -2.785476 0.000000 
0.411949 -8.707662 0.000000 
-0.011740 -6.647143 0.000000 
-0.074467 -6.490429 0.000000 
-0.009455 -6.946084 0.000000 
-0.008440 -6.891828 0.000000 
-0.004373 -6.900699 0.000000 
-0.000290 -6.928134 0.000000 
-0.000330 -6.926888 0.000000 
-0.523888 -9.943883 0.000000 
-0.352826 -2.781733 0.000000 
-0.177829 -8.871943 0.000000 
-0.090847 -6.723295 0.000000 
-0.041311 -6.517638 0.000000 
-0.011852 -6.950829 0.000000 
-0.006067 -6.895934 0.000000 
-0.002427 -6.902803 0.000000 
-0.000278 -6.928235 0.000000 
-0.000201 -6.927035 0.000000 
1.584359 -9.723417 0.000000 
-0.082903 -2.773335 0.000000 
-0.893730 -9.090714 0.000000 
-0.167596 -6.821872 0.000000 
0.016663 -6.551289 0.000000 
-0.008807 -6.956103 0.000000 
-0.000242 -6.900868 0.000000 
0.001068 -6.905403 0.000000 
-0.000146 -6.928363 0.000000 
0.000049 -6.927221 0.000000 
-1.874449 -9.504654 0.000000 
-0.617952 -2.748629 0.000000 
0.025331 -9.283302 0.000000 
-0.146103 -6.896802 0.000000 
-0.102477 -6.569941 0.000000 
-0.008440 -6.956259 0.000000 
-0.009700 -6.902925 0.000000 
-0.005470 -6.906827 0.000000 
-0.000422 -6.928439 0.000000 
-0.000410 -6.927339 0.000000 
-6.709548 -9.086004 0.000000 
-2.049680 -2.377519 0.000000 
0.607631 -9.055526 0.000000 
-0.259171 -6.792946 0.000000 
-0.265709 -6.533057 0.000000 
-0.018532 -6.952144 0.000000 
-0.025330 -6.900016 0.000000 
-0.014782 -6.905419 0.000000 
-0.001086 -6.928298 0.000000 
-0.001088 -6.927255 0.000000 
TENSORS STRESS float 
-1669.747509 -42.648404 0.000000 
0.000000 -2243.419836 0.000000 
0.000000 0.000000 0.000000 

1937.683590 -540.256163 0.000000 
0.000000 1809.314352 0.000000 
0.000000 0.000000 0.000000 

-72.517520 -41.448843 0.000000 
0.000000 -168.492304 0.000000 
0.000000 0.000000 0.000000 

-205.407330 -49.708267 0.000000 
0.000000 -275.531790 0.000000 
0.000000 0.000000 0.000000 

2.123019 -7.562467 0.000000 
0.000000 -6.353257 0.000000 
0.000000 0.000000 0.000000 

-15.866090 -3.357840 0.000000 
0.000000 -23.989664 0.000000 
0.000000 0.000000 0.000000 

-23.381912 -3.618615 0.000000 
0.000000 -30.133595 0.000000 
0.000000 0.000000 0.000000 

-1.552159 -0.428701 0.000000 
0.000000 -2.343928 0.000000 
0.000000 0.000000 0.000000 

-0.610384 -0.104421 0.000000 
0.000000 -0.885741 0.000000 
0.000000 0.000000 0.000000 

-0.839579 -0.109572 0.000000 
0.000000 -1.073260 0.000000 
0.000000 0.000000 0.000000 

-1665.287533 -18.692873 0.000000 
0.000000 -2280.334137 0.000000 
0.000000 0.000000 0.000000 

2105.288723 -263.614239 0.000000 
0.000000 1940.424930 0.000000 
0.000000 0.000000 0.000000 

-80.482166 -36.087061 0.000000 
0.000000 -164.902035 0.000000 
0.000000 0.000000 0.000000 

-192.249963 -34.627461 0.000000 
0.000000 -254.795447 0.000000 
0.000000 0.000000 0.000000 

5.516200 -8.647246 0.000000 
0.000000 -2.439037 0.000000 
0.000000 0.000000 0.000000 

-12.828454 -2.498287 0.000000 
0.000000 -21.284661 0.000000 
0.000000 0.000000 0.000000 

-22.107607 -2.352345 0.000000 
0.000000 -28.870250 0.000000 
0.000000 0.000000 0.000000 

-1.345247 -0.320815 0.000000 
0.000000 -2.159516 0.000000 
0.000000 0.000000 0.000000 

-0.531387 -0.078030 0.000000 
0.000000 -0.819396 0.000000 
0.000000 0.000000 0.000000 

-0.811440 -0.071018 0.000000 
0.000000 -1.048525 0.000000 
0.000000 0.000000 0.000000 

-1670.646055 7.712411 0.000000 
0.000000 -2285.679941 0.000000 
0.000000 0.000000 0.000000 

2195.825573 51.120223 0.000000 
0.000000 2048.048613 0.000000 
0.000000 0.000000 0.000000 

-84.459012 -15.165471 0.000000 
0.000000 -169.736134 0.000000 
0.000000 0.000000 0.000000 

-196.123623 -14.044299 0.000000 
0.000000 -259.521077 0.000000 
0.000000 0.000000 0.000000 

-0.055482 -7.067927 0.000000 
0.000000 -9.244827 0.000000 
0.000000 0.000000 0.000000 

-13.477594 -0.808153 0.000000 
0.000000 -22.077719 0.000000 
0.000000 0.000000 0.000000 

-22.755791 -0.663353 0.000000 
0.000000 -29.662350 0.000000 
0.000000 0.000000 0.000000 

-1.457673 -0.138732 0.000000 
0.000000 -2.296920 0.000000 
0.000000 0.000000 0.000000 

-0.562936 -0.027109 0.000000 
0.000000 -0.857955 0.000000 
0.000000 0.000000 0.000000 

-0.842987 -0.020098 0.000000 
0.000000 -1.087083 0.000000 
0.000000 0.000000 0.000000 

-1689.503029 0.771482 0.000000 
0.000000 -1996.818310 0.000000 
0.000000 0.000000 0.000000 

83.217385 -11.554808 0.000000 
0.000000 311.741675 0.000000 
0.000000 0.000000 0.000000 

-246.269621 -19.851252 0.000000 
0.000000 -305.277383 0.000000 
0.000000 0.000000 0.000000 

-236.931692 -16.238863 0.000000 
0.000000 -298.123945 0.000000 
0.000000 0.000000 0.000000 

-27.462556 -6.995320 0.000000 
0.000000 -37.026235 0.000000 
0.000000 0.000000 0.000000 

-32.395240 -1.398080 0.000000 
0.000000 -38.371390 0.000000 
0.000000 0.000000 0.000000 

-30.410193 -0.868357 0.000000 
0.000000 -36.748909 0.000000 
0.000000 0.000000 0.000000 

-3.418295 -0.217545 0.000000 
0.000000 -4.048663 0.000000 
0.000000 0.000000 0.000000 

-1.171288 -0.047586 0.000000 
0.000000 -1.387673 0.000000 
0.000000 0.000000 0.000000 

-1.097095 -0.027475 0.000000 
0.000000 -1.326971 0.000000 
0.000000 0.000000 0.000000 

-1711.484719 -5.545851 0.000000 
0.000000 -2199.579333 0.000000 
0.000000 0.000000 0.000000 

1518.702090 -73.862669 0.000000 
0.000000 1535.673397 0.000000 
0.000000 0.000000 0.000000 

-153.748083 -7.035676 0.000000 
0.000000 -236.148923 0.000000 
0.000000 0.000000 0.000000 

-229.057951 -6.977592 0.000000 
0.000000 -296.798094 0.000000 
0.000000 0.000000 0.000000 

-28.989071 -0.876008 0.000000 
0.000000 -42.747274 0.000000 
0.000000 0.000000 0.000000 

-21.869838 -0.523799 0.000000 
0.000000 -30.471198 0.000000 
0.000000 0.000000 0.000000 

-27.619801 -0.523589 0.000000 
0.000000 -35.171401 0.000000 
0.000000 0.000000 0.000000 

-2.272582 -0.091328 0.000000 
0.000000 -3.237066 0.000000 
0.000000 0.000000 0.000000 

-0.831675 -0.017702 0.000000 
0.000000 -1.136536 0.000000 
0.000000 0.000000 0.000000 

-1.026385 -0.017702 0.000000 
0.000000 -1.295840 0.000000 
0.000000 0.000000 0.000000 

-1711.484719 5.545851 0.000000 
0.000000 -2199.579333 0.000000 
0.000000 0.000000 0.000000 

1518.702090 73.862669 0.000000 
0.000000 1535.673397 0.000000 
0.000000 0.000000 0.000000 

-153.748083 7.035676 0.000000 
0.000000 -236.148923 0.000000 
0.000000 0.000000 0.000000 

-229.057951 6.977592 0.000000 
0.000000 -296.798094 0.000000 
0.000000 0.000000 0.000000 

-28.989071 0.876008 0.000000 
0.000000 -42.747274 0.000000 
0.000000 0.000000 0.000000 

-21.869838 0.523799 0.000000 
0.000000 -30.471198 0.000000 
0.000000 0.000000 0.000000 

-27.619801 0.523589 0.000000 
0.000000 -35.171401 0.000000 
0.000000 0.000000 0.000000 

-2.272582 0.091328 0.000000 
0.000000 -3.237066 0.000000 
0.000000 0.000000 0.000000 

-0.831675 0.017702 0.000000 
0.000000 -1.136536 0.000000 
0.000000 0.000000 0.000000 

-1.026385 0.017702 0.000000 
0.000000 -1.295840 0.000000 
0.000000 0.000000 0.000000 

-1689.503029 -0.771482 0.000000 
0.000000 -1996.818310 0.000000 
0.000000 0.000000 0.000000 

83.217385 11.554808 0.000000 
0.000000 311.741675 0.000000 
0.000000 0.000000 0.000000 

-246.269621 19.851252 0.000000 
0.000000 -305.277383 0.000000 
0.000000 0.000000 0.000000 

-236.931692 16.238863 0.000000 
0.000000 -298.123945 0.000000 
0.000000 0.000000 0.000000 

-27.462556 6.995320 0.000000 
0.000000 -37.026235 0.000000 
0.000000 0.000000 0.000000 

-32.395240 1.398080 0.000000 
0.000000 -38.371390 0.000000 
0.000000 0.000000 0.000000 

-30.410193 0.868357 0.000000 
0.000000 -36.748909 0.000000 
0.000000 0.000000 0.000000 

-3.418295 0.217545 0.000000 
0.000000 -4.048663 0.000000 
0.000000 0.000000 0.000000 

-1.171288 0.047586 0.000000 
0.000000 -1.387673 0.000000 
0.000000 0.000000 0.000000 

-1.097095 0.027475 0.000000 
0.000000 -1.326971 0.000000 
0.000000 0.000000 0.000000 

-1670.646055 -7.712411 0.000000 
0.000000 -2285.679941 0.000000 
0.000000 0.000000 0.000000 

2195.825573 -51.120223 0.000000 
0.000000 2048.048613 0.000000 
0.000000 0.000000 0.000000 

-84.459012 15.165471 0.000000 
0.000000 -169.736134 0.000000 
0.000000 0.000000 0.000000 

-196.123623 14.044299 0.000000 
0.000000 -259.521077 0.000000 
0.000000 0.000000 0.000000 

-0.055482 7.067927 0.000000 
0.000000 -9.244827 0.000000 
0.000000 0.000000 0.000000 

-13.477594 0.808153 0.000000 
0.000000 -22.077719 0.000000 
0.000000 0.000000 0.000000 

-22.755791 0.663353 0.000000 
0.000000 -29.662350 0.000000 
0.000000 0.000000 0.000000 

-1.457673 0.138732 0.000000 
0.000000 -2.296920 0.000000 
0.000000 0.000000 0.000000 

-0.562936 0.027109 0.000000 
0.000000 -0.857955 0.000000 
0.000000 0.000000 0.000000 

-0.842987 0.020098 0.000000 
0.000000 -1.087083 0.000000 
0.000000 0.000000 0.000000 

-1665.287533 18.692873 0.000000 
0.000000 -2280.334137 0.000000 
0.000000 0.000000 0.000000 

2105.288723 263.614239 0.000000 
0.000000 1940.424930 0.000000 
0.000000 0.000000 0.000000 

-80.482166 36.087061 0.000000 
0.000000 -164.902035 0.000000 
0.000000 0.000000 0.000000 

-192.249963 34.627461 0.000000 
0.000000 -254.795447 0.000000 
0.000000 0.000000 0.000000 

5.516200 8.647246 0.000000 
0.000000 -2.439037 0.000000 
0.000000 0.000000 0.000000 

-12.828454 2.498287 0.000000 
0.000000 -21.284661 0.000000 
0.000000 0.000000 0.000000 

-22.107607 2.352345 0.000000 
0.000000 -28.870250 0.000000 
0.000000 0.000000 0.000000 

-1.345247 0.320815 0.000000 
0.000000 -2.159516 0.000000 
0.000000 0.000000 0.000000 

-0.531387 0.078030 0.000000 
0.000000 -0.819396 0.000000 
0.000000 0.000000 0.000000 

-0.811440 0.071018 0.000000 
0.000000 -1.048525 0.000000 
0.000000 0.000000 0.000000 

-1669.747509 42.648404 0.000000 
0.000000 -2243.419836 0.000000 
0.000000 0.000000 0.000000 

1937.683590 540.256163 0.000000 
0.000000 1809.314352 0.000000 
0.000000 0.000000 0.000000 

-72.517520 41.448843 0.000000 
0.000000 -168.492304 0.000000 
0.000000 0.000000 0.000000 

-205.407330 49.708267 0.000000 
0.000000 -275.531790 0.000000 
0.000000 0.000000 0.000000 

2.123019 7.562467 0.000000 
0.000000 -6.353257 0.000000 
0.000000 0.000000 0.000000 

-15.866090 3.357840 0.000000 
0.000000 -23.989664 0.000000 
0.000000 0.000000 0.000000 

-23.381912 3.618615 0.000000 
0.000000 -30.133595 0.000000 
0.000000 0.000000 0.000000 

-1.552159 0.428701 0.000000 
0.000000 -2.343928 0.000000 
0.000000 0.000000 0.000000 

-0.610384 0.104421 0.000000 
0.000000 -0.885741 0.000000 
0.000000 0.000000 0.000000 

-0.839579 0.109572 0.000000 
0.000000 -1.073260 0.000000 
0.000000 0.000000 0.000000 

TENSORS STRAIN float 
0.056250 -0.026311 0.000000 
0.000000 -0.297663 0.000000 
0.000000 0.000000 0.000000 

0.030796 -0.066144 0.000000 
0.000000 0.015079 0.000000 
0.000000 0.000000 0.000000 

0.005323 -0.006139 0.000000 
0.000000 -0.008893 0.000000 
0.000000 0.000000 0.000000 

0.001657 -0.007476 0.000000 
0.000000 -0.008889 0.000000 
0.000000 0.000000 0.000000 

0.000584 -0.001097 0.000000 
0.000000 -0.000645 0.000000 
0.000000 0.000000 0.000000 

0.000300 -0.000488 0.000000 
0.000000 -0.000879 0.000000 
0.000000 0.000000 0.000000 

0.000102 -0.000526 0.000000 
0.000000 -0.000879 0.000000 
0.000000 0.000000 0.000000 

0.000029 -0.000062 0.000000 
0.000000 -0.000086 0.000000 
0.000000 0.000000 0.000000 

0.000009 -0.000015 0.000000 
0.000000 -0.000031 0.000000 
0.000000 0.000000 0.000000 

0.000003 -0.000016 0.000000 
0.000000 -0.000031 0.000000 
0.000000 0.000000 0.000000 

0.065085 -0.011036 0.000000 
0.000000 -0.298026 0.000000 
0.000000 0.000000 0.000000 

0.034350 -0.031804 0.000000 
0.000000 0.014460 0.000000 
0.000000 0.000000 0.000000 

0.004425 -0.005334 0.000000 
0.000000 -0.008052 0.000000 
0.000000 0.000000 0.000000 

0.001340 -0.005200 0.000000 
0.000000 -0.008052 0.000000 
0.000000 0.000000 0.000000 

0.000599 -0.001254 0.000000 
0.000000 -0.000554 0.000000 
0.000000 0.000000 0.000000 

0.000366 -0.000363 0.000000 
0.000000 -0.000861 0.000000 
0.000000 0.000000 0.000000 

0.000121 -0.000342 0.000000 
0.000000 -0.000861 0.000000 
0.000000 0.000000 0.000000 

0.000034 -0.000047 0.000000 
0.000000 -0.000084 0.000000 
0.000000 0.000000 0.000000 

0.000011 -0.000011 0.000000 
0.000000 -0.000031 0.000000 
0.000000 0.000000 0.000000 

0.000004 -0.000010 0.000000 
0.000000 -0.000031 0.000000 
0.000000 0.000000 0.000000 

0.065102 0.004577 0.000000 
0.000000 -0.299892 0.000000 
0.000000 0.000000 0.000000 

0.034356 0.006139 0.000000 
0.000000 0.016609 0.000000 
0.000000 0.000000 0.000000 

0.004425 -0.002242 0.000000 
0.000000 -0.008183 0.000000 
0.000000 0.000000 0.000000 

0.001339 -0.002110 0.000000 
0.000000 -0.008184 0.000000 
0.000000 0.000000 0.000000 

0.000599 -0.001025 0.000000 
0.000000 -0.000734 0.000000 
0.000000 0.000000 0.000000 

0.000366 -0.000117 0.000000 
0.000000 -0.000882 0.000000 
0.000000 0.000000 0.000000 

0.000121 -0.000096 0.000000 
0.000000 -0.000882 0.000000 
0.000000 0.000000 0.000000 

0.000034 -0.000020 0.000000 
0.000000 -0.000088 0.000000 
0.000000 0.000000 0.000000 

0.000011 -0.000004 0.000000 
0.000000 -0.000032 0.000000 
0.000000 0.000000 0.000000 

0.000004 -0.000003 0.000000 
0.000000 -0.000032 0.000000 
0.000000 0.000000 0.000000 

-0.027305 0.000687 0.000000 
0.000000 -0.301003 0.000000 
0.000000 0.000000 0.000000 

-0.013206 -0.001614 0.000000 
0.000000 0.018724 0.000000 
0.000000 0.000000 0.000000 

0.000292 -0.003011 0.000000 
0.000000 -0.008659 0.000000 
0.000000 0.000000 0.000000 

0.000580 -0.002452 0.000000 
0.000000 -0.008659 0.000000 
0.000000 0.000000 0.000000 

0.000226 -0.001016 0.000000 
0.000000 -0.001163 0.000000 
0.000000 0.000000 0.000000 

-0.000080 -0.000203 0.000000 
0.000000 -0.000949 0.000000 
0.000000 0.000000 0.000000 

-0.000027 -0.000126 0.000000 
0.000000 -0.000949 0.000000 
0.000000 0.000000 0.000000 

-0.000008 -0.000032 0.000000 
0.000000 -0.000100 0.000000 
0.000000 0.000000 0.000000 

-0.000003 -0.000007 0.000000 
0.000000 -0.000034 0.000000 
0.000000 0.000000 0.000000 

-0.000001 -0.000004 0.000000 
0.000000 -0.000034 0.000000 
0.000000 0.000000 0.000000 

0.033285 -0.003807 0.000000 
0.000000 -0.301734 0.000000 
0.000000 0.000000 0.000000 

0.018155 -0.009297 0.000000 
0.000000 0.020292 0.000000 
0.000000 0.000000 0.000000 

0.003243 -0.001051 0.000000 
0.000000 -0.009068 0.000000 
0.000000 0.000000 0.000000 

0.001142 -0.001052 0.000000 
0.000000 -0.009068 0.000000 
0.000000 0.000000 0.000000 

0.000478 -0.000127 0.000000 
0.000000 -0.001521 0.000000 
0.000000 0.000000 0.000000 

0.000245 -0.000076 0.000000 