# vtk DataFile Version 3.0 
vtk output 
ASCII 
DATASET UNSTRUCTURED_GRID 
POINTS 100 float 
0.464396 -2.891506 0.000000 
0.456829 -2.791424 0.000000 
0.450807 -2.694303 0.000000 
0.450521 -2.594008 0.000000 
0.450269 -2.494143 0.000000 
0.450058 -2.394408 0.000000 
0.450026 -2.294446 0.000000 
0.450010 -2.194467 0.000000 
0.450001 -2.094479 0.000000 
0.450001 -1.994481 0.000000 
0.356262 -2.891722 0.000000 
0.353192 -2.791666 0.000000 
0.350636 -2.694498 0.000000 
0.350313 -2.594088 0.000000 
0.350141 -2.494168 0.000000 
0.350034 -2.394411 0.000000 
0.350013 -2.294447 0.000000 
0.350004 -2.194468 0.000000 
0.350001 -2.094480 0.000000 
0.350000 -1.994481 0.000000 
0.248399 -2.891960 0.000000 
0.249816 -2.791735 0.000000 
0.250659 -2.694377 0.000000 
0.250184 -2.594028 0.000000 
0.250035 -2.494146 0.000000 
0.250011 -2.394409 0.000000 
0.250002 -2.294446 0.000000 
0.250000 -2.194467 0.000000 
0.250000 -2.094479 0.000000 
0.250000 -1.994481 0.000000 
0.150704 -2.892154 0.000000 
0.150489 -2.791737 0.000000 
0.150264 -2.694186 0.000000 
0.150123 -2.593923 0.000000 
0.150050 -2.494100 0.000000 
0.150012 -2.394401 0.000000 
0.150005 -2.294442 0.000000 
0.150002 -2.194465 0.000000 
0.150000 -2.094479 0.000000 
0.150000 -1.994481 0.000000 
0.052704 -2.892294 0.000000 
0.051097 -2.791728 0.000000 
0.049936 -2.694034 0.000000 
0.050059 -2.593837 0.000000 
0.050053 -2.494062 0.000000 
0.050011 -2.394393 0.000000 
0.050006 -2.294438 0.000000 
0.050002 -2.194464 0.000000 
0.050000 -2.094479 0.000000 
0.050000 -1.994480 0.000000 
-0.052704 -2.892294 0.000000 
-0.051097 -2.791728 0.000000 
-0.049936 -2.694034 0.000000 
-0.050059 -2.593837 0.000000 
-0.050053 -2.494062 0.000000 
-0.050011 -2.394393 0.000000 
-0.050006 -2.294438 0.000000 
-0.050002 -2.194464 0.000000 
-0.050000 -2.094479 0.000000 
-0.050000 -1.994480 0.000000 
-0.150704 -2.892154 0.000000 
-0.150489 -2.791737 0.000000 
-0.150264 -2.694186 0.000000 
-0.150123 -2.593923 0.000000 
-0.150050 -2.494100 0.000000 
-0.150012 -2.394401 0.000000 
-0.150005 -2.294442 0.000000 
-0.150002 -2.194465 0.000000 
-0.150000 -2.094479 0.000000 
-0.150000 -1.994481 0.000000 
-0.248399 -2.891960 0.000000 
-0.249816 -2.791735 0.000000 
-0.250659 -2.694377 0.000000 
-0.250184 -2.594028 0.000000 
-0.250035 -2.494146 0.000000 
-0.250011 -2.394409 0.000000 
-0.250002 -2.294446 0.000000 
-0.250000 -2.194467 0.000000 
-0.250000 -2.094479 0.000000 
-0.250000 -1.994481 0.000000 
-0.356262 -2.891722 0.000000 
-0.353192 -2.791666 0.000000 
-0.350636 -2.694498 0.000000 
-0.350313 -2.594088 0.000000 
-0.350141 -2.494168 0.000000 
-0.350034 -2.394411 0.000000 
-0.350013 -2.294447 0.000000 
-0.350004 -2.194468 0.000000 
-0.350001 -2.094480 0.000000 
-0.350000 -1.994481 0.000000 
-0.464396 -2.891506 0.000000 
-0.456829 -2.791424 0.000000 
-0.450807 -2.694303 0.000000 
-0.450521 -2.594008 0.000000 
-0.450269 -2.494143 0.000000 
-0.450058 -2.394408 0.000000 
-0.450026 -2.294446 0.000000 
-0.450010 -2.194467 0.000000 
-0.450001 -2.094479 0.000000 
-0.450001 -1.994481 0.000000 
CELLS 100 200 
1 0 
1 1 
1 2 
1 3 
1 4 
1 5 
1 6 
1 7 
1 8 
1 9 
1 10 
1 11 
1 12 
1 13 
1 14 
1 15 
1 16 
1 17 
1 18 
1 19 
1 20 
1 21 
1 22 
1 23 
1 24 
1 25 
1 26 
1 27 
1 28 
1 29 
1 30 
1 31 
1 32 
1 33 
1 34 
1 35 
1 36 
1 37 
1 38 
1 39 
1 40 
1 41 
1 42 
1 43 
1 44 
1 45 
1 46 
1 47 
1 48 
1 49 
1 50 
1 51 
1 52 
1 53 
1 54 
1 55 
1 56 
1 57 
1 58 
1 59 
1 60 
1 61 
1 62 
1 63 
1 64 
1 65 
1 66 
1 67 
1 68 
1 69 
1 70 
1 71 
1 72 
1 73 
1 74 
1 75 
1 76 
1 77 
1 78 
1 79 
1 80 
1 81 
1 82 
1 83 
1 84 
1 85 
1 86 
1 87 
1 88 
1 89 
1 90 
1 91 
1 92 
1 93 
1 94 
1 95 
1 96 
1 97 
1 98 
1 99 
CELL_TYPES 100 
1 
1 
1 
1 
1 
1 
1 
1 
1 
1 
1 
1 
1 
1 
1 
1 
1 
1 
1 
1 
1 
1 
1 
1 
1 
1 
1 
1 
1 
1 
1 
1 
1 
1 
1 
1 
1 
1 
1 
1 
1 
1 
1 
1 
1 
1 
1 
1 
1 
1 
1 
1 
1 
1 
1 
1 
1 
1 
1 
1 
1 
1 
1 
1 
1 
1 
1 
1 
1 
1 
1 
1 
1 
1 
1 
1 
1 
1 
1 
1 
1 
1 
1 
1 
1 
1 
1 
1 
1 
1 
1 
1 
1 
1 
1 
1 
1 
1 
1 
1 
POINT_DATA 100 
VECTORS X_GC float 
0.464396 -2.891506 0.000000 
0.456829 -2.791424 0.000000 
0.450807 -2.694303 0.000000 
0.450521 -2.594008 0.000000 
0.450269 -2.494143 0.000000 
0.450058 -2.394408 0.000000 
0.450026 -2.294446 0.000000 
0.450010 -2.194467 0.000000 
0.450001 -2.094479 0.000000 
0.450001 -1.994481 0.000000 
0.356262 -2.891722 0.000000 
0.353192 -2.791666 0.000000 
0.350636 -2.694498 0.000000 
0.350313 -2.594088 0.000000 
0.350141 -2.494168 0.000000 
0.350034 -2.394411 0.000000 
0.350013 -2.294447 0.000000 
0.350004 -2.194468 0.000000 
0.350001 -2.094480 0.000000 
0.350000 -1.994481 0.000000 
0.248399 -2.891960 0.000000 
0.249816 -2.791735 0.000000 
0.250659 -2.694377 0.000000 
0.250184 -2.594028 0.000000 
0.250035 -2.494146 0.000000 
0.250011 -2.394409 0.000000 
0.250002 -2.294446 0.000000 
0.250000 -2.194467 0.000000 
0.250000 -2.094479 0.000000 
0.250000 -1.994481 0.000000 
0.150704 -2.892154 0.000000 
0.150489 -2.791737 0.000000 
0.150264 -2.694186 0.000000 
0.150123 -2.593923 0.000000 
0.150050 -2.494100 0.000000 
0.150012 -2.394401 0.000000 
0.150005 -2.294442 0.000000 
0.150002 -2.194465 0.000000 
0.150000 -2.094479 0.000000 
0.150000 -1.994481 0.000000 
0.052704 -2.892294 0.000000 
0.051097 -2.791728 0.000000 
0.049936 -2.694034 0.000000 
0.050059 -2.593837 0.000000 
0.050053 -2.494062 0.000000 
0.050011 -2.394393 0.000000 
0.050006 -2.294438 0.000000 
0.050002 -2.194464 0.000000 
0.050000 -2.094479 0.000000 
0.050000 -1.994480 0.000000 
-0.052704 -2.892294 0.000000 
-0.051097 -2.791728 0.000000 
-0.049936 -2.694034 0.000000 
-0.050059 -2.593837 0.000000 
-0.050053 -2.494062 0.000000 
-0.050011 -2.394393 0.000000 
-0.050006 -2.294438 0.000000 
-0.050002 -2.194464 0.000000 
-0.050000 -2.094479 0.000000 
-0.050000 -1.994480 0.000000 
-0.150704 -2.892154 0.000000 
-0.150489 -2.791737 0.000000 
-0.150264 -2.694186 0.000000 
-0.150123 -2.593923 0.000000 
-0.150050 -2.494100 0.000000 
-0.150012 -2.394401 0.000000 
-0.150005 -2.294442 0.000000 
-0.150002 -2.194465 0.000000 
-0.150000 -2.094479 0.000000 
-0.150000 -1.994481 0.000000 
-0.248399 -2.891960 0.000000 
-0.249816 -2.791735 0.000000 
-0.250659 -2.694377 0.000000 
-0.250184 -2.594028 0.000000 
-0.250035 -2.494146 0.000000 
-0.250011 -2.394409 0.000000 
-0.250002 -2.294446 0.000000 
-0.250000 -2.194467 0.000000 
-0.250000 -2.094479 0.000000 
-0.250000 -1.994481 0.000000 
-0.356262 -2.891722 0.000000 
-0.353192 -2.791666 0.000000 
-0.350636 -2.694498 0.000000 
-0.350313 -2.594088 0.000000 
-0.350141 -2.494168 0.000000 
-0.350034 -2.394411 0.000000 
-0.350013 -2.294447 0.000000 
-0.350004 -2.194468 0.000000 
-0.350001 -2.094480 0.000000 
-0.350000 -1.994481 0.000000 
-0.464396 -2.891506 0.000000 
-0.456829 -2.791424 0.000000 
-0.450807 -2.694303 0.000000 
-0.450521 -2.594008 0.000000 
-0.450269 -2.494143 0.000000 
-0.450058 -2.394408 0.000000 
-0.450026 -2.294446 0.000000 
-0.450010 -2.194467 0.000000 
-0.450001 -2.094479 0.000000 
-0.450001 -1.994481 0.000000 
VECTORS X_EC float 
-0.037147 -0.464675 0.000000 
0.061226 0.184221 0.000000 
0.139514 0.873084 0.000000 
0.143226 -0.480895 0.000000 
0.146498 0.170927 0.000000 
0.149241 0.824511 0.000000 
0.149664 -0.524982 0.000000 
0.149874 0.125304 0.000000 
0.149981 0.775473 0.000000 
0.149991 -0.574511 0.000000 
-0.631406 -0.461746 0.000000 
-0.591499 0.187486 0.000000 
-0.558268 0.875722 0.000000 
-0.554071 -0.479819 0.000000 
-0.551832 0.171274 0.000000 
-0.550440 0.824553 0.000000 
-0.550171 -0.524961 0.000000 
-0.550058 0.125313 0.000000 
-0.550010 0.775473 0.000000 
-0.550004 -0.574511 0.000000 
0.770817 -0.458534 0.000000 
0.752396 0.188417 0.000000 
0.741438 0.874092 0.000000 
0.747602 -0.480621 0.000000 
0.749539 0.170969 0.000000 
0.749862 0.824523 0.000000 
0.749971 -0.524981 0.000000 
0.749998 0.125303 0.000000 
0.749997 0.775472 0.000000 
0.750000 -0.574511 0.000000 
0.040848 -0.455916 0.000000 
0.043644 0.188453 0.000000 
0.046570 0.871515 0.000000 
0.048398 -0.482045 0.000000 
0.049347 0.170344 0.000000 
0.049846 0.824409 0.000000 
0.049937 -0.525036 0.000000 
0.049978 0.125281 0.000000 
0.049997 0.775469 0.000000 
0.049999 -0.574513 0.000000 
-0.685158 -0.454032 0.000000 
-0.664255 0.188331 0.000000 
-0.649170 0.869465 0.000000 
-0.650763 -0.483194 0.000000 
-0.650693 0.169832 0.000000 
-0.650144 0.824310 0.000000 
-0.650078 -0.525083 0.000000 
-0.650032 0.125263 0.000000 
-0.650004 0.775467 0.000000 
-0.650002 -0.574514 0.000000 
0.685158 -0.454032 0.000000 
0.664255 0.188331 0.000000 
0.649170 0.869465 0.000000 
0.650763 -0.483194 0.000000 
0.650693 0.169832 0.000000 
0.650144 0.824310 0.000000 
0.650078 -0.525083 0.000000 
0.650032 0.125263 0.000000 
0.650004 0.775467 0.000000 
0.650002 -0.574514 0.000000 
-0.040848 -0.455916 0.000000 
-0.043644 0.188453 0.000000 
-0.046570 0.871515 0.000000 
-0.048398 -0.482045 0.000000 
-0.049347 0.170344 0.000000 
-0.049846 0.824409 0.000000 
-0.049937 -0.525036 0.000000 
-0.049978 0.125281 0.000000 
-0.049997 0.775469 0.000000 
-0.049999 -0.574513 0.000000 
-0.770817 -0.458534 0.000000 
-0.752396 0.188417 0.000000 
-0.741438 0.874092 0.000000 
-0.747602 -0.480621 0.000000 
-0.749539 0.170969 0.000000 
-0.749862 0.824523 0.000000 
-0.749971 -0.524981 0.000000 
-0.749998 0.125303 0.000000 
-0.749997 0.775472 0.000000 
-0.750000 -0.574511 0.000000 
0.631406 -0.461746 0.000000 
0.591499 0.187486 0.000000 
0.558268 0.875722 0.000000 
0.554071 -0.479819 0.000000 
0.551832 0.171274 0.000000 
0.550440 0.824553 0.000000 
0.550171 -0.524961 0.000000 
0.550058 0.125313 0.000000 
0.550010 0.775473 0.000000 
0.550004 -0.574511 0.000000 
0.037147 -0.464675 0.000000 
-0.061226 0.184221 0.000000 
-0.139514 0.873084 0.000000 
-0.143226 -0.480895 0.000000 
-0.146498 0.170927 0.000000 
-0.149241 0.824511 0.000000 
-0.149664 -0.524982 0.000000 
-0.149874 0.125304 0.000000 
-0.149981 0.775473 0.000000 
-0.149991 -0.574511 0.000000 
CELL_DATA 100 
SCALARS MASS float 
LOOKUP_TABLE default 
10.000000 
10.000000 
10.000000 
10.000000 
10.000000 
10.000000 
10.000000 
10.000000 
10.000000 
10.000000 
10.000000 
10.000000 
10.000000 
10.000000 
10.000000 
10.000000 
10.000000 
10.000000 
10.000000 
10.000000 
10.000000 
10.000000 
10.000000 
10.000000 
10.000000 
10.000000 
10.000000 
10.000000 
10.000000 
10.000000 
10.000000 
10.000000 
10.000000 
10.000000 
10.000000 
10.000000 
10.000000 
10.000000 
10.000000 
10.000000 
10.000000 
10.000000 
10.000000 
10.000000 
10.000000 
10.000000 
10.000000 
10.000000 
10.000000 
10.000000 
10.000000 
10.000000 
10.000000 
10.000000 
10.000000 
10.000000 
10.000000 
10.000000 
10.000000 
10.000000 
10.000000 
10.000000 
10.000000 
10.000000 
10.000000 
10.000000 
10.000000 
10.000000 
10.000000 
10.000000 
10.000000 
10.000000 
10.000000 
10.000000 
10.000000 
10.000000 
10.000000 
10.000000 
10.000000 
10.000000 
10.000000 
10.000000 
10.000000 
10.000000 
10.000000 
10.000000 
10.000000 
10.000000 
10.000000 
10.000000 
10.000000 
10.000000 
10.000000 
10.000000 
10.000000 
10.000000 
10.000000 
10.000000 
10.000000 
10.000000 
SCALARS MASS float 
LOOKUP_TABLE default 
10.000000 
10.000000 
10.000000 
10.000000 
10.000000 
10.000000 
10.000000 
10.000000 
10.000000 
10.000000 
10.000000 
10.000000 
10.000000 
10.000000 
10.000000 
10.000000 
10.000000 
10.000000 
10.000000 
10.000000 
10.000000 
10.000000 
10.000000 
10.000000 
10.000000 
10.000000 
10.000000 
10.000000 
10.000000 
10.000000 
10.000000 
10.000000 
10.000000 
10.000000 
10.000000 
10.000000 
10.000000 
10.000000 
10.000000 
10.000000 
10.000000 
10.000000 
10.000000 
10.000000 
10.000000 
10.000000 
10.000000 
10.000000 
10.000000 
10.000000 
10.000000 
10.000000 
10.000000 
10.000000 
10.000000 
10.000000 
10.000000 
10.000000 
10.000000 
10.000000 
10.000000 
10.000000 
10.000000 
10.000000 
10.000000 
10.000000 
10.000000 
10.000000 
10.000000 
10.000000 
10.000000 
10.000000 
10.000000 
10.000000 
10.000000 
10.000000 
10.000000 
10.000000 
10.000000 
10.000000 
10.000000 
10.000000 
10.000000 
10.000000 
10.000000 
10.000000 
10.000000 
10.000000 
10.000000 
10.000000 
10.000000 
10.000000 
10.000000 
10.000000 
10.000000 
10.000000 
10.000000 
10.000000 
10.000000 
10.000000 
SCALARS DENSITY float 
LOOKUP_TABLE default 
3227.523895 
883.083036 
1017.877541 
1029.659530 
999.950665 
1000.884353 
1001.166036 
1000.040849 
1000.017777 
1000.022727 
3123.138698 
872.643587 
1015.631672 
1028.652468 
999.785942 
1000.768398 
1001.123548 
1000.036282 
1000.016107 
1000.022215 
3131.839346 
870.432283 
1015.827311 
1028.850347 
999.993005 
1000.799175 
1001.154338 
1000.038654 
1000.016834 
1000.022942 
4125.626446 
968.905980 
1037.408088 
1032.927024 
1001.102243 
1001.470731 
1001.387470 
1000.078956 
1000.029324 
1000.027530 
3462.923231 
901.480134 
1024.317442 
1031.198349 
1001.192067 
1001.161505 
1001.352392 
1000.057690 
1000.022983 
1000.027107 
3462.923231 
901.480134 
1024.317442 
1031.198349 
1001.192067 
1001.161505 
1001.352392 
1000.057690 
1000.022983 
1000.027107 
4125.626446 
968.905980 
1037.408088 
1032.927024 
1001.102243 
1001.470731 
1001.387470 
1000.078956 
1000.029324 
1000.027530 
3131.839346 
870.432283 
1015.827311 
1028.850347 
999.993005 
1000.799175 
1001.154338 
1000.038654 
1000.016834 
1000.022942 
3123.138698 
872.643587 
1015.631672 
1028.652468 
999.785942 
1000.768398 
1001.123548 
1000.036282 
1000.016107 
1000.022215 
3227.523895 
883.083036 
1017.877541 
1029.659530 
999.950665 
1000.884353 
1001.166036 
1000.040849 
1000.017777 
1000.022727 
SCALARS ELEM_i float 
LOOKUP_TABLE default 
81 
82 
83 
83 
84 
85 
85 
86 
87 
87 
108 
109 
110 
110 
111 
112 
112 
113 
114 
114 
108 
109 
110 
110 
111 
112 
112 
113 
114 
114 
135 
136 
137 
137 
138 
139 
139 
140 
141 
141 
162 
163 
164 
164 
165 
166 
166 
167 
168 
168 
162 
163 
164 
164 
165 
166 
166 
167 
168 
168 
189 
190 
191 
191 
192 
193 
193 
194 
195 
195 
216 
217 
218 
218 
219 
220 
220 
221 
222 
222 
216 
217 
218 
218 
219 
220 
220 
221 
222 
222 
243 
244 
245 
245 
246 
247 
247 
248 
249 
249 
VECTORS VELOCITY float 
6.552060 -9.167051 0.000000 
2.204779 -3.039099 0.000000 
-0.453576 -8.473563 0.000000 
0.233882 -6.743534 0.000000 
0.207654 -6.615915 0.000000 
0.010655 -6.935968 0.000000 
0.015416 -6.903967 0.000000 
0.008536 -6.908713 0.000000 
0.000480 -6.921727 0.000000 
0.000484 -6.921266 0.000000 
1.845573 -9.460011 0.000000 
0.660450 -3.299109 0.000000 
-0.031492 -8.646182 0.000000 
0.115304 -6.821501 0.000000 
0.077600 -6.643548 0.000000 
0.004751 -6.938395 0.000000 
0.005752 -6.905682 0.000000 
0.003093 -6.909511 0.000000 
0.000184 -6.921792 0.000000 
0.000178 -6.921305 0.000000 
-1.655988 -9.627760 0.000000 
-0.158535 -3.294250 0.000000 
0.651778 -8.514976 0.000000 
0.100380 -6.766221 0.000000 
-0.018299 -6.626848 0.000000 
0.004913 -6.938290 0.000000 
-0.000383 -6.904486 0.000000 
-0.000819 -6.908749 0.000000 
0.000060 -6.921759 0.000000 
-0.000033 -6.921257 0.000000 
0.460671 -9.804429 0.000000 
0.292776 -3.278280 0.000000 
0.135452 -8.361435 0.000000 
0.064831 -6.694125 0.000000 
0.027461 -6.600747 0.000000 
0.006901 -6.935298 0.000000 
0.003440 -6.901639 0.000000 
0.001338 -6.907313 0.000000 
0.000121 -6.921704 0.000000 
0.000085 -6.921180 0.000000 
1.958169 -9.938775 0.000000 
0.549306 -3.264717 0.000000 
-0.294097 -8.245378 0.000000 
0.023092 -6.638507 0.000000 
0.055627 -6.580033 0.000000 
0.005637 -6.932609 0.000000 
0.005179 -6.899272 0.000000 
0.002580 -6.906146 0.000000 
0.000129 -6.921659 0.000000 
0.000148 -6.921119 0.000000 
-1.958169 -9.938775 0.000000 
-0.549306 -3.264717 0.000000 
0.294097 -8.245378 0.000000 
-0.023092 -6.638507 0.000000 
-0.055627 -6.580033 0.000000 
-0.005637 -6.932609 0.000000 
-0.005179 -6.899272 0.000000 
-0.002580 -6.906146 0.000000 
-0.000129 -6.921659 0.000000 
-0.000148 -6.921119 0.000000 
-0.460671 -9.804429 0.000000 
-0.292776 -3.278280 0.000000 
-0.135452 -8.361435 0.000000 
-0.064831 -6.694125 0.000000 
-0.027461 -6.600747 0.000000 
-0.006901 -6.935298 0.000000 
-0.003440 -6.901639 0.000000 
-0.001338 -6.907313 0.000000 
-0.000121 -6.921704 0.000000 
-0.000085 -6.921180 0.000000 
1.655988 -9.627760 0.000000 
0.158535 -3.294250 0.000000 
-0.651778 -8.514976 0.000000 
-0.100380 -6.766221 0.000000 
0.018299 -6.626848 0.000000 
-0.004913 -6.938290 0.000000 
0.000383 -6.904486 0.000000 
0.000819 -6.908749 0.000000 
-0.000060 -6.921759 0.000000 
0.000033 -6.921257 0.000000 
-1.845573 -9.460011 0.000000 
-0.660450 -3.299109 0.000000 
0.031492 -8.646182 0.000000 
-0.115304 -6.821501 0.000000 
-0.077600 -6.643548 0.000000 
-0.004751 -6.938395 0.000000 
-0.005752 -6.905682 0.000000 
-0.003093 -6.909511 0.000000 
-0.000184 -6.921792 0.000000 
-0.000178 -6.921305 0.000000 
-6.552060 -9.167051 0.000000 
-2.204779 -3.039099 0.000000 
0.453576 -8.473563 0.000000 
-0.233882 -6.743534 0.000000 
-0.207654 -6.615915 0.000000 
-0.010655 -6.935968 0.000000 
-0.015416 -6.903967 0.000000 
-0.008536 -6.908713 0.000000 
-0.000480 -6.921727 0.000000 
-0.000484 -6.921266 0.000000 
TENSORS STRESS float 
-2047.442477 -42.148370 0.000000 
0.000000 -2710.953669 0.000000 
0.000000 0.000000 0.000000 

1600.734426 -404.788276 0.000000 
0.000000 1541.582820 0.000000 
0.000000 0.000000 0.000000 

-104.020131 -43.245518 0.000000 
0.000000 -198.061318 0.000000 
0.000000 0.000000 0.000000 

-228.985688 -48.028858 0.000000 
0.000000 -298.989309 0.000000 
0.000000 0.000000 0.000000 

2.992227 -4.726268 0.000000 
0.000000 -2.014876 0.000000 
0.000000 0.000000 0.000000 

-11.447896 -2.241670 0.000000 
0.000000 -16.881216 0.000000 
0.000000 0.000000 0.000000 

-16.498158 -2.407177 0.000000 
0.000000 -21.011099 0.000000 
0.000000 0.000000 0.000000 

-0.709500 -0.205422 0.000000 
0.000000 -1.076418 0.000000 
0.000000 0.000000 0.000000 

-0.312151 -0.052224 0.000000 
0.000000 -0.446763 0.000000 
0.000000 0.000000 0.000000 

-0.427787 -0.054774 0.000000 
0.000000 -0.541373 0.000000 
0.000000 0.000000 0.000000 

-2018.694973 -18.889641 0.000000 
0.000000 -2722.813920 0.000000 
0.000000 0.000000 0.000000 

1765.028199 -199.756007 0.000000 
0.000000 1673.189984 0.000000 
0.000000 0.000000 0.000000 

-95.023670 -30.871628 0.000000 
0.000000 -184.838397 0.000000 
0.000000 0.000000 0.000000 

-218.151471 -29.902980 0.000000 
0.000000 -284.225636 0.000000 
0.000000 0.000000 0.000000 

5.360447 -5.318362 0.000000 
0.000000 0.685765 0.000000 
0.000000 0.000000 0.000000 

-9.419307 -1.623732 0.000000 
0.000000 -15.088969 0.000000 
0.000000 0.000000 0.000000 

-15.738204 -1.520712 0.000000 
0.000000 -20.256370 0.000000 
0.000000 0.000000 0.000000 

-0.607274 -0.150716 0.000000 
0.000000 -0.984473 0.000000 
0.000000 0.000000 0.000000 

-0.273327 -0.037678 0.000000 
0.000000 -0.414022 0.000000 
0.000000 0.000000 0.000000 

-0.415599 -0.034412 0.000000 
0.000000 -0.530426 0.000000 
0.000000 0.000000 0.000000 

-2024.172209 6.743594 0.000000 
0.000000 -2728.841303 0.000000 
0.000000 0.000000 0.000000 

1816.293487 35.731434 0.000000 
0.000000 1734.598377 0.000000 
0.000000 0.000000 0.000000 

-97.553667 -7.945355 0.000000 
0.000000 -187.907283 0.000000 
0.000000 0.000000 0.000000 

-220.612884 -7.273333 0.000000 
0.000000 -287.225699 0.000000 
0.000000 0.000000 0.000000 

2.001674 -4.325038 0.000000 
0.000000 -3.417986 0.000000 
0.000000 0.000000 0.000000 

-9.879942 -0.473566 0.000000 
0.000000 -15.651839 0.000000 
0.000000 0.000000 0.000000 

-16.198439 -0.371011 0.000000 
0.000000 -20.818839 0.000000 
0.000000 0.000000 0.000000 

-0.656054 -0.062495 0.000000 
0.000000 -1.044092 0.000000 
0.000000 0.000000 0.000000 

-0.288024 -0.011809 0.000000 
0.000000 -0.431985 0.000000 
0.000000 0.000000 0.000000 

-0.430296 -0.008543 0.000000 
0.000000 -0.548388 0.000000 
0.000000 0.000000 0.000000 

-2222.492585 0.625888 0.000000 
0.000000 -2634.810421 0.000000 
0.000000 0.000000 0.000000 

167.702103 -8.882125 0.000000 
0.000000 377.357630 0.000000 
0.000000 0.000000 0.000000 

-295.299545 -12.501321 0.000000 
0.000000 -350.906564 0.000000 
0.000000 0.000000 0.000000 

-265.490712 -10.323071 0.000000 
0.000000 -326.994130 0.000000 
0.000000 0.000000 0.000000 

-16.151539 -4.263756 0.000000 
0.000000 -21.614021 0.000000 
0.000000 0.000000 0.000000 

-22.076632 -0.820117 0.000000 
0.000000 -26.162063 0.000000 
0.000000 0.000000 0.000000 

-20.651984 -0.479455 0.000000 
0.000000 -24.997129 0.000000 
0.000000 0.000000 0.000000 

-1.585953 -0.099659 0.000000 
0.000000 -1.873039 0.000000 
0.000000 0.000000 0.000000 

-0.579284 -0.021627 0.000000 
0.000000 -0.685646 0.000000 
0.000000 0.000000 0.000000 

-0.538719 -0.011945 0.000000 
0.000000 -0.652457 0.000000 
0.000000 0.000000 0.000000 

-2127.650364 -5.545517 0.000000 
0.000000 -2715.098654 0.000000 
0.000000 0.000000 0.000000 

1263.966387 -54.808130 0.000000 
0.000000 1305.698229 0.000000 
0.000000 0.000000 0.000000 

-176.212053 -6.704091 0.000000 
0.000000 -257.865182 0.000000 
0.000000 0.000000 0.000000 

-248.220386 -6.662107 0.000000 
0.000000 -316.022458 0.000000 
0.000000 0.000000 0.000000 

-16.827107 -0.553855 0.000000 
0.000000 -24.961381 0.000000 
0.000000 0.000000 0.000000 

-15.795764 -0.326241 0.000000 
0.000000 -21.478597 0.000000 
0.000000 0.000000 0.000000 

-19.379825 -0.326168 0.000000 
0.000000 -24.409380 0.000000 
0.000000 0.000000 0.000000 

-1.042229 -0.043962 0.000000 
0.000000 -1.486413 0.000000 
0.000000 0.000000 0.000000 

-0.419202 -0.008821 0.000000 
0.000000 -0.567536 0.000000 
0.000000 0.000000 0.000000 

-0.516232 -0.008821 0.000000 
0.000000 -0.646923 0.000000 
0.000000 0.000000 0.000000 

-2127.650364 5.545517 0.000000 
0.000000 -2715.098654 0.000000 
0.000000 0.000000 0.000000 

1263.966387 54.808130 0.000000 
0.000000 1305.698229 0.000000 
0.000000 0.000000 0.000000 

-176.212053 6.704091 0.000000 
0.000000 -257.865182 0.000000 
0.000000 0.000000 0.000000 

-248.220386 6.662107 0.000000 
0.000000 -316.022458 0.000000 
0.000000 0.000000 0.000000 

-16.827107 0.553855 0.000000 
0.000000 -24.961381 0.000000 
0.000000 0.000000 0.000000 

-15.795764 0.326241 0.000000 
0.000000 -21.478597 0.000000 
0.000000 0.000000 0.000000 

-19.379825 0.326168 0.000000 
0.000000 -24.409380 0.000000 
0.000000 0.000000 0.000000 

-1.042229 0.043962 0.000000 
0.000000 -1.486413 0.000000 
0.000000 0.000000 0.000000 

-0.419202 0.008821 0.000000 
0.000000 -0.567536 0.000000 
0.000000 0.000000 0.000000 

-0.516232 0.008821 0.000000 
0.000000 -0.646923 0.000000 
0.000000 0.000000 0.000000 

-2222.492585 -0.625888 0.000000 
0.000000 -2634.810421 0.000000 
0.000000 0.000000 0.000000 

167.702103 8.882125 0.000000 
0.000000 377.357630 0.000000 
0.000000 0.000000 0.000000 

-295.299545 12.501321 0.000000 
0.000000 -350.906564 0.000000 
0.000000 0.000000 0.000000 

-265.490712 10.323071 0.000000 
0.000000 -326.994130 0.000000 
0.000000 0.000000 0.000000 

-16.151539 4.263756 0.000000 
0.000000 -21.614021 0.000000 
0.000000 0.000000 0.000000 

-22.076632 0.820117 0.000000 
0.000000 -26.162063 0.000000 
0.000000 0.000000 0.000000 

-20.651984 0.479455 0.000000 
0.000000 -24.997129 0.000000 
0.000000 0.000000 0.000000 

-1.585953 0.099659 0.000000 
0.000000 -1.873039 0.000000 
0.000000 0.000000 0.000000 

-0.579284 0.021627 0.000000 
0.000000 -0.685646 0.000000 
0.000000 0.000000 0.000000 

-0.538719 0.011945 0.000000 
0.000000 -0.652457 0.000000 
0.000000 0.000000 0.000000 

-2024.172209 -6.743594 0.000000 
0.000000 -2728.841303 0.000000 
0.000000 0.000000 0.000000 

1816.293487 -35.731434 0.000000 
0.000000 1734.598377 0.000000 
0.000000 0.000000 0.000000 

-97.553667 7.945355 0.000000 
0.000000 -187.907283 0.000000 
0.000000 0.000000 0.000000 

-220.612884 7.273333 0.000000 
0.000000 -287.225699 0.000000 
0.000000 0.000000 0.000000 

2.001674 4.325038 0.000000 
0.000000 -3.417986 0.000000 
0.000000 0.000000 0.000000 

-9.879942 0.473566 0.000000 
0.000000 -15.651839 0.000000 
0.000000 0.000000 0.000000 

-16.198439 0.371011 0.000000 
0.000000 -20.818839 0.000000 
0.000000 0.000000 0.000000 

-0.656054 0.062495 0.000000 
0.000000 -1.044092 0.000000 
0.000000 0.000000 0.000000 

-0.288024 0.011809 0.000000 
0.000000 -0.431985 0.000000 
0.000000 0.000000 0.000000 

-0.430296 0.008543 0.000000 
0.000000 -0.548388 0.000000 
0.000000 0.000000 0.000000 

-2018.694973 18.889641 0.000000 
0.000000 -2722.813920 0.000000 
0.000000 0.000000 0.000000 

1765.028199 199.756007 0.000000 
0.000000 1673.189984 0.000000 
0.000000 0.000000 0.000000 

-95.023670 30.871628 0.000000 
0.000000 -184.838397 0.000000 
0.000000 0.000000 0.000000 

-218.151471 29.902980 0.000000 
0.000000 -284.225636 0.000000 
0.000000 0.000000 0.000000 

5.360447 5.318362 0.000000 
0.000000 0.685765 0.000000 
0.000000 0.000000 0.000000 

-9.419307 1.623732 0.000000 
0.000000 -15.088969 0.000000 
0.000000 0.000000 0.000000 

-15.738204 1.520712 0.000000 
0.000000 -20.256370 0.000000 
0.000000 0.000000 0.000000 

-0.607274 0.150716 0.000000 
0.000000 -0.984473 0.000000 
0.000000 0.000000 0.000000 

-0.273327 0.037678 0.000000 
0.000000 -0.414022 0.000000 
0.000000 0.000000 0.000000 

-0.415599 0.034412 0.000000 
0.000000 -0.530426 0.000000 
0.000000 0.000000 0.000000 

-2047.442477 42.148370 0.000000 
0.000000 -2710.953669 0.000000 
0.000000 0.000000 0.000000 

1600.734426 404.788276 0.000000 
0.000000 1541.582820 0.000000 
0.000000 0.000000 0.000000 

-104.020131 43.245518 0.000000 
0.000000 -198.061318 0.000000 
0.000000 0.000000 0.000000 

-228.985688 48.028858 0.000000 
0.000000 -298.989309 0.000000 
0.000000 0.000000 0.000000 

2.992227 4.726268 0.000000 
0.000000 -2.014876 0.000000 
0.000000 0.000000 0.000000 

-11.447896 2.241670 0.000000 
0.000000 -16.881216 0.000000 
0.000000 0.000000 0.000000 

-16.498158 2.407177 0.000000 
0.000000 -21.011099 0.000000 
0.000000 0.000000 0.000000 

-0.709500 0.205422 0.000000 
0.000000 -1.076418 0.000000 
0.000000 0.000000 0.000000 

-0.312151 0.052224 0.000000 
0.000000 -0.446763 0.000000 
0.000000 0.000000 0.000000 

-0.427787 0.054774 0.000000 
0.000000 -0.541373 0.000000 
0.000000 0.000000 0.000000 

TENSORS STRAIN float 
0.043914 -0.019725 0.000000 
0.000000 -0.266603 0.000000 
0.000000 0.000000 0.000000 

0.023905 -0.051832 0.000000 
0.000000 0.016331 0.000000 
0.000000 0.000000 0.000000 

0.004711 -0.006383 0.000000 
0.000000 -0.009169 0.000000 
0.000000 0.000000 0.000000 

0.001284 -0.007171 0.000000 
0.000000 -0.009167 0.000000 
0.000000 0.000000 0.000000 

0.000370 -0.000685 0.000000 
0.000000 -0.000356 0.000000 
0.000000 0.000000 0.000000 

0.000189 -0.000325 0.000000 
0.000000 -0.000600 0.000000 
0.000000 0.000000 0.000000 

0.000055 -0.000349 0.000000 
0.000000 -0.000600 0.000000 
0.000000 0.000000 0.000000 

0.000014 -0.000030 0.000000 
0.000000 -0.000040 0.000000 
0.000000 0.000000 0.000000 

0.000004 -0.000008 0.000000 
0.000000 -0.000015 0.000000 
0.000000 0.000000 0.000000 

0.000001 -0.000008 0.000000 
0.000000 -0.000015 0.000000 
0.000000 0.000000 0.000000 

0.052071 -0.008554 0.000000 
0.000000 -0.266793 0.000000 
0.000000 0.000000 0.000000 

0.027563 -0.025276 0.000000 
0.000000 0.015942 0.000000 
0.000000 0.000000 0.000000 

0.004553 -0.004546 0.000000 
0.000000 -0.008674 0.000000 
0.000000 0.000000 0.000000 

0.001181 -0.004460 0.000000 
0.000000 -0.008674 0.000000 
0.000000 0.000000 0.000000 

0.000383 -0.000771 0.000000 
0.000000 -0.000295 0.000000 
0.000000 0.000000 0.000000 

0.000234 -0.000236 0.000000 
0.000000 -0.000589 0.000000 
0.000000 0.000000 0.000000 

0.000067 -0.000221 0.000000 
0.000000 -0.000589 0.000000 
0.000000 0.000000 0.000000 

0.000016 -0.000022 0.000000 
0.000000 -0.000039 0.000000 
0.000000 0.000000 0.000000 

0.000005 -0.000005 0.000000 
0.000000 -0.000015 0.000000 
0.000000 0.000000 0.000000 

0.000001 -0.000005 0.000000 
0.000000 -0.000015 0.000000 
0.000000 0.000000 0.000000 

0.052080 0.003062 0.000000 
0.000000 -0.267922 0.000000 
0.000000 0.000000 0.000000 

0.027564 0.004510 0.000000 
0.000000 0.017253 0.000000 
0.000000 0.000000 0.000000 

0.004552 -0.001170 0.000000 
0.000000 -0.008757 0.000000 
0.000000 0.000000 0.000000 

0.001181 -0.001085 0.000000 
0.000000 -0.008757 0.000000 
0.000000 0.000000 0.000000 

0.000383 -0.000627 0.000000 
0.000000 -0.000403 0.000000 
0.000000 0.000000 0.000000 

0.000234 -0.000069 0.000000 
0.000000 -0.000604 0.000000 
0.000000 0.000000 0.000000 

0.000067 -0.000054 0.000000 
0.000000 -0.000604 0.000000 
0.000000 0.000000 0.000000 

0.000016 -0.000009 0.000000 
0.000000 -0.000040 0.000000 
0.000000 0.000000 0.000000 

0.000005 -0.000002 0.000000 
0.000000 -0.000016 0.000000 
0.000000 0.000000 0.000000 

0.000001 -0.000001 0.000000 
0.000000 -0.000016 0.000000 
0.000000 0.000000 0.000000 

-0.021958 0.000374 0.000000 
0.000000 -0.268613 0.000000 
0.000000 0.000000 0.000000 

-0.010899 -0.001248 0.000000 
0.000000 0.018556 0.000000 
0.000000 0.000000 0.000000 

-0.000678 -0.001881 0.000000 
0.000000 -0.009043 0.000000 
0.000000 0.000000 0.000000 

0.000169 -0.001546 0.000000 
0.000000 -0.009043 0.000000 
0.000000 0.000000 0.000000 

0.000122 -0.000619 0.000000 
0.000000 -0.000671 0.000000 
0.000000 0.000000 0.000000 

-0.000054 -0.000119 0.000000 
0.000000 -0.000647 0.000000 
0.000000 0.000000 0.000000 

-0.000016 -0.000070 0.000000 
0.000000 -0.000647 0.000000 
0.000000 0.000000 0.000000 

-0.000004 -0.000014 0.000000 
0.000000 -0.000046 0.000000 
0.000000 0.000000 0.000000 

-0.000001 -0.000003 0.000000 
0.000000 -0.000017 0.000000 
0.000000 0.000000 0.000000 

-0.000000 -0.000002 0.000000 
0.000000 -0.000017 0.000000 
0.000000 0.000000 0.000000 

0.025903 -0.002785 0.000000 
0.000000 -0.269069 0.000000 
0.000000 0.000000 0.000000 

0.014067 -0.007164 0.000000 
0.000000 0.019522 0.000000 
0.000000 0.000000 0.000000 

0.002840 -0.000996 0.000000 
0.000000 -0.009287 0.000000 
0.000000 0.000000 0.000000 

0.000851 -0.000996 0.000000 
0.000000 -0.009287 0.000000 
0.000000 0.000000 0.000000 

0.000287 -0.000080 0.000000 
0.000000 -0.000894 0.000000 
0.000000 0.000000 0.000000 

0.000142 -0.000047 0.000000 
0.000000 -0.000683 0.000000 