# vtk DataFile Version 3.0 
vtk output 
ASCII 
DATASET UNSTRUCTURED_GRID 
POINTS 100 float 
0.484069 -2.916522 0.000000 
0.466116 -2.830840 0.000000 
0.455735 -2.742623 0.000000 
0.453895 -2.642053 0.000000 
0.451521 -2.542525 0.000000 
0.450782 -2.442707 0.000000 
0.450529 -2.342729 0.000000 
0.450337 -2.242835 0.000000 
0.450176 -2.142955 0.000000 
0.450114 -2.043006 0.000000 
0.366265 -2.919933 0.000000 
0.359189 -2.835387 0.000000 
0.355037 -2.745302 0.000000 
0.353174 -2.643325 0.000000 
0.351247 -2.542949 0.000000 
0.350611 -2.442903 0.000000 
0.350376 -2.342825 0.000000 
0.350216 -2.242870 0.000000 
0.350110 -2.142968 0.000000 
0.350072 -2.043012 0.000000 
0.251820 -2.921097 0.000000 
0.255251 -2.836760 0.000000 
0.255139 -2.745132 0.000000 
0.252556 -2.643438 0.000000 
0.251082 -2.543287 0.000000 
0.250569 -2.443023 0.000000 
0.250308 -2.342862 0.000000 
0.250129 -2.242874 0.000000 
0.250060 -2.142962 0.000000 
0.250039 -2.043003 0.000000 
0.153169 -2.921359 0.000000 
0.152790 -2.836858 0.000000 
0.152096 -2.744201 0.000000 
0.151375 -2.642899 0.000000 
0.150829 -2.543014 0.000000 
0.150420 -2.442848 0.000000 
0.150223 -2.342759 0.000000 
0.150096 -2.242833 0.000000 
0.150049 -2.142935 0.000000 
0.150032 -2.042981 0.000000 
0.054502 -2.921412 0.000000 
0.050700 -2.836681 0.000000 
0.049552 -2.743366 0.000000 
0.050273 -2.642382 0.000000 
0.050408 -2.542703 0.000000 
0.050190 -2.442667 0.000000 
0.050103 -2.342660 0.000000 
0.050054 -2.242795 0.000000 
0.050031 -2.142910 0.000000 
0.050020 -2.042962 0.000000 
-0.054502 -2.921412 0.000000 
-0.050700 -2.836681 0.000000 
-0.049552 -2.743366 0.000000 
-0.050273 -2.642382 0.000000 
-0.050408 -2.542703 0.000000 
-0.050190 -2.442667 0.000000 
-0.050103 -2.342660 0.000000 
-0.050054 -2.242795 0.000000 
-0.050031 -2.142910 0.000000 
-0.050020 -2.042962 0.000000 
-0.153169 -2.921359 0.000000 
-0.152790 -2.836858 0.000000 
-0.152096 -2.744201 0.000000 
-0.151375 -2.642899 0.000000 
-0.150829 -2.543014 0.000000 
-0.150420 -2.442848 0.000000 
-0.150223 -2.342759 0.000000 
-0.150096 -2.242833 0.000000 
-0.150049 -2.142935 0.000000 
-0.150032 -2.042981 0.000000 
-0.251820 -2.921097 0.000000 
-0.255251 -2.836760 0.000000 
-0.255139 -2.745132 0.000000 
-0.252556 -2.643438 0.000000 
-0.251082 -2.543287 0.000000 
-0.250569 -2.443023 0.000000 
-0.250308 -2.342862 0.000000 
-0.250129 -2.242874 0.000000 
-0.250060 -2.142962 0.000000 
-0.250039 -2.043003 0.000000 
-0.366265 -2.919933 0.000000 
-0.359189 -2.835387 0.000000 
-0.355037 -2.745302 0.000000 
-0.353174 -2.643325 0.000000 
-0.351247 -2.542949 0.000000 
-0.350611 -2.442903 0.000000 
-0.350376 -2.342825 0.000000 
-0.350216 -2.242870 0.000000 
-0.350110 -2.142968 0.000000 
-0.350072 -2.043012 0.000000 
-0.484069 -2.916522 0.000000 
-0.466116 -2.830840 0.000000 
-0.455735 -2.742623 0.000000 
-0.453895 -2.642053 0.000000 
-0.451521 -2.542525 0.000000 
-0.450782 -2.442707 0.000000 
-0.450529 -2.342729 0.000000 
-0.450337 -2.242835 0.000000 
-0.450176 -2.142955 0.000000 
-0.450114 -2.043006 0.000000 
CELLS 100 200 
1 0 
1 1 
1 2 
1 3 
1 4 
1 5 
1 6 
1 7 
1 8 
1 9 
1 10 
1 11 
1 12 
1 13 
1 14 
1 15 
1 16 
1 17 
1 18 
1 19 
1 20 
1 21 
1 22 
1 23 
1 24 
1 25 
1 26 
1 27 
1 28 
1 29 
1 30 
1 31 
1 32 
1 33 
1 34 
1 35 
1 36 
1 37 
1 38 
1 39 
1 40 
1 41 
1 42 
1 43 
1 44 
1 45 
1 46 
1 47 
1 48 
1 49 
1 50 
1 51 
1 52 
1 53 
1 54 
1 55 
1 56 
1 57 
1 58 
1 59 
1 60 
1 61 
1 62 
1 63 
1 64 
1 65 
1 66 
1 67 
1 68 
1 69 
1 70 
1 71 
1 72 
1 73 
1 74 
1 75 
1 76 
1 77 
1 78 
1 79 
1 80 
1 81 
1 82 
1 83 
1 84 
1 85 
1 86 
1 87 
1 88 
1 89 
1 90 
1 91 
1 92 
1 93 
1 94 
1 95 
1 96 
1 97 
1 98 
1 99 
CELL_TYPES 100 
1 
1 
1 
1 
1 
1 
1 
1 
1 
1 
1 
1 
1 
1 
1 
1 
1 
1 
1 
1 
1 
1 
1 
1 
1 
1 
1 
1 
1 
1 
1 
1 
1 
1 
1 
1 
1 
1 
1 
1 
1 
1 
1 
1 
1 
1 
1 
1 
1 
1 
1 
1 
1 
1 
1 
1 
1 
1 
1 
1 
1 
1 
1 
1 
1 
1 
1 
1 
1 
1 
1 
1 
1 
1 
1 
1 
1 
1 
1 
1 
1 
1 
1 
1 
1 
1 
1 
1 
1 
1 
1 
1 
1 
1 
1 
1 
1 
1 
1 
1 
POINT_DATA 100 
VECTORS X_GC float 
0.484069 -2.916522 0.000000 
0.466116 -2.830840 0.000000 
0.455735 -2.742623 0.000000 
0.453895 -2.642053 0.000000 
0.451521 -2.542525 0.000000 
0.450782 -2.442707 0.000000 
0.450529 -2.342729 0.000000 
0.450337 -2.242835 0.000000 
0.450176 -2.142955 0.000000 
0.450114 -2.043006 0.000000 
0.366265 -2.919933 0.000000 
0.359189 -2.835387 0.000000 
0.355037 -2.745302 0.000000 
0.353174 -2.643325 0.000000 
0.351247 -2.542949 0.000000 
0.350611 -2.442903 0.000000 
0.350376 -2.342825 0.000000 
0.350216 -2.242870 0.000000 
0.350110 -2.142968 0.000000 
0.350072 -2.043012 0.000000 
0.251820 -2.921097 0.000000 
0.255251 -2.836760 0.000000 
0.255139 -2.745132 0.000000 
0.252556 -2.643438 0.000000 
0.251082 -2.543287 0.000000 
0.250569 -2.443023 0.000000 
0.250308 -2.342862 0.000000 
0.250129 -2.242874 0.000000 
0.250060 -2.142962 0.000000 
0.250039 -2.043003 0.000000 
0.153169 -2.921359 0.000000 
0.152790 -2.836858 0.000000 
0.152096 -2.744201 0.000000 
0.151375 -2.642899 0.000000 
0.150829 -2.543014 0.000000 
0.150420 -2.442848 0.000000 
0.150223 -2.342759 0.000000 
0.150096 -2.242833 0.000000 
0.150049 -2.142935 0.000000 
0.150032 -2.042981 0.000000 
0.054502 -2.921412 0.000000 
0.050700 -2.836681 0.000000 
0.049552 -2.743366 0.000000 
0.050273 -2.642382 0.000000 
0.050408 -2.542703 0.000000 
0.050190 -2.442667 0.000000 
0.050103 -2.342660 0.000000 
0.050054 -2.242795 0.000000 
0.050031 -2.142910 0.000000 
0.050020 -2.042962 0.000000 
-0.054502 -2.921412 0.000000 
-0.050700 -2.836681 0.000000 
-0.049552 -2.743366 0.000000 
-0.050273 -2.642382 0.000000 
-0.050408 -2.542703 0.000000 
-0.050190 -2.442667 0.000000 
-0.050103 -2.342660 0.000000 
-0.050054 -2.242795 0.000000 
-0.050031 -2.142910 0.000000 
-0.050020 -2.042962 0.000000 
-0.153169 -2.921359 0.000000 
-0.152790 -2.836858 0.000000 
-0.152096 -2.744201 0.000000 
-0.151375 -2.642899 0.000000 
-0.150829 -2.543014 0.000000 
-0.150420 -2.442848 0.000000 
-0.150223 -2.342759 0.000000 
-0.150096 -2.242833 0.000000 
-0.150049 -2.142935 0.000000 
-0.150032 -2.042981 0.000000 
-0.251820 -2.921097 0.000000 
-0.255251 -2.836760 0.000000 
-0.255139 -2.745132 0.000000 
-0.252556 -2.643438 0.000000 
-0.251082 -2.543287 0.000000 
-0.250569 -2.443023 0.000000 
-0.250308 -2.342862 0.000000 
-0.250129 -2.242874 0.000000 
-0.250060 -2.142962 0.000000 
-0.250039 -2.043003 0.000000 
-0.366265 -2.919933 0.000000 
-0.359189 -2.835387 0.000000 
-0.355037 -2.745302 0.000000 
-0.353174 -2.643325 0.000000 
-0.351247 -2.542949 0.000000 
-0.350611 -2.442903 0.000000 
-0.350376 -2.342825 0.000000 
-0.350216 -2.242870 0.000000 
-0.350110 -2.142968 0.000000 
-0.350072 -2.043012 0.000000 
-0.484069 -2.916522 0.000000 
-0.466116 -2.830840 0.000000 
-0.455735 -2.742623 0.000000 
-0.453895 -2.642053 0.000000 
-0.451521 -2.542525 0.000000 
-0.450782 -2.442707 0.000000 
-0.450529 -2.342729 0.000000 
-0.450337 -2.242835 0.000000 
-0.450176 -2.142955 0.000000 
-0.450114 -2.043006 0.000000 
VECTORS X_EC float 
-0.292891 -0.126956 0.000000 
-0.059503 0.716343 0.000000 
0.075442 -0.474594 0.000000 
0.099367 0.167717 0.000000 
0.130221 0.824089 0.000000 
0.139831 -0.523451 0.000000 
0.143125 0.126839 0.000000 
0.145622 0.778266 0.000000 
0.147717 -0.570113 0.000000 
0.148517 0.080583 0.000000 
-0.761442 -0.080905 0.000000 
-0.669459 0.777727 0.000000 
-0.615479 -0.438422 0.000000 
-0.591264 0.184889 0.000000 
-0.566209 0.829814 0.000000 
-0.557947 -0.520815 0.000000 
-0.554892 0.128142 0.000000 
-0.552809 0.778741 0.000000 
-0.551430 -0.569929 0.000000 
-0.550936 0.080662 0.000000 
0.726345 -0.065190 0.000000 
0.681737 0.796263 0.000000 
0.683188 -0.440724 0.000000 
0.716767 0.186419 0.000000 
0.735928 0.834378 0.000000 
0.742605 -0.519186 0.000000 
0.746000 0.128632 0.000000 
0.748329 0.778800 0.000000 
0.749217 -0.570007 0.000000 
0.749491 0.080542 0.000000 
0.008803 -0.061651 0.000000 
0.013732 0.797584 0.000000 
0.022751 -0.453288 0.000000 
0.032119 0.179141 0.000000 
0.039221 0.830686 0.000000 
0.044540 -0.521552 0.000000 
0.047100 0.127246 0.000000 
0.048747 0.778242 0.000000 
0.049360 -0.570382 0.000000 
0.049588 0.080241 0.000000 
-0.708528 -0.060939 0.000000 
-0.659101 0.795189 0.000000 
-0.644171 -0.464556 0.000000 
-0.653555 0.172159 0.000000 
-0.655308 0.826491 0.000000 
-0.652470 -0.523993 0.000000 
-0.651338 0.125904 0.000000 
-0.650698 0.777726 0.000000 
-0.650405 -0.570709 0.000000 
-0.650259 0.079990 0.000000 
0.708528 -0.060939 0.000000 
0.659101 0.795189 0.000000 
0.644171 -0.464556 0.000000 
0.653555 0.172159 0.000000 
0.655308 0.826491 0.000000 
0.652470 -0.523993 0.000000 
0.651338 0.125904 0.000000 
0.650698 0.777726 0.000000 
0.650405 -0.570709 0.000000 
0.650259 0.079990 0.000000 
-0.008803 -0.061651 0.000000 
-0.013732 0.797584 0.000000 
-0.022751 -0.453288 0.000000 
-0.032119 0.179141 0.000000 
-0.039221 0.830686 0.000000 
-0.044540 -0.521552 0.000000 
-0.047100 0.127246 0.000000 
-0.048747 0.778242 0.000000 
-0.049360 -0.570382 0.000000 
-0.049588 0.080241 0.000000 
-0.726345 -0.065190 0.000000 
-0.681737 0.796263 0.000000 
-0.683188 -0.440724 0.000000 
-0.716767 0.186419 0.000000 
-0.735928 0.834378 0.000000 
-0.742605 -0.519186 0.000000 
-0.746000 0.128632 0.000000 
-0.748329 0.778800 0.000000 
-0.749217 -0.570007 0.000000 
-0.749491 0.080542 0.000000 
0.761442 -0.080905 0.000000 
0.669459 0.777727 0.000000 
0.615479 -0.438422 0.000000 
0.591264 0.184889 0.000000 
0.566209 0.829814 0.000000 
0.557947 -0.520815 0.000000 
0.554892 0.128142 0.000000 
0.552809 0.778741 0.000000 
0.551430 -0.569929 0.000000 
0.550936 0.080662 0.000000 
0.292891 -0.126956 0.000000 
0.059503 0.716343 0.000000 
-0.075442 -0.474594 0.000000 
-0.099367 0.167717 0.000000 
-0.130221 0.824089 0.000000 
-0.139831 -0.523451 0.000000 
-0.143125 0.126839 0.000000 
-0.145622 0.778266 0.000000 
-0.147717 -0.570113 0.000000 
-0.148517 0.080583 0.000000 
CELL_DATA 100 
SCALARS MASS float 
LOOKUP_TABLE default 
10.000000 
10.000000 
10.000000 
10.000000 
10.000000 
10.000000 
10.000000 
10.000000 
10.000000 
10.000000 
10.000000 
10.000000 
10.000000 
10.000000 
10.000000 
10.000000 
10.000000 
10.000000 
10.000000 
10.000000 
10.000000 
10.000000 
10.000000 
10.000000 
10.000000 
10.000000 
10.000000 
10.000000 
10.000000 
10.000000 
10.000000 
10.000000 
10.000000 
10.000000 
10.000000 
10.000000 
10.000000 
10.000000 
10.000000 
10.000000 
10.000000 
10.000000 
10.000000 
10.000000 
10.000000 
10.000000 
10.000000 
10.000000 
10.000000 
10.000000 
10.000000 
10.000000 
10.000000 
10.000000 
10.000000 
10.000000 
10.000000 
10.000000 
10.000000 
10.000000 
10.000000 
10.000000 
10.000000 
10.000000 
10.000000 
10.000000 
10.000000 
10.000000 
10.000000 
10.000000 
10.000000 
10.000000 
10.000000 
10.000000 
10.000000 
10.000000 
10.000000 
10.000000 
10.000000 
10.000000 
10.000000 
10.000000 
10.000000 
10.000000 
10.000000 
10.000000 
10.000000 
10.000000 
10.000000 
10.000000 
10.000000 
10.000000 
10.000000 
10.000000 
10.000000 
10.000000 
10.000000 
10.000000 
10.000000 
10.000000 
SCALARS MASS float 
LOOKUP_TABLE default 
10.000000 
10.000000 
10.000000 
10.000000 
10.000000 
10.000000 
10.000000 
10.000000 
10.000000 
10.000000 
10.000000 
10.000000 
10.000000 
10.000000 
10.000000 
10.000000 
10.000000 
10.000000 
10.000000 
10.000000 
10.000000 
10.000000 
10.000000 
10.000000 
10.000000 
10.000000 
10.000000 
10.000000 
10.000000 
10.000000 
10.000000 
10.000000 
10.000000 
10.000000 
10.000000 
10.000000 
10.000000 
10.000000 
10.000000 
10.000000 
10.000000 
10.000000 
10.000000 
10.000000 
10.000000 
10.000000 
10.000000 
10.000000 
10.000000 
10.000000 
10.000000 
10.000000 
10.000000 
10.000000 
10.000000 
10.000000 
10.000000 
10.000000 
10.000000 
10.000000 
10.000000 
10.000000 
10.000000 
10.000000 
10.000000 
10.000000 
10.000000 
10.000000 
10.000000 
10.000000 
10.000000 
10.000000 
10.000000 
10.000000 
10.000000 
10.000000 
10.000000 
10.000000 
10.000000 
10.000000 
10.000000 
10.000000 
10.000000 
10.000000 
10.000000 
10.000000 
10.000000 
10.000000 
10.000000 
10.000000 
10.000000 
10.000000 
10.000000 
10.000000 
10.000000 
10.000000 
10.000000 
10.000000 
10.000000 
10.000000 
SCALARS DENSITY float 
LOOKUP_TABLE default 
129189.449202 
648.669788 
1520.596291 
969.714795 
1003.679263 
1011.237002 
1007.434412 
1004.603325 
1003.607282 
1000.939833 
143319.629106 
688.965894 
1585.906957 
944.120906 
996.999881 
1006.315227 
1006.139998 
1004.108365 
1003.208686 
1000.778996 
164528.702895 
626.548202 
1494.873523 
952.006305 
998.906729 
1004.896102 
1005.542172 
1004.277705 
1003.229975 
1000.790304 
2770674.334563 
1193.230161 
1243.627777 
908.670429 
1017.568378 
1019.351595 
1013.615939 
1009.054898 
1005.539375 
1001.932790 
399441.966151 
691.635197 
1369.966322 
984.506462 
1015.198810 
1008.183803 
1007.917753 
1006.349638 
1004.718680 
1001.161883 
399441.966151 
691.635197 
1369.966322 
984.506462 
1015.198810 
1008.183803 
1007.917753 
1006.349638 
1004.718680 
1001.161883 
2770674.334563 
1193.230161 
1243.627777 
908.670429 
1017.568378 
1019.351595 
1013.615939 
1009.054898 
1005.539375 
1001.932790 
164528.702895 
626.548202 
1494.873523 
952.006305 
998.906729 
1004.896102 
1005.542172 
1004.277705 
1003.229975 
1000.790304 
143319.629106 
688.965894 
1585.906957 
944.120906 
996.999881 
1006.315227 
1006.139998 
1004.108365 
1003.208686 
1000.778996 
129189.449202 
648.669788 
1520.596291 
969.714795 
1003.679263 
1011.237002 
1007.434412 
1004.603325 
1003.607282 
1000.939833 
SCALARS ELEM_i float 
LOOKUP_TABLE default 
81 
82 
82 
83 
84 
84 
85 
86 
86 
87 
108 
109 
109 
110 
111 
111 
112 
113 
113 
114 
108 
109 
109 
110 
111 
111 
112 
113 
113 
114 
135 
136 
136 
137 
138 
138 
139 
140 
140 
141 
162 
163 
163 
164 
165 
165 
166 
167 
167 
168 
162 
163 
163 
164 
165 
165 
166 
167 
167 
168 
189 
190 
190 
191 
192 
192 
193 
194 
194 
195 
216 
217 
217 
218 
219 
219 
220 
221 
221 
222 
216 
217 
217 
218 
219 
219 
220 
221 
221 
222 
243 
244 
244 
245 
246 
246 
247 
248 
248 
249 
VECTORS VELOCITY float 
3.831470 -9.559105 0.000000 
-0.993854 -0.014294 0.000000 
1.891324 -6.945644 0.000000 
1.708230 -5.525433 0.000000 
-0.215749 -7.286248 0.000000 
0.078181 -6.999290 0.000000 
0.148809 -6.860479 0.000000 
0.088015 -6.940166 0.000000 
0.060821 -6.910088 0.000000 
0.039453 -6.924038 0.000000 
0.882808 -12.571429 0.000000 
-0.230791 -3.269507 0.000000 
1.380259 -8.218457 0.000000 
0.846250 -5.979732 0.000000 
-0.091076 -7.491486 0.000000 
0.065713 -7.116699 0.000000 
0.077030 -6.929751 0.000000 
0.035372 -6.966073 0.000000 
0.027359 -6.921680 0.000000 
0.018942 -6.930557 0.000000 
-0.128944 -12.240841 0.000000 
2.298146 -2.914280 0.000000 
1.034749 -7.697815 0.000000 
-0.030506 -6.065682 0.000000 
0.191911 -7.763306 0.000000 
0.199645 -7.182752 0.000000 
0.100410 -6.950216 0.000000 
0.029723 -6.973047 0.000000 
0.018092 -6.918571 0.000000 
0.013496 -6.925996 0.000000 
0.442103 -12.071024 0.000000 
0.238794 -2.717565 0.000000 
0.051582 -7.511897 0.000000 
0.168910 -6.145212 0.000000 
0.241126 -7.709630 0.000000 
0.113618 -7.116455 0.000000 
0.052228 -6.925487 0.000000 
0.022865 -6.972258 0.000000 
0.018909 -6.906849 0.000000 
0.012460 -6.916043 0.000000 
0.653332 -11.951758 0.000000 
-1.480065 -2.608506 0.000000 
-0.431918 -7.454401 0.000000 
0.341817 -6.200122 0.000000 
0.151466 -7.611384 0.000000 
0.007340 -7.044594 0.000000 
0.002804 -6.899524 0.000000 
0.011450 -6.970325 0.000000 
0.013824 -6.896775 0.000000 
0.008105 -6.907831 0.000000 
-0.653332 -11.951758 0.000000 
1.480065 -2.608506 0.000000 
0.431918 -7.454401 0.000000 
-0.341817 -6.200122 0.000000 
-0.151466 -7.611384 0.000000 
-0.007340 -7.044594 0.000000 
-0.002804 -6.899524 0.000000 
-0.011450 -6.970325 0.000000 
-0.013824 -6.896775 0.000000 
-0.008105 -6.907831 0.000000 
-0.442103 -12.071024 0.000000 
-0.238794 -2.717565 0.000000 
-0.051582 -7.511897 0.000000 
-0.168910 -6.145212 0.000000 
-0.241126 -7.709630 0.000000 
-0.113618 -7.116455 0.000000 
-0.052228 -6.925487 0.000000 
-0.022865 -6.972258 0.000000 
-0.018909 -6.906849 0.000000 
-0.012460 -6.916043 0.000000 
0.128944 -12.240841 0.000000 
-2.298146 -2.914280 0.000000 
-1.034749 -7.697815 0.000000 
0.030506 -6.065682 0.000000 
-0.191911 -7.763306 0.000000 
-0.199645 -7.182752 0.000000 
-0.100410 -6.950216 0.000000 
-0.029723 -6.973047 0.000000 
-0.018092 -6.918571 0.000000 
-0.013496 -6.925996 0.000000 
-0.882808 -12.571429 0.000000 
0.230791 -3.269507 0.000000 
-1.380259 -8.218457 0.000000 
-0.846250 -5.979732 0.000000 
0.091076 -7.491486 0.000000 
-0.065713 -7.116699 0.000000 
-0.077030 -6.929751 0.000000 
-0.035372 -6.966073 0.000000 
-0.027359 -6.921680 0.000000 
-0.018942 -6.930557 0.000000 
-3.831470 -9.559105 0.000000 
0.993854 -0.014294 0.000000 
-1.891324 -6.945644 0.000000 
-1.708230 -5.525433 0.000000 
0.215749 -7.286248 0.000000 
-0.078181 -6.999290 0.000000 
-0.148809 -6.860479 0.000000 
-0.088015 -6.940166 0.000000 
-0.060821 -6.910088 0.000000 
-0.039453 -6.924038 0.000000 
TENSORS STRESS float 
-82.368021 -5.082503 0.000000 
0.000000 -118.022337 0.000000 
0.000000 0.000000 0.000000 

1307.654815 -1248.260290 0.000000 
0.000000 -231.429987 0.000000 
0.000000 0.000000 0.000000 

-1552.778861 -168.836836 0.000000 
0.000000 -1968.541610 0.000000 
0.000000 0.000000 0.000000 

438.418724 6.100814 0.000000 
0.000000 505.704660 0.000000 
0.000000 0.000000 0.000000 

19.068714 -42.595070 0.000000 
0.000000 -32.004037 0.000000 
0.000000 0.000000 0.000000 

-38.533567 -44.605985 0.000000 
0.000000 -73.758443 0.000000 
0.000000 0.000000 0.000000 

22.816819 -9.383124 0.000000 
0.000000 10.967082 0.000000 
0.000000 0.000000 0.000000 

-12.792642 -8.110918 0.000000 
0.000000 -28.444182 0.000000 
0.000000 0.000000 0.000000 

-17.471501 -7.417317 0.000000 
0.000000 -27.708477 0.000000 
0.000000 0.000000 0.000000 

-0.344347 -1.992688 0.000000 
0.000000 -4.555320 0.000000 
0.000000 0.000000 0.000000 

-83.261553 -1.630160 0.000000 
0.000000 -115.340681 0.000000 
0.000000 0.000000 0.000000 

146.925019 -452.254136 0.000000 
0.000000 -1054.401935 0.000000 
0.000000 0.000000 0.000000 

-1632.835283 -102.554426 0.000000 
0.000000 -1961.849076 0.000000 
0.000000 0.000000 0.000000 

686.836296 -113.907404 0.000000 
0.000000 839.386717 0.000000 
0.000000 0.000000 0.000000 

71.810096 -42.800367 0.000000 
0.000000 32.139404 0.000000 
0.000000 0.000000 0.000000 

-5.621169 -36.254466 0.000000 
0.000000 -27.606382 0.000000 
0.000000 0.000000 0.000000 

25.808946 -10.368489 0.000000 
0.000000 18.606320 0.000000 
0.000000 0.000000 0.000000 

-9.354707 -7.040581 0.000000 
0.000000 -24.187081 0.000000 
0.000000 0.000000 0.000000 

-13.355672 -6.080028 0.000000 
0.000000 -22.935585 0.000000 
0.000000 0.000000 0.000000 

1.150015 -1.936081 0.000000 
0.000000 -3.043634 0.000000 
0.000000 0.000000 0.000000 

-75.667537 1.403678 0.000000 
0.000000 -104.346483 0.000000 
0.000000 0.000000 0.000000 

983.664732 280.368279 0.000000 
0.000000 -157.367586 0.000000 
0.000000 0.000000 0.000000 

-1479.558425 7.846656 0.000000 
0.000000 -1771.582733 0.000000 
0.000000 0.000000 0.000000 

633.018104 -156.122390 0.000000 
0.000000 773.357579 0.000000 
0.000000 0.000000 0.000000 

93.225078 -27.050844 0.000000 
0.000000 58.399060 0.000000 
0.000000 0.000000 0.000000 

26.314534 -21.275927 0.000000 
0.000000 11.391554 0.000000 
0.000000 0.000000 0.000000 

35.325477 -10.120722 0.000000 
0.000000 30.230437 0.000000 
0.000000 0.000000 0.000000 

-8.453072 -4.212345 0.000000 
0.000000 -23.082619 0.000000 
0.000000 0.000000 0.000000 

-11.893123 -3.921007 0.000000 
0.000000 -21.147721 0.000000 
0.000000 0.000000 0.000000 

1.428096 -1.118804 0.000000 
0.000000 -2.703647 0.000000 
0.000000 0.000000 0.000000 

-6.852527 0.007905 0.000000 
0.000000 -8.149092 0.000000 
0.000000 0.000000 0.000000 

-950.055530 -41.196749 0.000000 
0.000000 -1156.952049 0.000000 
0.000000 0.000000 0.000000 

-530.778246 -93.808245 0.000000 
0.000000 -1027.028889 0.000000 
0.000000 0.000000 0.000000 

1187.222973 -118.160808 0.000000 
0.000000 1175.076837 0.000000 
0.000000 0.000000 0.000000 

20.827394 -44.788836 0.000000 
0.000000 -14.976284 0.000000 
0.000000 0.000000 0.000000 

-9.283601 -28.892698 0.000000 
0.000000 -22.937026 0.000000 
0.000000 0.000000 0.000000 

1.474577 -17.197288 0.000000 
0.000000 -4.659256 0.000000 
0.000000 0.000000 0.000000 

-41.287266 -6.528266 0.000000 
0.000000 -52.566299 0.000000 
0.000000 0.000000 0.000000 

-31.742107 -4.229696 0.000000 
0.000000 -39.403737 0.000000 
0.000000 0.000000 0.000000 

-9.841749 -1.775966 0.000000 
0.000000 -12.252296 0.000000 
0.000000 0.000000 0.000000 

-36.541579 -0.340026 0.000000 
0.000000 -47.593110 0.000000 
0.000000 0.000000 0.000000 

606.045701 -212.513448 0.000000 
0.000000 -13.326823 0.000000 
0.000000 0.000000 0.000000 

-1301.749015 -52.500283 0.000000 
0.000000 -1557.720810 0.000000 
0.000000 0.000000 0.000000 

366.268625 27.209621 0.000000 
0.000000 437.025963 0.000000 
0.000000 0.000000 0.000000 

108.963610 -8.069427 0.000000 
0.000000 42.320637 0.000000 
0.000000 0.000000 0.000000 

82.642220 -7.353310 0.000000 
0.000000 44.927596 0.000000 
0.000000 0.000000 0.000000 

43.419453 -5.219219 0.000000 
0.000000 22.400442 0.000000 
0.000000 0.000000 0.000000 

-18.406652 -1.691385 0.000000 
0.000000 -36.407641 0.000000 
0.000000 0.000000 0.000000 

-21.879948 -1.335725 0.000000 
0.000000 -33.298423 0.000000 
0.000000 0.000000 0.000000 

-0.427178 -0.370126 0.000000 
0.000000 -4.873196 0.000000 
0.000000 0.000000 0.000000 

-36.541579 0.340026 0.000000 
0.000000 -47.593110 0.000000 
0.000000 0.000000 0.000000 

606.045701 212.513448 0.000000 
0.000000 -13.326823 0.000000 
0.000000 0.000000 0.000000 

-1301.749015 52.500283 0.000000 
0.000000 -1557.720810 0.000000 
0.000000 0.000000 0.000000 

366.268625 -27.209621 0.000000 
0.000000 437.025963 0.000000 
0.000000 0.000000 0.000000 

108.963610 8.069427 0.000000 
0.000000 42.320637 0.000000 
0.000000 0.000000 0.000000 

82.642220 7.353310 0.000000 
0.000000 44.927596 0.000000 
0.000000 0.000000 0.000000 

43.419453 5.219219 0.000000 
0.000000 22.400442 0.000000 
0.000000 0.000000 0.000000 

-18.406652 1.691385 0.000000 
0.000000 -36.407641 0.000000 
0.000000 0.000000 0.000000 

-21.879948 1.335725 0.000000 
0.000000 -33.298423 0.000000 
0.000000 0.000000 0.000000 

-0.427178 0.370126 0.000000 
0.000000 -4.873196 0.000000 
0.000000 0.000000 0.000000 

-6.852527 -0.007905 0.000000 
0.000000 -8.149092 0.000000 
0.000000 0.000000 0.000000 

-950.055530 41.196749 0.000000 
0.000000 -1156.952049 0.000000 
0.000000 0.000000 0.000000 

-530.778246 93.808245 0.000000 
0.000000 -1027.028889 0.000000 
0.000000 0.000000 0.000000 

1187.222973 118.160808 0.000000 
0.000000 1175.076837 0.000000 
0.000000 0.000000 0.000000 

20.827394 44.788836 0.000000 
0.000000 -14.976284 0.000000 
0.000000 0.000000 0.000000 

-9.283601 28.892698 0.000000 
0.000000 -22.937026 0.000000 
0.000000 0.000000 0.000000 

1.474577 17.197288 0.000000 
0.000000 -4.659256 0.000000 
0.000000 0.000000 0.000000 

-41.287266 6.528266 0.000000 
0.000000 -52.566299 0.000000 
0.000000 0.000000 0.000000 

-31.742107 4.229696 0.000000 
0.000000 -39.403737 0.000000 
0.000000 0.000000 0.000000 

-9.841749 1.775966 0.000000 
0.000000 -12.252296 0.000000 
0.000000 0.000000 0.000000 

-75.667537 -1.403678 0.000000 
0.000000 -104.346483 0.000000 
0.000000 0.000000 0.000000 

983.664732 -280.368279 0.000000 
0.000000 -157.367586 0.000000 
0.000000 0.000000 0.000000 

-1479.558425 -7.846656 0.000000 
0.000000 -1771.582733 0.000000 
0.000000 0.000000 0.000000 

633.018104 156.122390 0.000000 
0.000000 773.357579 0.000000 
0.000000 0.000000 0.000000 

93.225078 27.050844 0.000000 
0.000000 58.399060 0.000000 
0.000000 0.000000 0.000000 

26.314534 21.275927 0.000000 
0.000000 11.391554 0.000000 
0.000000 0.000000 0.000000 

35.325477 10.120722 0.000000 
0.000000 30.230437 0.000000 
0.000000 0.000000 0.000000 

-8.453072 4.212345 0.000000 
0.000000 -23.082619 0.000000 
0.000000 0.000000 0.000000 

-11.893123 3.921007 0.000000 
0.000000 -21.147721 0.000000 
0.000000 0.000000 0.000000 

1.428096 1.118804 0.000000 
0.000000 -2.703647 0.000000 
0.000000 0.000000 0.000000 

-83.261553 1.630160 0.000000 
0.000000 -115.340681 0.000000 
0.000000 0.000000 0.000000 

146.925019 452.254136 0.000000 
0.000000 -1054.401935 0.000000 
0.000000 0.000000 0.000000 

-1632.835283 102.554426 0.000000 
0.000000 -1961.849076 0.000000 
0.000000 0.000000 0.000000 

686.836296 113.907404 0.000000 
0.000000 839.386717 0.000000 
0.000000 0.000000 0.000000 

71.810096 42.800367 0.000000 
0.000000 32.139404 0.000000 
0.000000 0.000000 0.000000 

-5.621169 36.254466 0.000000 
0.000000 -27.606382 0.000000 
0.000000 0.000000 0.000000 

25.808946 10.368489 0.000000 
0.000000 18.606320 0.000000 
0.000000 0.000000 0.000000 

-9.354707 7.040581 0.000000 
0.000000 -24.187081 0.000000 
0.000000 0.000000 0.000000 

-13.355672 6.080028 0.000000 
0.000000 -22.935585 0.000000 
0.000000 0.000000 0.000000 

1.150015 1.936081 0.000000 
0.000000 -3.043634 0.000000 
0.000000 0.000000 0.000000 

-82.368021 5.082503 0.000000 
0.000000 -118.022337 0.000000 
0.000000 0.000000 0.000000 

1307.654815 1248.260290 0.000000 
0.000000 -231.429987 0.000000 
0.000000 0.000000 0.000000 

-1552.778861 168.836836 0.000000 
0.000000 -1968.541610 0.000000 
0.000000 0.000000 0.000000 

438.418724 -6.100814 0.000000 
0.000000 505.704660 0.000000 
0.000000 0.000000 0.000000 

19.068714 42.595070 0.000000 
0.000000 -32.004037 0.000000 
0.000000 0.000000 0.000000 

-38.533567 44.605985 0.000000 
0.000000 -73.758443 0.000000 
0.000000 0.000000 0.000000 

22.816819 9.383124 0.000000 
0.000000 10.967082 0.000000 
0.000000 0.000000 0.000000 

-12.792642 8.110918 0.000000 
0.000000 -28.444182 0.000000 
0.000000 0.000000 0.000000 

-17.471501 7.417317 0.000000 
0.000000 -27.708477 0.000000 
0.000000 0.000000 0.000000 

-0.344347 1.992688 0.000000 
0.000000 -4.555320 0.000000 
0.000000 0.000000 0.000000 

TENSORS STRAIN float 
0.146256 -0.095208 0.000000 
0.000000 -0.521637 0.000000 
0.000000 0.000000 0.000000 

0.077442 -0.117408 0.000000 
0.000000 -0.067320 0.000000 
0.000000 0.000000 0.000000 

0.007015 -0.037226 0.000000 
0.000000 -0.084655 0.000000 
0.000000 0.000000 0.000000 

0.001907 0.000858 0.000000 
0.000000 0.011368 0.000000 
0.000000 0.000000 0.000000 

0.003622 -0.006199 0.000000 
0.000000 -0.003811 0.000000 
0.000000 0.000000 0.000000 

0.001759 -0.006541 0.000000 
0.000000 -0.003406 0.000000 
0.000000 0.000000 0.000000 

0.001112 -0.001371 0.000000 
0.000000 -0.000619 0.000000 
0.000000 0.000000 0.000000 

0.000840 -0.001181 0.000000 
0.000000 -0.001440 0.000000 
0.000000 0.000000 0.000000 

0.000416 -0.001079 0.000000 
0.000000 -0.001074 0.000000 
0.000000 0.000000 0.000000 

0.000270 -0.000289 0.000000 
0.000000 -0.000341 0.000000 
0.000000 0.000000 0.000000 

0.126963 -0.033877 0.000000 
0.000000 -0.539685 0.000000 
0.000000 0.000000 0.000000 

0.055473 -0.045180 0.000000 
0.000000 -0.064539 0.000000 
0.000000 0.000000 0.000000 

-0.003502 -0.023583 0.000000 
0.000000 -0.079160 0.000000 
0.000000 0.000000 0.000000 

0.000005 -0.015594 0.000000 
0.000000 0.020889 0.000000 
0.000000 0.000000 0.000000 

0.003619 -0.006187 0.000000 
0.000000 -0.002116 0.000000 
0.000000 0.000000 0.000000 

0.001362 -0.005290 0.000000 
0.000000 -0.001846 0.000000 
0.000000 0.000000 0.000000 

0.000849 -0.001513 0.000000 
0.000000 -0.000201 0.000000 
0.000000 0.000000 0.000000 

0.000836 -0.001025 0.000000 
0.000000 -0.001324 0.000000 
0.000000 0.000000 0.000000 

0.000433 -0.000884 0.000000 
0.000000 -0.000961 0.000000 
0.000000 0.000000 0.000000 

0.000291 -0.000281 0.000000 
0.000000 -0.000318 0.000000 
0.000000 0.000000 0.000000 

0.127365 0.033487 0.000000 
0.000000 -0.556819 0.000000 
0.000000 0.000000 0.000000 

0.055585 0.025471 0.000000 
0.000000 -0.048078 0.000000 
0.000000 0.000000 0.000000 

-0.003586 0.001701 0.000000 
0.000000 -0.066884 0.000000 
0.000000 0.000000 0.000000 

0.000021 -0.021551 0.000000 
0.000000 0.019393 0.000000 
0.000000 0.000000 0.000000 

0.003620 -0.003918 0.000000 
0.000000 -0.001424 0.000000 
0.000000 0.000000 0.000000 

0.001362 -0.003100 0.000000 
0.000000 -0.000813 0.000000 
0.000000 0.000000 0.000000 

0.000849 -0.001476 0.000000 
0.000000 0.000106 0.000000 
0.000000 0.000000 0.000000 

0.000836 -0.000613 0.000000 
0.000000 -0.001295 0.000000 
0.000000 0.000000 0.000000 

0.000433 -0.000570 0.000000 
0.000000 -0.000913 0.000000 
0.000000 0.000000 0.000000 

0.000291 -0.000162 0.000000 
0.000000 -0.000309 0.000000 
0.000000 0.000000 0.000000 

-0.040897 0.003176 0.000000 
0.000000 -0.561789 0.000000 
0.000000 0.000000 0.000000 

-0.000329 -0.007128 0.000000 
0.000000 -0.036126 0.000000 
0.000000 0.000000 0.000000 

0.030698 -0.016916 0.000000 
0.000000 -0.058789 0.000000 
0.000000 0.000000 0.000000 

0.016363 -0.015569 0.000000 
0.000000 0.014762 0.000000 
0.000000 0.000000 0.000000 

0.002685 -0.006608 0.000000 
0.000000 -0.002598 0.000000 
0.000000 0.000000 0.000000 

0.000771 -0.004271 0.000000 
0.000000 -0.001247 0.000000 
0.000000 0.000000 0.000000 

0.000427 -0.002528 0.000000 
0.000000 -0.000474 0.000000 
0.000000 0.000000 0.000000 

0.000139 -0.000955 0.000000 
0.000000 -0.001512 0.000000 
0.000000 0.000000 0.000000 

0.000040 -0.000617 0.000000 
0.000000 -0.001077 0.000000 
0.000000 0.000000 0.000000 

0.000015 -0.000258 0.000000 
0.000000 -0.000336 0.000000 
0.000000 0.000000 0.000000 

0.076397 -0.019694 0.000000 
0.000000 -0.563697 0.000000 
0.000000 0.000000 0.000000 

0.034030 -0.021312 0.000000 
0.000000 -0.028085 0.000000 
0.000000 0.000000 0.000000 

-0.002977 -0.010429 0.000000 
0.000000 -0.053825 0.000000 
0.000000 0.000000 0.000000 

0.000683 0.003884 0.000000 
0.000000 0.010784 0.000000 
0.000000 0.000000 0.000000 

0.006019 -0.001188 0.000000 
0.000000 -0.003792 0.000000 
0.000000 0.000000 0.000000 
