# vtk DataFile Version 3.0 
vtk output 
ASCII 
DATASET UNSTRUCTURED_GRID 
POINTS 100 float 
0.458794 -2.883760 0.000000 
0.454050 -2.782810 0.000000 
0.450497 -2.684438 0.000000 
0.450239 -2.584537 0.000000 
0.450100 -2.484667 0.000000 
0.450016 -2.384775 0.000000 
0.450006 -2.284788 0.000000 
0.450002 -2.184793 0.000000 
0.450000 -2.084796 0.000000 
0.450000 -1.984796 0.000000 
0.353596 -2.883845 0.000000 
0.351763 -2.782899 0.000000 
0.350329 -2.684511 0.000000 
0.350125 -2.584567 0.000000 
0.350047 -2.484677 0.000000 
0.350009 -2.384775 0.000000 
0.350003 -2.284788 0.000000 
0.350001 -2.184793 0.000000 
0.350000 -2.084796 0.000000 
0.350000 -1.984796 0.000000 
0.248633 -2.883936 0.000000 
0.249608 -2.782900 0.000000 
0.250218 -2.684468 0.000000 
0.250040 -2.584545 0.000000 
0.250003 -2.484669 0.000000 
0.250002 -2.384775 0.000000 
0.250000 -2.284788 0.000000 
0.250000 -2.184793 0.000000 
0.250000 -2.084796 0.000000 
0.250000 -1.984796 0.000000 
0.150358 -2.884021 0.000000 
0.150217 -2.782881 0.000000 
0.150092 -2.684402 0.000000 
0.150038 -2.584510 0.000000 
0.150014 -2.484654 0.000000 
0.150003 -2.384773 0.000000 
0.150001 -2.284787 0.000000 
0.150000 -2.184793 0.000000 
0.150000 -2.084795 0.000000 
0.150000 -1.984796 0.000000 
0.051809 -2.884084 0.000000 
0.050743 -2.782865 0.000000 
0.049998 -2.684351 0.000000 
0.050034 -2.584481 0.000000 
0.050021 -2.484642 0.000000 
0.050003 -2.384771 0.000000 
0.050001 -2.284787 0.000000 
0.050001 -2.184793 0.000000 
0.050000 -2.084795 0.000000 
0.050000 -1.984796 0.000000 
-0.051809 -2.884084 0.000000 
-0.050743 -2.782865 0.000000 
-0.049998 -2.684351 0.000000 
-0.050034 -2.584481 0.000000 
-0.050021 -2.484642 0.000000 
-0.050003 -2.384771 0.000000 
-0.050001 -2.284787 0.000000 
-0.050001 -2.184793 0.000000 
-0.050000 -2.084795 0.000000 
-0.050000 -1.984796 0.000000 
-0.150358 -2.884021 0.000000 
-0.150217 -2.782881 0.000000 
-0.150092 -2.684402 0.000000 
-0.150038 -2.584510 0.000000 
-0.150014 -2.484654 0.000000 
-0.150003 -2.384773 0.000000 
-0.150001 -2.284787 0.000000 
-0.150000 -2.184793 0.000000 
-0.150000 -2.084795 0.000000 
-0.150000 -1.984796 0.000000 
-0.248633 -2.883936 0.000000 
-0.249608 -2.782900 0.000000 
-0.250218 -2.684468 0.000000 
-0.250040 -2.584545 0.000000 
-0.250003 -2.484669 0.000000 
-0.250002 -2.384775 0.000000 
-0.250000 -2.284788 0.000000 
-0.250000 -2.184793 0.000000 
-0.250000 -2.084796 0.000000 
-0.250000 -1.984796 0.000000 
-0.353596 -2.883845 0.000000 
-0.351763 -2.782899 0.000000 
-0.350329 -2.684511 0.000000 
-0.350125 -2.584567 0.000000 
-0.350047 -2.484677 0.000000 
-0.350009 -2.384775 0.000000 
-0.350003 -2.284788 0.000000 
-0.350001 -2.184793 0.000000 
-0.350000 -2.084796 0.000000 
-0.350000 -1.984796 0.000000 
-0.458794 -2.883760 0.000000 
-0.454050 -2.782810 0.000000 
-0.450497 -2.684438 0.000000 
-0.450239 -2.584537 0.000000 
-0.450100 -2.484667 0.000000 
-0.450016 -2.384775 0.000000 
-0.450006 -2.284788 0.000000 
-0.450002 -2.184793 0.000000 
-0.450000 -2.084796 0.000000 
-0.450000 -1.984796 0.000000 
CELLS 100 200 
1 0 
1 1 
1 2 
1 3 
1 4 
1 5 
1 6 
1 7 
1 8 
1 9 
1 10 
1 11 
1 12 
1 13 
1 14 
1 15 
1 16 
1 17 
1 18 
1 19 
1 20 
1 21 
1 22 
1 23 
1 24 
1 25 
1 26 
1 27 
1 28 
1 29 
1 30 
1 31 
1 32 
1 33 
1 34 
1 35 
1 36 
1 37 
1 38 
1 39 
1 40 
1 41 
1 42 
1 43 
1 44 
1 45 
1 46 
1 47 
1 48 
1 49 
1 50 
1 51 
1 52 
1 53 
1 54 
1 55 
1 56 
1 57 
1 58 
1 59 
1 60 
1 61 
1 62 
1 63 
1 64 
1 65 
1 66 
1 67 
1 68 
1 69 
1 70 
1 71 
1 72 
1 73 
1 74 
1 75 
1 76 
1 77 
1 78 
1 79 
1 80 
1 81 
1 82 
1 83 
1 84 
1 85 
1 86 
1 87 
1 88 
1 89 
1 90 
1 91 
1 92 
1 93 
1 94 
1 95 
1 96 
1 97 
1 98 
1 99 
CELL_TYPES 100 
1 
1 
1 
1 
1 
1 
1 
1 
1 
1 
1 
1 
1 
1 
1 
1 
1 
1 
1 
1 
1 
1 
1 
1 
1 
1 
1 
1 
1 
1 
1 
1 
1 
1 
1 
1 
1 
1 
1 
1 
1 
1 
1 
1 
1 
1 
1 
1 
1 
1 
1 
1 
1 
1 
1 
1 
1 
1 
1 
1 
1 
1 
1 
1 
1 
1 
1 
1 
1 
1 
1 
1 
1 
1 
1 
1 
1 
1 
1 
1 
1 
1 
1 
1 
1 
1 
1 
1 
1 
1 
1 
1 
1 
1 
1 
1 
1 
1 
1 
1 
POINT_DATA 100 
VECTORS X_GC float 
0.458794 -2.883760 0.000000 
0.454050 -2.782810 0.000000 
0.450497 -2.684438 0.000000 
0.450239 -2.584537 0.000000 
0.450100 -2.484667 0.000000 
0.450016 -2.384775 0.000000 
0.450006 -2.284788 0.000000 
0.450002 -2.184793 0.000000 
0.450000 -2.084796 0.000000 
0.450000 -1.984796 0.000000 
0.353596 -2.883845 0.000000 
0.351763 -2.782899 0.000000 
0.350329 -2.684511 0.000000 
0.350125 -2.584567 0.000000 
0.350047 -2.484677 0.000000 
0.350009 -2.384775 0.000000 
0.350003 -2.284788 0.000000 
0.350001 -2.184793 0.000000 
0.350000 -2.084796 0.000000 
0.350000 -1.984796 0.000000 
0.248633 -2.883936 0.000000 
0.249608 -2.782900 0.000000 
0.250218 -2.684468 0.000000 
0.250040 -2.584545 0.000000 
0.250003 -2.484669 0.000000 
0.250002 -2.384775 0.000000 
0.250000 -2.284788 0.000000 
0.250000 -2.184793 0.000000 
0.250000 -2.084796 0.000000 
0.250000 -1.984796 0.000000 
0.150358 -2.884021 0.000000 
0.150217 -2.782881 0.000000 
0.150092 -2.684402 0.000000 
0.150038 -2.584510 0.000000 
0.150014 -2.484654 0.000000 
0.150003 -2.384773 0.000000 
0.150001 -2.284787 0.000000 
0.150000 -2.184793 0.000000 
0.150000 -2.084795 0.000000 
0.150000 -1.984796 0.000000 
0.051809 -2.884084 0.000000 
0.050743 -2.782865 0.000000 
0.049998 -2.684351 0.000000 
0.050034 -2.584481 0.000000 
0.050021 -2.484642 0.000000 
0.050003 -2.384771 0.000000 
0.050001 -2.284787 0.000000 
0.050001 -2.184793 0.000000 
0.050000 -2.084795 0.000000 
0.050000 -1.984796 0.000000 
-0.051809 -2.884084 0.000000 
-0.050743 -2.782865 0.000000 
-0.049998 -2.684351 0.000000 
-0.050034 -2.584481 0.000000 
-0.050021 -2.484642 0.000000 
-0.050003 -2.384771 0.000000 
-0.050001 -2.284787 0.000000 
-0.050001 -2.184793 0.000000 
-0.050000 -2.084795 0.000000 
-0.050000 -1.984796 0.000000 
-0.150358 -2.884021 0.000000 
-0.150217 -2.782881 0.000000 
-0.150092 -2.684402 0.000000 
-0.150038 -2.584510 0.000000 
-0.150014 -2.484654 0.000000 
-0.150003 -2.384773 0.000000 
-0.150001 -2.284787 0.000000 
-0.150000 -2.184793 0.000000 
-0.150000 -2.084795 0.000000 
-0.150000 -1.984796 0.000000 
-0.248633 -2.883936 0.000000 
-0.249608 -2.782900 0.000000 
-0.250218 -2.684468 0.000000 
-0.250040 -2.584545 0.000000 
-0.250003 -2.484669 0.000000 
-0.250002 -2.384775 0.000000 
-0.250000 -2.284788 0.000000 
-0.250000 -2.184793 0.000000 
-0.250000 -2.084796 0.000000 
-0.250000 -1.984796 0.000000 
-0.353596 -2.883845 0.000000 
-0.351763 -2.782899 0.000000 
-0.350329 -2.684511 0.000000 
-0.350125 -2.584567 0.000000 
-0.350047 -2.484677 0.000000 
-0.350009 -2.384775 0.000000 
-0.350003 -2.284788 0.000000 
-0.350001 -2.184793 0.000000 
-0.350000 -2.084796 0.000000 
-0.350000 -1.984796 0.000000 
-0.458794 -2.883760 0.000000 
-0.454050 -2.782810 0.000000 
-0.450497 -2.684438 0.000000 
-0.450239 -2.584537 0.000000 
-0.450100 -2.484667 0.000000 
-0.450016 -2.384775 0.000000 
-0.450006 -2.284788 0.000000 
-0.450002 -2.184793 0.000000 
-0.450000 -2.084796 0.000000 
-0.450000 -1.984796 0.000000 
VECTORS X_EC float 
0.035682 -0.569242 0.000000 
0.097355 0.067935 0.000000 
0.143538 0.739919 0.000000 
0.146890 -0.608756 0.000000 
0.148701 0.043004 0.000000 
0.149797 0.694457 0.000000 
0.149927 -0.655363 0.000000 
0.149976 -0.005293 0.000000 
0.149998 0.644739 0.000000 
0.149999 -0.705258 0.000000 
-0.596747 -0.568087 0.000000 
-0.572924 0.069132 0.000000 
-0.554282 0.740893 0.000000 
-0.551624 -0.608350 0.000000 
-0.550605 0.043143 0.000000 
-0.550115 0.694468 0.000000 
-0.550034 -0.655358 0.000000 
-0.550010 -0.005291 0.000000 
-0.550001 0.644740 0.000000 
-0.550000 -0.705258 0.000000 
0.767774 -0.566861 0.000000 
0.755092 0.069145 0.000000 
0.747164 0.740313 0.000000 
0.749485 -0.608641 0.000000 
0.749956 0.043031 0.000000 
0.749972 0.694460 0.000000 
0.749998 -0.655362 0.000000 
0.750001 -0.005293 0.000000 
0.750000 0.644739 0.000000 
0.750000 -0.705258 0.000000 
0.045343 -0.565715 0.000000 
0.047176 0.068898 0.000000 
0.048801 0.739432 0.000000 
0.049505 -0.609120 0.000000 
0.049814 0.042830 0.000000 
0.049966 0.694432 0.000000 
0.049988 -0.655373 0.000000 
0.049996 -0.005296 0.000000 
0.050000 0.644739 0.000000 
0.050000 -0.705258 0.000000 
-0.673513 -0.564872 0.000000 
-0.659659 0.068672 0.000000 
-0.649980 0.738736 0.000000 
-0.650436 -0.609502 0.000000 
-0.650268 0.042667 0.000000 
-0.650035 0.694408 0.000000 
-0.650017 -0.655382 0.000000 
-0.650007 -0.005299 0.000000 
-0.650000 0.644739 0.000000 
-0.650000 -0.705258 0.000000 
0.673513 -0.564872 0.000000 
0.659659 0.068672 0.000000 
0.649980 0.738736 0.000000 
0.650436 -0.609502 0.000000 
0.650268 0.042667 0.000000 
0.650035 0.694408 0.000000 
0.650017 -0.655382 0.000000 
0.650007 -0.005299 0.000000 
0.650000 0.644739 0.000000 
0.650000 -0.705258 0.000000 
-0.045343 -0.565715 0.000000 
-0.047176 0.068898 0.000000 
-0.048801 0.739432 0.000000 
-0.049505 -0.609120 0.000000 
-0.049814 0.042830 0.000000 
-0.049966 0.694432 0.000000 
-0.049988 -0.655373 0.000000 
-0.049996 -0.005296 0.000000 
-0.050000 0.644739 0.000000 
-0.050000 -0.705258 0.000000 
-0.767774 -0.566861 0.000000 
-0.755092 0.069145 0.000000 
-0.747164 0.740313 0.000000 
-0.749485 -0.608641 0.000000 
-0.749956 0.043031 0.000000 
-0.749972 0.694460 0.000000 
-0.749998 -0.655362 0.000000 
-0.750001 -0.005293 0.000000 
-0.750000 0.644739 0.000000 
-0.750000 -0.705258 0.000000 
0.596747 -0.568087 0.000000 
0.572924 0.069132 0.000000 
0.554282 0.740893 0.000000 
0.551624 -0.608350 0.000000 
0.550605 0.043143 0.000000 
0.550115 0.694468 0.000000 
0.550034 -0.655358 0.000000 
0.550010 -0.005291 0.000000 
0.550001 0.644740 0.000000 
0.550000 -0.705258 0.000000 
-0.035682 -0.569242 0.000000 
-0.097355 0.067935 0.000000 
-0.143538 0.739919 0.000000 
-0.146890 -0.608756 0.000000 
-0.148701 0.043004 0.000000 
-0.149797 0.694457 0.000000 
-0.149927 -0.655363 0.000000 
-0.149976 -0.005293 0.000000 
-0.149998 0.644739 0.000000 
-0.149999 -0.705258 0.000000 
CELL_DATA 100 
SCALARS MASS float 
LOOKUP_TABLE default 
10.000000 
10.000000 
10.000000 
10.000000 
10.000000 
10.000000 
10.000000 
10.000000 
10.000000 
10.000000 
10.000000 
10.000000 
10.000000 
10.000000 
10.000000 
10.000000 
10.000000 
10.000000 
10.000000 
10.000000 
10.000000 
10.000000 
10.000000 
10.000000 
10.000000 
10.000000 
10.000000 
10.000000 
10.000000 
10.000000 
10.000000 
10.000000 
10.000000 
10.000000 
10.000000 
10.000000 
10.000000 
10.000000 
10.000000 
10.000000 
10.000000 
10.000000 
10.000000 
10.000000 
10.000000 
10.000000 
10.000000 
10.000000 
10.000000 
10.000000 
10.000000 
10.000000 
10.000000 
10.000000 
10.000000 
10.000000 
10.000000 
10.000000 
10.000000 
10.000000 
10.000000 
10.000000 
10.000000 
10.000000 
10.000000 
10.000000 
10.000000 
10.000000 
10.000000 
10.000000 
10.000000 
10.000000 
10.000000 
10.000000 
10.000000 
10.000000 
10.000000 
10.000000 
10.000000 
10.000000 
10.000000 
10.000000 
10.000000 
10.000000 
10.000000 
10.000000 
10.000000 
10.000000 
10.000000 
10.000000 
10.000000 
10.000000 
10.000000 
10.000000 
10.000000 
10.000000 
10.000000 
10.000000 
10.000000 
10.000000 
SCALARS MASS float 
LOOKUP_TABLE default 
10.000000 
10.000000 
10.000000 
10.000000 
10.000000 
10.000000 
10.000000 
10.000000 
10.000000 
10.000000 
10.000000 
10.000000 
10.000000 
10.000000 
10.000000 
10.000000 
10.000000 
10.000000 
10.000000 
10.000000 
10.000000 
10.000000 
10.000000 
10.000000 
10.000000 
10.000000 
10.000000 
10.000000 
10.000000 
10.000000 
10.000000 
10.000000 
10.000000 
10.000000 
10.000000 
10.000000 
10.000000 
10.000000 
10.000000 
10.000000 
10.000000 
10.000000 
10.000000 
10.000000 
10.000000 
10.000000 
10.000000 
10.000000 
10.000000 
10.000000 
10.000000 
10.000000 
10.000000 
10.000000 
10.000000 
10.000000 
10.000000 
10.000000 
10.000000 
10.000000 
10.000000 
10.000000 
10.000000 
10.000000 
10.000000 
10.000000 
10.000000 
10.000000 
10.000000 
10.000000 
10.000000 
10.000000 
10.000000 
10.000000 
10.000000 
10.000000 
10.000000 
10.000000 
10.000000 
10.000000 
10.000000 
10.000000 
10.000000 
10.000000 
10.000000 
10.000000 
10.000000 
10.000000 
10.000000 
10.000000 
10.000000 
10.000000 
10.000000 
10.000000 
10.000000 
10.000000 
10.000000 
10.000000 
10.000000 
10.000000 
SCALARS DENSITY float 
LOOKUP_TABLE default 
2003.019740 
948.470735 
1008.889864 
1014.091813 
999.988021 
1000.217311 
1000.284871 
1000.004513 
1000.002064 
1000.002652 
1974.756851 
942.995711 
1007.524058 
1013.773124 
999.943730 
1000.190018 
1000.276311 
1000.003967 
1000.001871 
1000.002603 
1975.901061 
942.457603 
1007.579956 
1013.829276 
999.984627 
1000.196949 
1000.283243 
1000.004184 
1000.001941 
1000.002672 
2189.860650 
983.985957 
1017.864659 
1015.390090 
1000.250528 
1000.347022 
1000.325505 
1000.008581 
1000.003297 
1000.003063 
2053.812384 
956.982459 
1011.592175 
1014.616957 
1000.256813 
1000.283801 
1000.325989 
1000.006292 
1000.002620 
1000.003098 
2053.812384 
956.982459 
1011.592175 
1014.616957 
1000.256813 
1000.283801 
1000.325989 
1000.006292 
1000.002620 
1000.003098 
2189.860650 
983.985957 
1017.864659 
1015.390090 
1000.250528 
1000.347022 
1000.325505 
1000.008581 
1000.003297 
1000.003063 
1975.901061 
942.457603 
1007.579956 
1013.829276 
999.984627 
1000.196949 
1000.283243 
1000.004184 
1000.001941 
1000.002672 
1974.756851 
942.995711 
1007.524058 
1013.773124 
999.943730 
1000.190018 
1000.276311 
1000.003967 
1000.001871 
1000.002603 
2003.019740 
948.470735 
1008.889864 
1014.091813 
999.988021 
1000.217311 
1000.284871 
1000.004513 
1000.002064 
1000.002652 
SCALARS ELEM_i float 
LOOKUP_TABLE default 
81 
82 
83 
83 
84 
85 
85 
86 
87 
87 
108 
109 
110 
110 
111 
112 
112 
113 
114 
114 
108 
109 
110 
110 
111 
112 
112 
113 
114 
114 
135 
136 
137 
137 
138 
139 
139 
140 
141 
141 
162 
163 
164 
164 
165 
166 
166 
167 
168 
168 
162 
163 
164 
164 
165 
166 
166 
167 
168 
168 
189 
190 
191 
191 
192 
193 
193 
194 
195 
195 
216 
217 
218 
218 
219 
220 
220 
221 
222 
222 
216 
217 
218 
218 
219 
220 
220 
221 
222 
222 
243 
244 
245 
245 
246 
247 
247 
248 
249 
249 
VECTORS VELOCITY float 
5.445883 -8.899346 0.000000 
2.009131 -4.318326 0.000000 
-0.199828 -7.546960 0.000000 
0.138822 -6.765404 0.000000 
0.094274 -6.775156 0.000000 
0.002494 -6.911287 0.000000 
0.003962 -6.903382 0.000000 
0.001925 -6.905383 0.000000 
0.000056 -6.908178 0.000000 
0.000055 -6.908128 0.000000 
1.533547 -9.018000 0.000000 
0.586345 -4.423428 0.000000 
-0.022078 -7.624166 0.000000 
0.057401 -6.799761 0.000000 
0.033659 -6.787299 0.000000 
0.001060 -6.911885 0.000000 
0.001411 -6.903808 0.000000 
0.000673 -6.905564 0.000000 
0.000021 -6.908185 0.000000 
0.000020 -6.908133 0.000000 
-1.529066 -9.096941 0.000000 
-0.400580 -4.400381 0.000000 
0.273352 -7.574754 0.000000 
0.021890 -6.776572 0.000000 
-0.011592 -6.779142 0.000000 
0.001080 -6.911844 0.000000 
-0.000332 -6.903536 0.000000 
-0.000257 -6.905420 0.000000 
0.000006 -6.908182 0.000000 
-0.000006 -6.908129 0.000000 
0.309070 -9.186781 0.000000 
0.172147 -4.371946 0.000000 
0.060248 -7.514264 0.000000 
0.025710 -6.746620 0.000000 
0.009727 -6.767868 0.000000 
0.001609 -6.911153 0.000000 
0.000754 -6.902889 0.000000 
0.000277 -6.905130 0.000000 
0.000014 -6.908175 0.000000 
0.000009 -6.908121 0.000000 
1.636791 -9.255546 0.000000 
0.561585 -4.350099 0.000000 
-0.119729 -7.468127 0.000000 
0.023007 -6.723553 0.000000 
0.023979 -6.759086 0.000000 
0.001354 -6.910534 0.000000 
0.001325 -6.902351 0.000000 
0.000599 -6.904892 0.000000 
0.000015 -6.908170 0.000000 
0.000017 -6.908115 0.000000 
-1.636791 -9.255546 0.000000 
-0.561585 -4.350099 0.000000 
0.119729 -7.468127 0.000000 
-0.023007 -6.723553 0.000000 
-0.023979 -6.759086 0.000000 
-0.001354 -6.910534 0.000000 
-0.001325 -6.902351 0.000000 
-0.000599 -6.904892 0.000000 
-0.000015 -6.908170 0.000000 
-0.000017 -6.908115 0.000000 
-0.309070 -9.186781 0.000000 
-0.172147 -4.371946 0.000000 
-0.060248 -7.514264 0.000000 
-0.025710 -6.746620 0.000000 
-0.009727 -6.767868 0.000000 
-0.001609 -6.911153 0.000000 
-0.000754 -6.902889 0.000000 
-0.000277 -6.905130 0.000000 
-0.000014 -6.908175 0.000000 
-0.000009 -6.908121 0.000000 
1.529066 -9.096941 0.000000 
0.400580 -4.400381 0.000000 
-0.273352 -7.574754 0.000000 
-0.021890 -6.776572 0.000000 
0.011592 -6.779142 0.000000 
-0.001080 -6.911844 0.000000 
0.000332 -6.903536 0.000000 
0.000257 -6.905420 0.000000 
-0.000006 -6.908182 0.000000 
0.000006 -6.908129 0.000000 
-1.533547 -9.018000 0.000000 
-0.586345 -4.423428 0.000000 
0.022078 -7.624166 0.000000 
-0.057401 -6.799761 0.000000 
-0.033659 -6.787299 0.000000 
-0.001060 -6.911885 0.000000 
-0.001411 -6.903808 0.000000 
-0.000673 -6.905564 0.000000 
-0.000021 -6.908185 0.000000 
-0.000020 -6.908133 0.000000 
-5.445883 -8.899346 0.000000 
-2.009131 -4.318326 0.000000 
0.199828 -7.546960 0.000000 
-0.138822 -6.765404 0.000000 
-0.094274 -6.775156 0.000000 
-0.002494 -6.911287 0.000000 
-0.003962 -6.903382 0.000000 
-0.001925 -6.905383 0.000000 
-0.000056 -6.908178 0.000000 
-0.000055 -6.908128 0.000000 
TENSORS STRESS float 
-2683.826405 -31.734677 0.000000 
0.000000 -3450.670080 0.000000 
0.000000 0.000000 0.000000 

869.356560 -192.117165 0.000000 
0.000000 870.358473 0.000000 
0.000000 0.000000 0.000000 

-94.041089 -31.653227 0.000000 
0.000000 -157.208755 0.000000 
0.000000 0.000000 0.000000 

-176.790017 -32.844991 0.000000 
0.000000 -224.496716 0.000000 
0.000000 0.000000 0.000000 

1.109850 -1.365172 0.000000 
0.000000 -0.294549 0.000000 
0.000000 0.000000 0.000000 

-3.849819 -0.701774 0.000000 
0.000000 -5.514920 0.000000 
0.000000 0.000000 0.000000 

-5.449522 -0.750782 0.000000 
0.000000 -6.823606 0.000000 
0.000000 0.000000 0.000000 

-0.096331 -0.028814 0.000000 
0.000000 -0.145482 0.000000 
0.000000 0.000000 0.000000 

-0.046212 -0.007691 0.000000 
0.000000 -0.064989 0.000000 
0.000000 0.000000 0.000000 

-0.063541 -0.008075 0.000000 
0.000000 -0.079167 0.000000 
0.000000 0.000000 0.000000 

-2621.679804 -14.819373 0.000000 
0.000000 -3418.048395 0.000000 
0.000000 0.000000 0.000000 

975.709000 -96.068733 0.000000 
0.000000 956.926819 0.000000 
0.000000 0.000000 0.000000 

-75.506141 -18.399186 0.000000 
0.000000 -140.638194 0.000000 
0.000000 0.000000 0.000000 

-171.376555 -18.058896 0.000000 
0.000000 -218.591909 0.000000 
0.000000 0.000000 0.000000 

1.980626 -1.452307 0.000000 
0.000000 0.664627 0.000000 
0.000000 0.000000 0.000000 

-3.221227 -0.483578 0.000000 
0.000000 -4.961894 0.000000 
0.000000 0.000000 0.000000 

-5.258528 -0.452467 0.000000 
0.000000 -6.628576 0.000000 
0.000000 0.000000 0.000000 

-0.081143 -0.020298 0.000000 
0.000000 -0.131580 0.000000 
0.000000 0.000000 0.000000 

-0.040623 -0.005215 0.000000 
0.000000 -0.060203 0.000000 
0.000000 0.000000 0.000000 

-0.062161 -0.004827 0.000000 
0.000000 -0.077825 0.000000 
0.000000 0.000000 0.000000 

-2624.999809 3.986063 0.000000 
0.000000 -3421.993169 0.000000 
0.000000 0.000000 0.000000 

988.376767 15.565951 0.000000 
0.000000 972.286787 0.000000 
0.000000 0.000000 0.000000 

-76.481649 -0.750894 0.000000 
0.000000 -141.823924 0.000000 
0.000000 0.000000 0.000000 

-172.335441 -0.525257 0.000000 
0.000000 -219.761495 0.000000 
0.000000 0.000000 0.000000 

1.142253 -1.140196 0.000000 
0.000000 -0.359960 0.000000 
0.000000 0.000000 0.000000 

-3.361007 -0.113055 0.000000 
0.000000 -5.132727 0.000000 
0.000000 0.000000 0.000000 

-5.398278 -0.081982 0.000000 
0.000000 -6.799380 0.000000 
0.000000 0.000000 0.000000 

-0.086564 -0.007609 0.000000 
0.000000 -0.138206 0.000000 
0.000000 0.000000 0.000000 

-0.042370 -0.001299 0.000000 
0.000000 -0.062338 0.000000 
0.000000 0.000000 0.000000 

-0.063907 -0.000911 0.000000 
0.000000 -0.079960 0.000000 
0.000000 0.000000 0.000000 

-3051.766974 0.200407 0.000000 
0.000000 -3647.814491 0.000000 
0.000000 0.000000 0.000000 

169.054618 -3.945709 0.000000 
0.000000 299.780760 0.000000 
0.000000 0.000000 0.000000 

-235.741721 -3.821959 0.000000 
0.000000 -272.367683 0.000000 
0.000000 0.000000 0.000000 

-200.645584 -3.173146 0.000000 
0.000000 -243.846622 0.000000 
0.000000 0.000000 0.000000 

-4.622178 -1.119886 0.000000 
0.000000 -5.988830 0.000000 
0.000000 0.000000 0.000000 

-6.906145 -0.201815 0.000000 
0.000000 -8.187376 0.000000 
0.000000 0.000000 0.000000 

-6.407279 -0.104051 0.000000 
0.000000 -7.779269 0.000000 
0.000000 0.000000 0.000000 

-0.212532 -0.012556 0.000000 
0.000000 -0.250055 0.000000 
0.000000 0.000000 0.000000 

-0.081718 -0.002641 0.000000 
0.000000 -0.096567 0.000000 
0.000000 0.000000 0.000000 

-0.074910 -0.001347 0.000000 
0.000000 -0.090997 0.000000 
0.000000 0.000000 0.000000 

-2798.843629 -4.189323 0.000000 
0.000000 -3517.925627 0.000000 
0.000000 0.000000 0.000000 

695.126575 -25.532443 0.000000 
0.000000 738.375027 0.000000 
0.000000 0.000000 0.000000 

-138.446458 -4.424671 0.000000 
0.000000 -194.135490 0.000000 
0.000000 0.000000 0.000000 

-186.506305 -4.411903 0.000000 
0.000000 -233.216120 0.000000 
0.000000 0.000000 0.000000 

-4.467648 -0.165152 0.000000 
0.000000 -6.629490 0.000000 
0.000000 0.000000 0.000000 

-5.279166 -0.092514 0.000000 
0.000000 -6.986287 0.000000 
0.000000 0.000000 0.000000 

-6.296496 -0.092510 0.000000 
0.000000 -7.818535 0.000000 
0.000000 0.000000 0.000000 

-0.140009 -0.006114 0.000000 
0.000000 -0.198285 0.000000 
0.000000 0.000000 0.000000 

-0.060541 -0.001286 0.000000 
0.000000 -0.080959 0.000000 
0.000000 0.000000 0.000000 

-0.074686 -0.001286 0.000000 
0.000000 -0.092533 0.000000 
0.000000 0.000000 0.000000 

-2798.843629 4.189323 0.000000 
0.000000 -3517.925627 0.000000 
0.000000 0.000000 0.000000 

695.126575 25.532443 0.000000 
0.000000 738.375027 0.000000 
0.000000 0.000000 0.000000 

-138.446458 4.424671 0.000000 
0.000000 -194.135490 0.000000 
0.000000 0.000000 0.000000 

-186.506305 4.411903 0.000000 
0.000000 -233.216120 0.000000 
0.000000 0.000000 0.000000 

-4.467648 0.165152 0.000000 
0.000000 -6.629490 0.000000 
0.000000 0.000000 0.000000 

-5.279166 0.092514 0.000000 
0.000000 -6.986287 0.000000 
0.000000 0.000000 0.000000 

-6.296496 0.092510 0.000000 
0.000000 -7.818535 0.000000 
0.000000 0.000000 0.000000 

-0.140009 0.006114 0.000000 
0.000000 -0.198285 0.000000 
0.000000 0.000000 0.000000 

-0.060541 0.001286 0.000000 
0.000000 -0.080959 0.000000 
0.000000 0.000000 0.000000 

-0.074686 0.001286 0.000000 
0.000000 -0.092533 0.000000 
0.000000 0.000000 0.000000 

-3051.766974 -0.200407 0.000000 
0.000000 -3647.814491 0.000000 
0.000000 0.000000 0.000000 

169.054618 3.945709 0.000000 
0.000000 299.780760 0.000000 
0.000000 0.000000 0.000000 

-235.741721 3.821959 0.000000 
0.000000 -272.367683 0.000000 
0.000000 0.000000 0.000000 

-200.645584 3.173146 0.000000 
0.000000 -243.846622 0.000000 
0.000000 0.000000 0.000000 

-4.622178 1.119886 0.000000 
0.000000 -5.988830 0.000000 
0.000000 0.000000 0.000000 

-6.906145 0.201815 0.000000 
0.000000 -8.187376 0.000000 
0.000000 0.000000 0.000000 

-6.407279 0.104051 0.000000 
0.000000 -7.779269 0.000000 
0.000000 0.000000 0.000000 

-0.212532 0.012556 0.000000 
0.000000 -0.250055 0.000000 
0.000000 0.000000 0.000000 

-0.081718 0.002641 0.000000 
0.000000 -0.096567 0.000000 
0.000000 0.000000 0.000000 

-0.074910 0.001347 0.000000 
0.000000 -0.090997 0.000000 
0.000000 0.000000 0.000000 

-2624.999809 -3.986063 0.000000 
0.000000 -3421.993169 0.000000 
0.000000 0.000000 0.000000 

988.376767 -15.565951 0.000000 
0.000000 972.286787 0.000000 
0.000000 0.000000 0.000000 

-76.481649 0.750894 0.000000 
0.000000 -141.823924 0.000000 
0.000000 0.000000 0.000000 

-172.335441 0.525257 0.000000 
0.000000 -219.761495 0.000000 
0.000000 0.000000 0.000000 

1.142253 1.140196 0.000000 
0.000000 -0.359960 0.000000 
0.000000 0.000000 0.000000 

-3.361007 0.113055 0.000000 
0.000000 -5.132727 0.000000 
0.000000 0.000000 0.000000 

-5.398278 0.081982 0.000000 
0.000000 -6.799380 0.000000 
0.000000 0.000000 0.000000 

-0.086564 0.007609 0.000000 
0.000000 -0.138206 0.000000 
0.000000 0.000000 0.000000 

-0.042370 0.001299 0.000000 
0.000000 -0.062338 0.000000 
0.000000 0.000000 0.000000 

-0.063907 0.000911 0.000000 
0.000000 -0.079960 0.000000 
0.000000 0.000000 0.000000 

-2621.679804 14.819373 0.000000 
0.000000 -3418.048395 0.000000 
0.000000 0.000000 0.000000 

975.709000 96.068733 0.000000 
0.000000 956.926819 0.000000 
0.000000 0.000000 0.000000 

-75.506141 18.399186 0.000000 
0.000000 -140.638194 0.000000 
0.000000 0.000000 0.000000 

-171.376555 18.058896 0.000000 
0.000000 -218.591909 0.000000 
0.000000 0.000000 0.000000 

1.980626 1.452307 0.000000 
0.000000 0.664627 0.000000 
0.000000 0.000000 0.000000 

-3.221227 0.483578 0.000000 
0.000000 -4.961894 0.000000 
0.000000 0.000000 0.000000 

-5.258528 0.452467 0.000000 
0.000000 -6.628576 0.000000 
0.000000 0.000000 0.000000 

-0.081143 0.020298 0.000000 
0.000000 -0.131580 0.000000 
0.000000 0.000000 0.000000 

-0.040623 0.005215 0.000000 
0.000000 -0.060203 0.000000 
0.000000 0.000000 0.000000 

-0.062161 0.004827 0.000000 
0.000000 -0.077825 0.000000 
0.000000 0.000000 0.000000 

-2683.826405 31.734677 0.000000 
0.000000 -3450.670080 0.000000 
0.000000 0.000000 0.000000 

869.356560 192.117165 0.000000 
0.000000 870.358473 0.000000 
0.000000 0.000000 0.000000 

-94.041089 31.653227 0.000000 
0.000000 -157.208755 0.000000 
0.000000 0.000000 0.000000 

-176.790017 32.844991 0.000000 
0.000000 -224.496716 0.000000 
0.000000 0.000000 0.000000 

1.109850 1.365172 0.000000 
0.000000 -0.294549 0.000000 
0.000000 0.000000 0.000000 

-3.849819 0.701774 0.000000 
0.000000 -5.514920 0.000000 
0.000000 0.000000 0.000000 

-5.449522 0.750782 0.000000 
0.000000 -6.823606 0.000000 
0.000000 0.000000 0.000000 

-0.096331 0.028814 0.000000 
0.000000 -0.145482 0.000000 
0.000000 0.000000 0.000000 

-0.046212 0.007691 0.000000 
0.000000 -0.064989 0.000000 
0.000000 0.000000 0.000000 

-0.063541 0.008075 0.000000 
0.000000 -0.079167 0.000000 
0.000000 0.000000 0.000000 

TENSORS STRAIN float 
0.022276 -0.009217 0.000000 
0.000000 -0.200445 0.000000 
0.000000 0.000000 0.000000 

0.011894 -0.026422 0.000000 
0.000000 0.012032 0.000000 
0.000000 0.000000 0.000000 

0.002783 -0.004631 0.000000 
0.000000 -0.006458 0.000000 
0.000000 0.000000 0.000000 

0.000557 -0.004830 0.000000 
0.000000 -0.006458 0.000000 
0.000000 0.000000 0.000000 

0.000108 -0.000198 0.000000 
0.000000 -0.000096 0.000000 
0.000000 0.000000 0.000000 

0.000053 -0.000102 0.000000 
0.000000 -0.000189 0.000000 
0.000000 0.000000 0.000000 

0.000011 -0.000109 0.000000 
0.000000 -0.000189 0.000000 
0.000000 0.000000 0.000000 

0.000002 -0.000004 0.000000 
0.000000 -0.000005 0.000000 
0.000000 0.000000 0.000000 

0.000001 -0.000001 0.000000 
0.000000 -0.000002 0.000000 
0.000000 0.000000 0.000000 

0.000000 -0.000001 0.000000 
0.000000 -0.000002 0.000000 
0.000000 0.000000 0.000000 

0.027545 -0.004243 0.000000 
0.000000 -0.200487 0.000000 
0.000000 0.000000 0.000000 

0.014497 -0.013136 0.000000 
0.000000 0.011929 0.000000 
0.000000 0.000000 0.000000 

0.003179 -0.002688 0.000000 
0.000000 -0.006336 0.000000 
0.000000 0.000000 0.000000 

0.000604 -0.002655 0.000000 
0.000000 -0.006336 0.000000 
0.000000 0.000000 0.000000 

0.000115 -0.000211 0.000000 
0.000000 -0.000076 0.000000 
0.000000 0.000000 0.000000 

0.000067 -0.000070 0.000000 
0.000000 -0.000186 0.000000 
0.000000 0.000000 0.000000 

0.000013 -0.000066 0.000000 
0.000000 -0.000186 0.000000 
0.000000 0.000000 0.000000 

0.000002 -0.000003 0.000000 
0.000000 -0.000005 0.000000 
0.000000 0.000000 0.000000 

0.000001 -0.000001 0.000000 
0.000000 -0.000002 0.000000 
0.000000 0.000000 0.000000 

0.000000 -0.000001 0.000000 
0.000000 -0.000002 0.000000 
0.000000 0.000000 0.000000 

0.027547 0.001142 0.000000 
0.000000 -0.200796 0.000000 
0.000000 0.000000 0.000000 

0.014496 0.002127 0.000000 
0.000000 0.012297 0.000000 
0.000000 0.000000 0.000000 

0.003179 -0.000110 0.000000 
0.000000 -0.006368 0.000000 
0.000000 0.000000 0.000000 

0.000604 -0.000077 0.000000 
0.000000 -0.006368 0.000000 
0.000000 0.000000 0.000000 

0.000115 -0.000165 0.000000 
0.000000 -0.000103 0.000000 
0.000000 0.000000 0.000000 

0.000067 -0.000016 0.000000 
0.000000 -0.000190 0.000000 
0.000000 0.000000 0.000000 

0.000013 -0.000012 0.000000 
0.000000 -0.000190 0.000000 
0.000000 0.000000 0.000000 

0.000002 -0.000001 0.000000 
0.000000 -0.000005 0.000000 
0.000000 0.000000 0.000000 

0.000001 -0.000000 0.000000 
0.000000 -0.000002 0.000000 
0.000000 0.000000 0.000000 

0.000000 -0.000000 0.000000 
0.000000 -0.000002 0.000000 
0.000000 0.000000 0.000000 

-0.011734 0.000064 0.000000 
0.000000 -0.200997 0.000000 
0.000000 0.000000 0.000000 

-0.005981 -0.000563 0.000000 
0.000000 0.012670 0.000000 
0.000000 0.000000 0.000000 

-0.001047 -0.000564 0.000000 
0.000000 -0.006452 0.000000 
0.000000 0.000000 0.000000 

-0.000092 -0.000467 0.000000 
0.000000 -0.006452 0.000000 
0.000000 0.000000 0.000000 

0.000022 -0.000162 0.000000 
0.000000 -0.000176 0.000000 
0.000000 0.000000 0.000000 

-0.000017 -0.000029 0.000000 
0.000000 -0.000202 0.000000 
0.000000 0.000000 0.000000 

-0.000003 -0.000015 0.000000 
0.000000 -0.000202 0.000000 
0.000000 0.000000 0.000000 

-0.000001 -0.000002 0.000000 
0.000000 -0.000006 0.000000 
0.000000 0.000000 0.000000 

-0.000000 -0.000000 0.000000 
0.000000 -0.000002 0.000000 
0.000000 0.000000 0.000000 

-0.000000 -0.000000 0.000000 
0.000000 -0.000002 0.000000 
0.000000 0.000000 0.000000 

0.013015 -0.001248 0.000000 
0.000000 -0.201130 0.000000 
0.000000 0.000000 0.000000 

0.006945 -0.003543 0.000000 
0.000000 0.012946 0.000000 
0.000000 0.000000 0.000000 

0.001645 -0.000649 0.000000 
0.000000 -0.006523 0.000000 
0.000000 0.000000 0.000000 

0.000348 -0.000649 0.000000 
0.000000 -0.006523 0.000000 
0.000000 0.000000 0.000000 

0.000076 -0.000024 0.000000 
0.000000 -0.000237 0.000000 
0.000000 0.000000 0.000000 

0.000035 -0.000013 0.000000 
0.000000 -0.000213 0.000000 
0.000000 0.000000 0.000000 

0.000008 -0.000013 0.000000 