# vtk DataFile Version 3.0 
vtk output 
ASCII 
DATASET UNSTRUCTURED_GRID 
POINTS 100 float 
0.474730 -2.902856 0.000000 
0.461727 -2.807651 0.000000 
0.451237 -2.715746 0.000000 
0.451120 -2.613656 0.000000 
0.450790 -2.513080 0.000000 
0.450273 -2.413635 0.000000 
0.450157 -2.313714 0.000000 
0.450075 -2.213797 0.000000 
0.450018 -2.113883 0.000000 
0.450011 -2.013892 0.000000 
0.361409 -2.903730 0.000000 
0.356023 -2.808683 0.000000 
0.351525 -2.716470 0.000000 
0.350940 -2.613964 0.000000 
0.350516 -2.513163 0.000000 
0.350171 -2.413654 0.000000 
0.350090 -2.313724 0.000000 
0.350040 -2.213801 0.000000 
0.350010 -2.113884 0.000000 
0.350006 -2.013892 0.000000 
0.249115 -2.904485 0.000000 
0.251463 -2.809213 0.000000 
0.252431 -2.716054 0.000000 
0.250988 -2.613785 0.000000 
0.250287 -2.513126 0.000000 
0.250086 -2.413646 0.000000 
0.250036 -2.313716 0.000000 
0.250012 -2.213796 0.000000 
0.250004 -2.113883 0.000000 
0.250002 -2.013891 0.000000 
0.151699 -2.904940 0.000000 
0.151394 -2.809398 0.000000 
0.150948 -2.715367 0.000000 
0.150518 -2.613404 0.000000 
0.150245 -2.512967 0.000000 
0.150082 -2.413597 0.000000 
0.150041 -2.313687 0.000000 
0.150016 -2.213783 0.000000 
0.150004 -2.113880 0.000000 
0.150002 -2.013889 0.000000 
0.054041 -2.905244 0.000000 
0.051376 -2.809477 0.000000 
0.049625 -2.714815 0.000000 
0.050055 -2.613090 0.000000 
0.050160 -2.512829 0.000000 
0.050061 -2.413554 0.000000 
0.050035 -2.313663 0.000000 
0.050016 -2.213772 0.000000 
0.050003 -2.113877 0.000000 
0.050002 -2.013887 0.000000 
-0.054041 -2.905244 0.000000 
-0.051376 -2.809477 0.000000 
-0.049625 -2.714815 0.000000 
-0.050055 -2.613090 0.000000 
-0.050160 -2.512829 0.000000 
-0.050061 -2.413554 0.000000 
-0.050035 -2.313663 0.000000 
-0.050016 -2.213772 0.000000 
-0.050003 -2.113877 0.000000 
-0.050002 -2.013887 0.000000 
-0.151699 -2.904940 0.000000 
-0.151394 -2.809398 0.000000 
-0.150948 -2.715367 0.000000 
-0.150518 -2.613404 0.000000 
-0.150245 -2.512967 0.000000 
-0.150082 -2.413597 0.000000 
-0.150041 -2.313687 0.000000 
-0.150016 -2.213783 0.000000 
-0.150004 -2.113880 0.000000 
-0.150002 -2.013889 0.000000 
-0.249115 -2.904485 0.000000 
-0.251463 -2.809213 0.000000 
-0.252431 -2.716054 0.000000 
-0.250988 -2.613785 0.000000 
-0.250287 -2.513126 0.000000 
-0.250086 -2.413646 0.000000 
-0.250036 -2.313716 0.000000 
-0.250012 -2.213796 0.000000 
-0.250004 -2.113883 0.000000 
-0.250002 -2.013891 0.000000 
-0.361409 -2.903730 0.000000 
-0.356023 -2.808683 0.000000 
-0.351525 -2.716470 0.000000 
-0.350940 -2.613964 0.000000 
-0.350516 -2.513163 0.000000 
-0.350171 -2.413654 0.000000 
-0.350090 -2.313724 0.000000 
-0.350040 -2.213801 0.000000 
-0.350010 -2.113884 0.000000 
-0.350006 -2.013892 0.000000 
-0.474730 -2.902856 0.000000 
-0.461727 -2.807651 0.000000 
-0.451237 -2.715746 0.000000 
-0.451120 -2.613656 0.000000 
-0.450790 -2.513080 0.000000 
-0.450273 -2.413635 0.000000 
-0.450157 -2.313714 0.000000 
-0.450075 -2.213797 0.000000 
-0.450018 -2.113883 0.000000 
-0.450011 -2.013892 0.000000 
CELLS 100 200 
1 0 
1 1 
1 2 
1 3 
1 4 
1 5 
1 6 
1 7 
1 8 
1 9 
1 10 
1 11 
1 12 
1 13 
1 14 
1 15 
1 16 
1 17 
1 18 
1 19 
1 20 
1 21 
1 22 
1 23 
1 24 
1 25 
1 26 
1 27 
1 28 
1 29 
1 30 
1 31 
1 32 
1 33 
1 34 
1 35 
1 36 
1 37 
1 38 
1 39 
1 40 
1 41 
1 42 
1 43 
1 44 
1 45 
1 46 
1 47 
1 48 
1 49 
1 50 
1 51 
1 52 
1 53 
1 54 
1 55 
1 56 
1 57 
1 58 
1 59 
1 60 
1 61 
1 62 
1 63 
1 64 
1 65 
1 66 
1 67 
1 68 
1 69 
1 70 
1 71 
1 72 
1 73 
1 74 
1 75 
1 76 
1 77 
1 78 
1 79 
1 80 
1 81 
1 82 
1 83 
1 84 
1 85 
1 86 
1 87 
1 88 
1 89 
1 90 
1 91 
1 92 
1 93 
1 94 
1 95 
1 96 
1 97 
1 98 
1 99 
CELL_TYPES 100 
1 
1 
1 
1 
1 
1 
1 
1 
1 
1 
1 
1 
1 
1 
1 
1 
1 
1 
1 
1 
1 
1 
1 
1 
1 
1 
1 
1 
1 
1 
1 
1 
1 
1 
1 
1 
1 
1 
1 
1 
1 
1 
1 
1 
1 
1 
1 
1 
1 
1 
1 
1 
1 
1 
1 
1 
1 
1 
1 
1 
1 
1 
1 
1 
1 
1 
1 
1 
1 
1 
1 
1 
1 
1 
1 
1 
1 
1 
1 
1 
1 
1 
1 
1 
1 
1 
1 
1 
1 
1 
1 
1 
1 
1 
1 
1 
1 
1 
1 
1 
POINT_DATA 100 
VECTORS X_GC float 
0.474730 -2.902856 0.000000 
0.461727 -2.807651 0.000000 
0.451237 -2.715746 0.000000 
0.451120 -2.613656 0.000000 
0.450790 -2.513080 0.000000 
0.450273 -2.413635 0.000000 
0.450157 -2.313714 0.000000 
0.450075 -2.213797 0.000000 
0.450018 -2.113883 0.000000 
0.450011 -2.013892 0.000000 
0.361409 -2.903730 0.000000 
0.356023 -2.808683 0.000000 
0.351525 -2.716470 0.000000 
0.350940 -2.613964 0.000000 
0.350516 -2.513163 0.000000 
0.350171 -2.413654 0.000000 
0.350090 -2.313724 0.000000 
0.350040 -2.213801 0.000000 
0.350010 -2.113884 0.000000 
0.350006 -2.013892 0.000000 
0.249115 -2.904485 0.000000 
0.251463 -2.809213 0.000000 
0.252431 -2.716054 0.000000 
0.250988 -2.613785 0.000000 
0.250287 -2.513126 0.000000 
0.250086 -2.413646 0.000000 
0.250036 -2.313716 0.000000 
0.250012 -2.213796 0.000000 
0.250004 -2.113883 0.000000 
0.250002 -2.013891 0.000000 
0.151699 -2.904940 0.000000 
0.151394 -2.809398 0.000000 
0.150948 -2.715367 0.000000 
0.150518 -2.613404 0.000000 
0.150245 -2.512967 0.000000 
0.150082 -2.413597 0.000000 
0.150041 -2.313687 0.000000 
0.150016 -2.213783 0.000000 
0.150004 -2.113880 0.000000 
0.150002 -2.013889 0.000000 
0.054041 -2.905244 0.000000 
0.051376 -2.809477 0.000000 
0.049625 -2.714815 0.000000 
0.050055 -2.613090 0.000000 
0.050160 -2.512829 0.000000 
0.050061 -2.413554 0.000000 
0.050035 -2.313663 0.000000 
0.050016 -2.213772 0.000000 
0.050003 -2.113877 0.000000 
0.050002 -2.013887 0.000000 
-0.054041 -2.905244 0.000000 
-0.051376 -2.809477 0.000000 
-0.049625 -2.714815 0.000000 
-0.050055 -2.613090 0.000000 
-0.050160 -2.512829 0.000000 
-0.050061 -2.413554 0.000000 
-0.050035 -2.313663 0.000000 
-0.050016 -2.213772 0.000000 
-0.050003 -2.113877 0.000000 
-0.050002 -2.013887 0.000000 
-0.151699 -2.904940 0.000000 
-0.151394 -2.809398 0.000000 
-0.150948 -2.715367 0.000000 
-0.150518 -2.613404 0.000000 
-0.150245 -2.512967 0.000000 
-0.150082 -2.413597 0.000000 
-0.150041 -2.313687 0.000000 
-0.150016 -2.213783 0.000000 
-0.150004 -2.113880 0.000000 
-0.150002 -2.013889 0.000000 
-0.249115 -2.904485 0.000000 
-0.251463 -2.809213 0.000000 
-0.252431 -2.716054 0.000000 
-0.250988 -2.613785 0.000000 
-0.250287 -2.513126 0.000000 
-0.250086 -2.413646 0.000000 
-0.250036 -2.313716 0.000000 
-0.250012 -2.213796 0.000000 
-0.250004 -2.113883 0.000000 
-0.250002 -2.013891 0.000000 
-0.361409 -2.903730 0.000000 
-0.356023 -2.808683 0.000000 
-0.351525 -2.716470 0.000000 
-0.350940 -2.613964 0.000000 
-0.350516 -2.513163 0.000000 
-0.350171 -2.413654 0.000000 
-0.350090 -2.313724 0.000000 
-0.350040 -2.213801 0.000000 
-0.350010 -2.113884 0.000000 
-0.350006 -2.013892 0.000000 
-0.474730 -2.902856 0.000000 
-0.461727 -2.807651 0.000000 
-0.451237 -2.715746 0.000000 
-0.451120 -2.613656 0.000000 
-0.450790 -2.513080 0.000000 
-0.450273 -2.413635 0.000000 
-0.450157 -2.313714 0.000000 
-0.450075 -2.213797 0.000000 
-0.450018 -2.113883 0.000000 
-0.450011 -2.013892 0.000000 
VECTORS X_EC float 
-0.171492 -0.311439 0.000000 
-0.002457 0.403293 0.000000 
0.133924 -0.837432 0.000000 
0.135439 -0.215644 0.000000 
0.139728 0.426582 0.000000 
0.146448 -0.915934 0.000000 
0.147964 -0.264865 0.000000 
0.149024 0.386261 0.000000 
0.149762 -0.962575 0.000000 
0.149854 -0.312459 0.000000 
-0.698323 -0.299644 0.000000 
-0.628293 0.417220 0.000000 
-0.569819 -0.827661 0.000000 
-0.562219 -0.211480 0.000000 
-0.556714 0.427695 0.000000 
-0.552222 -0.915668 0.000000 
-0.551175 -0.264726 0.000000 
-0.550524 0.386317 0.000000 
-0.550136 -0.962566 0.000000 
-0.550079 -0.312455 0.000000 
0.761511 -0.289453 0.000000 
0.730978 0.424371 0.000000 
0.718401 -0.833267 0.000000 
0.737156 -0.213908 0.000000 
0.746271 0.427202 0.000000 
0.748881 -0.915777 0.000000 
0.749530 -0.264838 0.000000 
0.749850 0.386242 0.000000 
0.749951 -0.962585 0.000000 
0.749977 -0.312471 0.000000 
0.027909 -0.283304 0.000000 
0.031883 0.426874 0.000000 
0.037675 -0.842542 0.000000 
0.043263 -0.219048 0.000000 
0.046821 0.425055 0.000000 
0.048931 -0.916443 0.000000 
0.049471 -0.265221 0.000000 
0.049793 0.386064 0.000000 
0.049950 -0.962624 0.000000 
0.049970 -0.312500 0.000000 
-0.702534 -0.279202 0.000000 
-0.667891 0.427944 0.000000 
-0.645126 -0.850003 0.000000 
-0.650711 -0.223282 0.000000 
-0.652084 0.423196 0.000000 
-0.650791 -0.917027 0.000000 
-0.650458 -0.265548 0.000000 
-0.650211 0.385917 0.000000 
-0.650043 -0.962656 0.000000 
-0.650030 -0.312523 0.000000 
0.702534 -0.279202 0.000000 
0.667891 0.427944 0.000000 
0.645126 -0.850003 0.000000 
0.650711 -0.223282 0.000000 
0.652084 0.423196 0.000000 
0.650791 -0.917027 0.000000 
0.650458 -0.265548 0.000000 
0.650211 0.385917 0.000000 
0.650043 -0.962656 0.000000 
0.650030 -0.312523 0.000000 
-0.027909 -0.283304 0.000000 
-0.031883 0.426874 0.000000 
-0.037675 -0.842542 0.000000 
-0.043263 -0.219048 0.000000 
-0.046821 0.425055 0.000000 
-0.048931 -0.916443 0.000000 
-0.049471 -0.265221 0.000000 
-0.049793 0.386064 0.000000 
-0.049950 -0.962624 0.000000 
-0.049970 -0.312500 0.000000 
-0.761511 -0.289453 0.000000 
-0.730978 0.424371 0.000000 
-0.718401 -0.833267 0.000000 
-0.737156 -0.213908 0.000000 
-0.746271 0.427202 0.000000 
-0.748881 -0.915777 0.000000 
-0.749530 -0.264838 0.000000 
-0.749850 0.386242 0.000000 
-0.749951 -0.962585 0.000000 
-0.749977 -0.312471 0.000000 
0.698323 -0.299644 0.000000 
0.628293 0.417220 0.000000 
0.569819 -0.827661 0.000000 
0.562219 -0.211480 0.000000 
0.556714 0.427695 0.000000 
0.552222 -0.915668 0.000000 
0.551175 -0.264726 0.000000 
0.550524 0.386317 0.000000 
0.550136 -0.962566 0.000000 
0.550079 -0.312455 0.000000 
0.171492 -0.311439 0.000000 
0.002457 0.403293 0.000000 
-0.133924 -0.837432 0.000000 
-0.135439 -0.215644 0.000000 
-0.139728 0.426582 0.000000 
-0.146448 -0.915934 0.000000 
-0.147964 -0.264865 0.000000 
-0.149024 0.386261 0.000000 
-0.149762 -0.962575 0.000000 
-0.149854 -0.312459 0.000000 
CELL_DATA 100 
SCALARS MASS float 
LOOKUP_TABLE default 
10.000000 
10.000000 
10.000000 
10.000000 
10.000000 
10.000000 
10.000000 
10.000000 
10.000000 
10.000000 
10.000000 
10.000000 
10.000000 
10.000000 
10.000000 
10.000000 
10.000000 
10.000000 
10.000000 
10.000000 
10.000000 
10.000000 
10.000000 
10.000000 
10.000000 
10.000000 
10.000000 
10.000000 
10.000000 
10.000000 
10.000000 
10.000000 
10.000000 
10.000000 
10.000000 
10.000000 
10.000000 
10.000000 
10.000000 
10.000000 
10.000000 
10.000000 
10.000000 
10.000000 
10.000000 
10.000000 
10.000000 
10.000000 
10.000000 
10.000000 
10.000000 
10.000000 
10.000000 
10.000000 
10.000000 
10.000000 
10.000000 
10.000000 
10.000000 
10.000000 
10.000000 
10.000000 
10.000000 
10.000000 
10.000000 
10.000000 
10.000000 
10.000000 
10.000000 
10.000000 
10.000000 
10.000000 
10.000000 
10.000000 
10.000000 
10.000000 
10.000000 
10.000000 
10.000000 
10.000000 
10.000000 
10.000000 
10.000000 
10.000000 
10.000000 
10.000000 
10.000000 
10.000000 
10.000000 
10.000000 
10.000000 
10.000000 
10.000000 
10.000000 
10.000000 
10.000000 
10.000000 
10.000000 
10.000000 
10.000000 
SCALARS MASS float 
LOOKUP_TABLE default 
10.000000 
10.000000 
10.000000 
10.000000 
10.000000 
10.000000 
10.000000 
10.000000 
10.000000 
10.000000 
10.000000 
10.000000 
10.000000 
10.000000 
10.000000 
10.000000 
10.000000 
10.000000 
10.000000 
10.000000 
10.000000 
10.000000 
10.000000 
10.000000 
10.000000 
10.000000 
10.000000 
10.000000 
10.000000 
10.000000 
10.000000 
10.000000 
10.000000 
10.000000 
10.000000 
10.000000 
10.000000 
10.000000 
10.000000 
10.000000 
10.000000 
10.000000 
10.000000 
10.000000 
10.000000 
10.000000 
10.000000 
10.000000 
10.000000 
10.000000 
10.000000 
10.000000 
10.000000 
10.000000 
10.000000 
10.000000 
10.000000 
10.000000 
10.000000 
10.000000 
10.000000 
10.000000 
10.000000 
10.000000 
10.000000 
10.000000 
10.000000 
10.000000 
10.000000 
10.000000 
10.000000 
10.000000 
10.000000 
10.000000 
10.000000 
10.000000 
10.000000 
10.000000 
10.000000 
10.000000 
10.000000 
10.000000 
10.000000 
10.000000 
10.000000 
10.000000 
10.000000 
10.000000 
10.000000 
10.000000 
10.000000 
10.000000 
10.000000 
10.000000 
10.000000 
10.000000 
10.000000 
10.000000 
10.000000 
10.000000 
SCALARS DENSITY float 
LOOKUP_TABLE default 
11030.215963 
738.011736 
1056.308808 
1040.831434 
1001.669348 
1004.027246 
1005.138243 
1000.746003 
1000.205484 
1000.268289 
10303.014370 
727.296683 
1061.047484 
1036.799441 
1000.799792 
1003.351400 
1004.807614 
1000.683145 
1000.182143 
1000.257347 
10538.860434 
713.790700 
1057.254376 
1038.315313 
1002.276188 
1003.562019 
1004.918746 
1000.732421 
1000.193006 
1000.268211 
28169.197946 
981.534712 
1071.930768 
1042.258357 
1008.575612 
1007.833907 
1006.812632 
1001.369060 
1000.380785 
1000.364650 
14718.495540 
773.270325 
1060.155597 
1046.293393 
1009.381406 
1005.557075 
1006.031835 
1001.041701 
1000.277476 
1000.332039 
14718.495540 
773.270325 
1060.155597 
1046.293393 
1009.381406 
1005.557075 
1006.031835 
1001.041701 
1000.277476 
1000.332039 
28169.197946 
981.534712 
1071.930768 
1042.258357 
1008.575612 
1007.833907 
1006.812632 
1001.369060 
1000.380785 
1000.364650 
10538.860434 
713.790700 
1057.254376 
1038.315313 
1002.276188 
1003.562019 
1004.918746 
1000.732421 
1000.193006 
1000.268211 
10303.014370 
727.296683 
1061.047484 
1036.799441 
1000.799792 
1003.351400 
1004.807614 
1000.683145 
1000.182143 
1000.257347 
11030.215963 
738.011736 
1056.308808 
1040.831434 
1001.669348 
1004.027246 
1005.138243 
1000.746003 
1000.205484 
1000.268289 
SCALARS ELEM_i float 
LOOKUP_TABLE default 
81 
82 
82 
83 
84 
84 
85 
86 
86 
87 
108 
109 
109 
110 
111 
111 
112 
113 
113 
114 
108 
109 
109 
110 
111 
111 
112 
113 
113 
114 
135 
136 
136 
137 
138 
138 
139 
140 
140 
141 
162 
163 
163 
164 
165 
165 
166 
167 
167 
168 
162 
163 
163 
164 
165 
165 
166 
167 
167 
168 
189 
190 
190 
191 
192 
192 
193 
194 
194 
195 
216 
217 
217 
218 
219 
219 
220 
221 
221 
222 
216 
217 
217 
218 
219 
219 
220 
221 
221 
222 
243 
244 
244 
245 
246 
246 
247 
248 
248 
249 
VECTORS VELOCITY float 
5.984935 -8.645242 0.000000 
0.909477 -0.565991 0.000000 
-0.581257 -10.098613 0.000000 
0.335067 -7.091049 0.000000 
0.315804 -6.504432 0.000000 
0.063892 -6.973485 0.000000 
0.069113 -6.878209 0.000000 
0.043418 -6.887148 0.000000 
0.006439 -6.944653 0.000000 
0.006195 -6.939542 0.000000 
1.530199 -9.677351 0.000000 
0.244456 -1.508428 0.000000 
0.240522 -10.542421 0.000000 
0.272728 -7.297641 0.000000 
0.134109 -6.575423 0.000000 
0.033182 -6.987229 0.000000 
0.029158 -6.888050 0.000000 
0.016753 -6.892437 0.000000 
0.002618 -6.945420 0.000000 
0.002533 -6.939987 0.000000 
-1.011464 -9.974176 0.000000 
1.081854 -1.636939 0.000000 
1.496148 -10.140457 0.000000 
0.380565 -7.183306 0.000000 
0.016698 -6.590132 0.000000 
0.036944 -6.983752 0.000000 
0.010458 -6.882482 0.000000 
0.000537 -6.888870 0.000000 
0.001151 -6.944917 0.000000 
0.000306 -6.939087 0.000000 
0.616976 -10.229072 0.000000 
0.461111 -1.724618 0.000000 
0.242655 -9.748809 0.000000 
0.155202 -7.029994 0.000000 
0.094470 -6.555321 0.000000 
0.039912 -6.959925 0.000000 
0.020676 -6.866961 0.000000 
0.008226 -6.881941 0.000000 
0.001741 -6.944054 0.000000 
0.001367 -6.937751 0.000000 
1.656071 -10.414420 0.000000 
-0.192975 -1.783492 0.000000 
-0.726482 -9.465293 0.000000 
-0.043629 -6.911314 0.000000 
0.120560 -6.521184 0.000000 
0.027275 -6.938949 0.000000 
0.021571 -6.853885 0.000000 
0.011705 -6.876292 0.000000 
0.001645 -6.943359 0.000000 
0.001765 -6.936699 0.000000 
-1.656071 -10.414420 0.000000 
0.192975 -1.783492 0.000000 
0.726482 -9.465293 0.000000 
0.043629 -6.911314 0.000000 
-0.120560 -6.521184 0.000000 
-0.027275 -6.938949 0.000000 
-0.021571 -6.853885 0.000000 
-0.011705 -6.876292 0.000000 
-0.001645 -6.943359 0.000000 
-0.001765 -6.936699 0.000000 
-0.616976 -10.229072 0.000000 
-0.461111 -1.724618 0.000000 
-0.242655 -9.748809 0.000000 
-0.155202 -7.029994 0.000000 
-0.094470 -6.555321 0.000000 
-0.039912 -6.959925 0.000000 
-0.020676 -6.866961 0.000000 
-0.008226 -6.881941 0.000000 
-0.001741 -6.944054 0.000000 
-0.001367 -6.937751 0.000000 
1.011464 -9.974176 0.000000 
-1.081854 -1.636939 0.000000 
-1.496148 -10.140457 0.000000 
-0.380565 -7.183306 0.000000 
-0.016698 -6.590132 0.000000 
-0.036944 -6.983752 0.000000 
-0.010458 -6.882482 0.000000 
-0.000537 -6.888870 0.000000 
-0.001151 -6.944917 0.000000 
-0.000306 -6.939087 0.000000 
-1.530199 -9.677351 0.000000 
-0.244456 -1.508428 0.000000 
-0.240522 -10.542421 0.000000 
-0.272728 -7.297641 0.000000 
-0.134109 -6.575423 0.000000 
-0.033182 -6.987229 0.000000 
-0.029158 -6.888050 0.000000 
-0.016753 -6.892437 0.000000 
-0.002618 -6.945420 0.000000 
-0.002533 -6.939987 0.000000 
-5.984935 -8.645242 0.000000 
-0.909477 -0.565991 0.000000 
0.581257 -10.098613 0.000000 
-0.335067 -7.091049 0.000000 
-0.315804 -6.504432 0.000000 
-0.063892 -6.973485 0.000000 
-0.069113 -6.878209 0.000000 
-0.043418 -6.887148 0.000000 
-0.006439 -6.944653 0.000000 
-0.006195 -6.939542 0.000000 
TENSORS STRESS float 
-745.911048 -31.181559 0.000000 
0.000000 -1041.262668 0.000000 
0.000000 0.000000 0.000000 

2270.145396 -994.068781 0.000000 
0.000000 1714.315562 0.000000 
0.000000 0.000000 0.000000 

-597.620154 -180.223057 0.000000 
0.000000 -797.020320 0.000000 
0.000000 0.000000 0.000000 

95.619659 -23.663767 0.000000 
0.000000 88.467496 0.000000 
0.000000 0.000000 0.000000 

-14.186472 -19.814713 0.000000 
0.000000 -39.679753 0.000000 
0.000000 0.000000 0.000000 

-27.902486 -11.217028 0.000000 
0.000000 -45.906501 0.000000 
0.000000 0.000000 0.000000 

-31.023121 -7.673406 0.000000 
0.000000 -43.508534 0.000000 
0.000000 0.000000 0.000000 

-9.317168 -2.123346 0.000000 
0.000000 -13.738832 0.000000 
0.000000 0.000000 0.000000 

-1.940540 -0.432285 0.000000 
0.000000 -3.111540 0.000000 
0.000000 0.000000 0.000000 

-2.867122 -0.457440 0.000000 
0.000000 -3.869556 0.000000 
0.000000 0.000000 0.000000 

-784.915342 -12.729659 0.000000 
0.000000 -1106.021298 0.000000 
0.000000 0.000000 0.000000 

2200.257156 -456.445525 0.000000 
0.000000 1633.647890 0.000000 
0.000000 0.000000 0.000000 

-733.587634 -119.586834 0.000000 
0.000000 -892.309246 0.000000 
0.000000 0.000000 0.000000 

113.387753 -43.822072 0.000000 
0.000000 134.647663 0.000000 
0.000000 0.000000 0.000000 

-6.150802 -23.513383 0.000000 
0.000000 -30.049454 0.000000 
0.000000 0.000000 0.000000 

-20.558121 -9.501328 0.000000 
0.000000 -38.482643 0.000000 
0.000000 0.000000 0.000000 

-27.306153 -5.579781 0.000000 
0.000000 -39.655898 0.000000 
0.000000 0.000000 0.000000 

-8.380131 -1.689022 0.000000 
0.000000 -12.918603 0.000000 
0.000000 0.000000 0.000000 

-1.586728 -0.366650 0.000000 
0.000000 -2.810486 0.000000 
0.000000 0.000000 0.000000 

-2.678690 -0.337479 0.000000 
0.000000 -3.703796 0.000000 
0.000000 0.000000 0.000000 

-784.027273 7.735076 0.000000 
0.000000 -1101.777289 0.000000 
0.000000 0.000000 0.000000 

2531.037138 122.172819 0.000000 
0.000000 2016.638661 0.000000 
0.000000 0.000000 0.000000 

-652.994147 -15.220480 0.000000 
0.000000 -793.200211 0.000000 
0.000000 0.000000 0.000000 

96.678225 -51.985283 0.000000 
0.000000 114.152330 0.000000 
0.000000 0.000000 0.000000 

-20.180722 -19.351157 0.000000 
0.000000 -47.161339 0.000000 
0.000000 0.000000 0.000000 

-23.952965 -5.899554 0.000000 
0.000000 -42.628841 0.000000 
0.000000 0.000000 0.000000 

-27.633379 -2.409184 0.000000 
0.000000 -40.054975 0.000000 
0.000000 0.000000 0.000000 

-9.073898 -0.818316 0.000000 
0.000000 -13.766358 0.000000 
0.000000 0.000000 0.000000 

-1.717865 -0.168062 0.000000 
0.000000 -2.970754 0.000000 
0.000000 0.000000 0.000000 

-2.809804 -0.138908 0.000000 
0.000000 -3.864041 0.000000 
0.000000 0.000000 0.000000 

-483.667323 0.563235 0.000000 
0.000000 -569.302497 0.000000 
0.000000 0.000000 0.000000 

-541.740544 -17.791392 0.000000 
0.000000 -404.620350 0.000000 
0.000000 0.000000 0.000000 

-295.444719 -50.608375 0.000000 
0.000000 -471.756314 0.000000 
0.000000 0.000000 0.000000 

176.319048 -44.900713 0.000000 
0.000000 159.625392 0.000000 
0.000000 0.000000 0.000000 

-77.955483 -19.872534 0.000000 
0.000000 -108.117166 0.000000 
0.000000 0.000000 0.000000 

-73.295954 -6.314659 0.000000 
0.000000 -87.523009 0.000000 
0.000000 0.000000 0.000000 

-50.165839 -3.315046 0.000000 
0.000000 -60.311510 0.000000 
0.000000 0.000000 0.000000 

-18.801261 -1.211852 0.000000 
0.000000 -22.524921 0.000000 
0.000000 0.000000 0.000000 

-4.581347 -0.267594 0.000000 
0.000000 -5.450385 0.000000 
0.000000 0.000000 0.000000 

-4.389719 -0.181194 0.000000 
0.000000 -5.293628 0.000000 
0.000000 0.000000 0.000000 

-684.682232 -3.691415 0.000000 
0.000000 -894.067812 0.000000 
0.000000 0.000000 0.000000 

1756.641977 -141.307616 0.000000 
0.000000 1559.122358 0.000000 
0.000000 0.000000 0.000000 

-437.973672 -33.463396 0.000000 
0.000000 -573.887646 0.000000 
0.000000 0.000000 0.000000 

58.697277 -2.221531 0.000000 
0.000000 46.797786 0.000000 
0.000000 0.000000 0.000000 

-81.393154 -2.430111 0.000000 
0.000000 -122.485363 0.000000 
0.000000 0.000000 0.000000 

-46.654506 -1.681692 0.000000 
0.000000 -69.742983 0.000000 
0.000000 0.000000 0.000000 

-36.621104 -1.477576 0.000000 
0.000000 -50.900211 0.000000 
0.000000 0.000000 0.000000 

-13.284471 -0.433574 0.000000 
0.000000 -18.692377 0.000000 
0.000000 0.000000 0.000000 

-2.836612 -0.074392 0.000000 
0.000000 -4.137870 0.000000 
0.000000 0.000000 0.000000 

-3.654672 -0.074387 0.000000 
0.000000 -4.807093 0.000000 
0.000000 0.000000 0.000000 

-684.682232 3.691415 0.000000 
0.000000 -894.067812 0.000000 
0.000000 0.000000 0.000000 

1756.641977 141.307616 0.000000 
0.000000 1559.122358 0.000000 
0.000000 0.000000 0.000000 

-437.973672 33.463396 0.000000 
0.000000 -573.887646 0.000000 
0.000000 0.000000 0.000000 

58.697277 2.221531 0.000000 
0.000000 46.797786 0.000000 
0.000000 0.000000 0.000000 

-81.393154 2.430111 0.000000 
0.000000 -122.485363 0.000000 
0.000000 0.000000 0.000000 

-46.654506 1.681692 0.000000 
0.000000 -69.742983 0.000000 
0.000000 0.000000 0.000000 

-36.621104 1.477576 0.000000 
0.000000 -50.900211 0.000000 
0.000000 0.000000 0.000000 

-13.284471 0.433574 0.000000 
0.000000 -18.692377 0.000000 
0.000000 0.000000 0.000000 

-2.836612 0.074392 0.000000 
0.000000 -4.137870 0.000000 
0.000000 0.000000 0.000000 

-3.654672 0.074387 0.000000 
0.000000 -4.807093 0.000000 
0.000000 0.000000 0.000000 

-483.667323 -0.563235 0.000000 
0.000000 -569.302497 0.000000 
0.000000 0.000000 0.000000 

-541.740544 17.791392 0.000000 
0.000000 -404.620350 0.000000 
0.000000 0.000000 0.000000 

-295.444719 50.608375 0.000000 
0.000000 -471.756314 0.000000 
0.000000 0.000000 0.000000 

176.319048 44.900713 0.000000 
0.000000 159.625392 0.000000 
0.000000 0.000000 0.000000 

-77.955483 19.872534 0.000000 
0.000000 -108.117166 0.000000 
0.000000 0.000000 0.000000 

-73.295954 6.314659 0.000000 
0.000000 -87.523009 0.000000 
0.000000 0.000000 0.000000 

-50.165839 3.315046 0.000000 
0.000000 -60.311510 0.000000 
0.000000 0.000000 0.000000 

-18.801261 1.211852 0.000000 
0.000000 -22.524921 0.000000 
0.000000 0.000000 0.000000 

-4.581347 0.267594 0.000000 
0.000000 -5.450385 0.000000 
0.000000 0.000000 0.000000 

-4.389719 0.181194 0.000000 
0.000000 -5.293628 0.000000 
0.000000 0.000000 0.000000 

-784.027273 -7.735076 0.000000 
0.000000 -1101.777289 0.000000 
0.000000 0.000000 0.000000 

2531.037138 -122.172819 0.000000 
0.000000 2016.638661 0.000000 
0.000000 0.000000 0.000000 

-652.994147 15.220480 0.000000 
0.000000 -793.200211 0.000000 
0.000000 0.000000 0.000000 

96.678225 51.985283 0.000000 
0.000000 114.152330 0.000000 
0.000000 0.000000 0.000000 

-20.180722 19.351157 0.000000 
0.000000 -47.161339 0.000000 
0.000000 0.000000 0.000000 

-23.952965 5.899554 0.000000 
0.000000 -42.628841 0.000000 
0.000000 0.000000 0.000000 

-27.633379 2.409184 0.000000 
0.000000 -40.054975 0.000000 
0.000000 0.000000 0.000000 

-9.073898 0.818316 0.000000 
0.000000 -13.766358 0.000000 
0.000000 0.000000 0.000000 

-1.717865 0.168062 0.000000 
0.000000 -2.970754 0.000000 
0.000000 0.000000 0.000000 

-2.809804 0.138908 0.000000 
0.000000 -3.864041 0.000000 
0.000000 0.000000 0.000000 

-784.915342 12.729659 0.000000 
0.000000 -1106.021298 0.000000 
0.000000 0.000000 0.000000 

2200.257156 456.445525 0.000000 
0.000000 1633.647890 0.000000 
0.000000 0.000000 0.000000 

-733.587634 119.586834 0.000000 
0.000000 -892.309246 0.000000 
0.000000 0.000000 0.000000 

113.387753 43.822072 0.000000 
0.000000 134.647663 0.000000 
0.000000 0.000000 0.000000 

-6.150802 23.513383 0.000000 
0.000000 -30.049454 0.000000 
0.000000 0.000000 0.000000 

-20.558121 9.501328 0.000000 
0.000000 -38.482643 0.000000 
0.000000 0.000000 0.000000 

-27.306153 5.579781 0.000000 
0.000000 -39.655898 0.000000 
0.000000 0.000000 0.000000 

-8.380131 1.689022 0.000000 
0.000000 -12.918603 0.000000 
0.000000 0.000000 0.000000 

-1.586728 0.366650 0.000000 
0.000000 -2.810486 0.000000 
0.000000 0.000000 0.000000 

-2.678690 0.337479 0.000000 
0.000000 -3.703796 0.000000 
0.000000 0.000000 0.000000 

-745.911048 31.181559 0.000000 
0.000000 -1041.262668 0.000000 
0.000000 0.000000 0.000000 

2270.145396 994.068781 0.000000 
0.000000 1714.315562 0.000000 
0.000000 0.000000 0.000000 

-597.620154 180.223057 0.000000 
0.000000 -797.020320 0.000000 
0.000000 0.000000 0.000000 

95.619659 23.663767 0.000000 
0.000000 88.467496 0.000000 
0.000000 0.000000 0.000000 

-14.186472 19.814713 0.000000 
0.000000 -39.679753 0.000000 
0.000000 0.000000 0.000000 

-27.902486 11.217028 0.000000 
0.000000 -45.906501 0.000000 
0.000000 0.000000 0.000000 

-31.023121 7.673406 0.000000 
0.000000 -43.508534 0.000000 
0.000000 0.000000 0.000000 

-9.317168 2.123346 0.000000 
0.000000 -13.738832 0.000000 
0.000000 0.000000 0.000000 

-1.940540 0.432285 0.000000 
0.000000 -3.111540 0.000000 
0.000000 0.000000 0.000000 

-2.867122 0.457440 0.000000 
0.000000 -3.869556 0.000000 
0.000000 0.000000 0.000000 

TENSORS STRAIN float 
0.093271 -0.049871 0.000000 
0.000000 -0.379109 0.000000 
0.000000 0.000000 0.000000 

0.051059 -0.106377 0.000000 
0.000000 -0.008421 0.000000 
0.000000 0.000000 0.000000 

0.004590 -0.027604 0.000000 
0.000000 -0.025951 0.000000 
0.000000 0.000000 0.000000 

0.001929 -0.003571 0.000000 
0.000000 0.000849 0.000000 
0.000000 0.000000 0.000000 

0.001460 -0.002878 0.000000 
0.000000 -0.002243 0.000000 
0.000000 0.000000 0.000000 

0.000773 -0.001633 0.000000 
0.000000 -0.001848 0.000000 
0.000000 0.000000 0.000000 

0.000367 -0.001118 0.000000 
0.000000 -0.001453 0.000000 
0.000000 0.000000 0.000000 

0.000154 -0.000308 0.000000 
0.000000 -0.000488 0.000000 
0.000000 0.000000 0.000000 

0.000048 -0.000063 0.000000 
0.000000 -0.000122 0.000000 
0.000000 0.000000 0.000000 

0.000024 -0.000066 0.000000 
0.000000 -0.000122 0.000000 
0.000000 0.000000 0.000000 

0.098609 -0.019017 0.000000 
0.000000 -0.381103 0.000000 
0.000000 0.000000 0.000000 

0.050093 -0.048136 0.000000 
0.000000 -0.009661 0.000000 
0.000000 0.000000 0.000000 

-0.000298 -0.018399 0.000000 
0.000000 -0.024717 0.000000 
0.000000 0.000000 0.000000 

0.000266 -0.006588 0.000000 
0.000000 0.003462 0.000000 
0.000000 0.000000 0.000000 

0.001471 -0.003412 0.000000 
0.000000 -0.001997 0.000000 
0.000000 0.000000 0.000000 

0.000874 -0.001382 0.000000 
0.000000 -0.001733 0.000000 
0.000000 0.000000 0.000000 

0.000412 -0.000813 0.000000 
0.000000 -0.001387 0.000000 
0.000000 0.000000 0.000000 

0.000175 -0.000245 0.000000 
0.000000 -0.000484 0.000000 
0.000000 0.000000 0.000000 

0.000057 -0.000053 0.000000 
0.000000 -0.000121 0.000000 
0.000000 0.000000 0.000000 

0.000028 -0.000049 0.000000 
0.000000 -0.000121 0.000000 
0.000000 0.000000 0.000000 

0.098694 0.011820 0.000000 
0.000000 -0.386871 0.000000 
0.000000 0.000000 0.000000 

0.050154 0.012645 0.000000 
0.000000 -0.003086 0.000000 
0.000000 0.000000 0.000000 

-0.000338 -0.002333 0.000000 
0.000000 -0.021832 0.000000 
0.000000 0.000000 0.000000 

0.000272 -0.007827 0.000000 
0.000000 0.002903 0.000000 
0.000000 0.000000 0.000000 

0.001471 -0.002812 0.000000 
0.000000 -0.002450 0.000000 
0.000000 0.000000 0.000000 

0.000874 -0.000858 0.000000 
0.000000 -0.001843 0.000000 
0.000000 0.000000 0.000000 

0.000412 -0.000351 0.000000 
0.000000 -0.001398 0.000000 
0.000000 0.000000 0.000000 

0.000175 -0.000119 0.000000 
0.000000 -0.000506 0.000000 
0.000000 0.000000 0.000000 

0.000057 -0.000024 0.000000 
0.000000 -0.000125 0.000000 
0.000000 0.000000 0.000000 

0.000028 -0.000020 0.000000 
0.000000 -0.000125 0.000000 
0.000000 0.000000 0.000000 

-0.040155 0.002301 0.000000 
0.000000 -0.389934 0.000000 
0.000000 0.000000 0.000000 

-0.016492 -0.002532 0.000000 
0.000000 0.003023 0.000000 
0.000000 0.000000 0.000000 

0.007740 -0.007866 0.000000 
0.000000 -0.019664 0.000000 
0.000000 0.000000 0.000000 

0.003800 -0.006786 0.000000 
0.000000 0.001277 0.000000 
0.000000 0.000000 0.000000 

0.000845 -0.002906 0.000000 
0.000000 -0.003566 0.000000 
0.000000 0.000000 0.000000 

-0.000136 -0.000923 0.000000 
0.000000 -0.002215 0.000000 
0.000000 0.000000 0.000000 

-0.000066 -0.000484 0.000000 
0.000000 -0.001547 0.000000 
0.000000 0.000000 0.000000 

-0.000030 -0.000176 0.000000 
0.000000 -0.000570 0.000000 
0.000000 0.000000 0.000000 

-0.000010 -0.000039 0.000000 
0.000000 -0.000136 0.000000 
0.000000 0.000000 0.000000 

-0.000005 -0.000026 0.000000 
0.000000 -0.000136 0.000000 
0.000000 0.000000 0.000000 

0.054966 -0.007878 0.000000 
0.000000 -0.391900 0.000000 
0.000000 0.000000 0.000000 

0.029662 -0.015844 0.000000 
0.000000 0.007516 0.000000 
0.000000 0.000000 0.000000 

0.002669 -0.005144 0.000000 
0.000000 -0.018224 0.000000 
0.000000 0.000000 0.000000 

0.001703 -0.000337 0.000000 
0.000000 -0.000102 0.000000 
0.000000 0.000000 0.000000 

0.001515 -0.000356 0.000000 
0.000000 -0.004499 0.000000 