# vtk DataFile Version 3.0 
vtk output 
ASCII 
DATASET UNSTRUCTURED_GRID 
POINTS 100 float 
0.454089 -2.874863 0.000000 
0.451769 -2.774079 0.000000 
0.450188 -2.674944 0.000000 
0.450063 -2.575054 0.000000 
0.450021 -2.475101 0.000000 
0.450002 -2.375126 0.000000 
0.450000 -2.275128 0.000000 
0.450000 -2.175129 0.000000 
0.450000 -2.075129 0.000000 
0.450000 -1.975129 0.000000 
0.351517 -2.874884 0.000000 
0.350695 -2.774099 0.000000 
0.350112 -2.674960 0.000000 
0.350029 -2.575061 0.000000 
0.350009 -2.475104 0.000000 
0.350001 -2.375127 0.000000 
0.350000 -2.275128 0.000000 
0.350000 -2.175129 0.000000 
0.350000 -2.075129 0.000000 
0.350000 -1.975129 0.000000 
0.249135 -2.874905 0.000000 
0.249695 -2.774093 0.000000 
0.250041 -2.674951 0.000000 
0.250001 -2.575056 0.000000 
0.249999 -2.475102 0.000000 
0.250000 -2.375126 0.000000 
0.250000 -2.275128 0.000000 
0.250000 -2.175129 0.000000 
0.250000 -2.075129 0.000000 
0.250000 -1.975129 0.000000 
0.150139 -2.874927 0.000000 
0.150070 -2.774084 0.000000 
0.150019 -2.674937 0.000000 
0.150007 -2.575050 0.000000 
0.150002 -2.475099 0.000000 
0.150000 -2.375126 0.000000 
0.150000 -2.275128 0.000000 
0.150000 -2.175129 0.000000 
0.150000 -2.075129 0.000000 
0.150000 -1.975129 0.000000 
0.050950 -2.874944 0.000000 
0.050379 -2.774076 0.000000 
0.050008 -2.674927 0.000000 
0.050011 -2.575044 0.000000 
0.050005 -2.475097 0.000000 
0.050000 -2.375126 0.000000 
0.050000 -2.275128 0.000000 
0.050000 -2.175129 0.000000 
0.050000 -2.075129 0.000000 
0.050000 -1.975129 0.000000 
-0.050950 -2.874944 0.000000 
-0.050379 -2.774076 0.000000 
-0.050008 -2.674927 0.000000 
-0.050011 -2.575044 0.000000 
-0.050005 -2.475097 0.000000 
-0.050000 -2.375126 0.000000 
-0.050000 -2.275128 0.000000 
-0.050000 -2.175129 0.000000 
-0.050000 -2.075129 0.000000 
-0.050000 -1.975129 0.000000 
-0.150139 -2.874927 0.000000 
-0.150070 -2.774084 0.000000 
-0.150019 -2.674937 0.000000 
-0.150007 -2.575050 0.000000 
-0.150002 -2.475099 0.000000 
-0.150000 -2.375126 0.000000 
-0.150000 -2.275128 0.000000 
-0.150000 -2.175129 0.000000 
-0.150000 -2.075129 0.000000 
-0.150000 -1.975129 0.000000 
-0.249135 -2.874905 0.000000 
-0.249695 -2.774093 0.000000 
-0.250041 -2.674951 0.000000 
-0.250001 -2.575056 0.000000 
-0.249999 -2.475102 0.000000 
-0.250000 -2.375126 0.000000 
-0.250000 -2.275128 0.000000 
-0.250000 -2.175129 0.000000 
-0.250000 -2.075129 0.000000 
-0.250000 -1.975129 0.000000 
-0.351517 -2.874884 0.000000 
-0.350695 -2.774099 0.000000 
-0.350112 -2.674960 0.000000 
-0.350029 -2.575061 0.000000 
-0.350009 -2.475104 0.000000 
-0.350001 -2.375127 0.000000 
-0.350000 -2.275128 0.000000 
-0.350000 -2.175129 0.000000 
-0.350000 -2.075129 0.000000 
-0.350000 -1.975129 0.000000 
-0.454089 -2.874863 0.000000 
-0.451769 -2.774079 0.000000 
-0.450188 -2.674944 0.000000 
-0.450063 -2.575054 0.000000 
-0.450021 -2.475101 0.000000 
-0.450002 -2.375126 0.000000 
-0.450000 -2.275128 0.000000 
-0.450000 -2.175129 0.000000 
-0.450000 -2.075129 0.000000 
-0.450000 -1.975129 0.000000 
CELLS 100 200 
1 0 
1 1 
1 2 
1 3 
1 4 
1 5 
1 6 
1 7 
1 8 
1 9 
1 10 
1 11 
1 12 
1 13 
1 14 
1 15 
1 16 
1 17 
1 18 
1 19 
1 20 
1 21 
1 22 
1 23 
1 24 
1 25 
1 26 
1 27 
1 28 
1 29 
1 30 
1 31 
1 32 
1 33 
1 34 
1 35 
1 36 
1 37 
1 38 
1 39 
1 40 
1 41 
1 42 
1 43 
1 44 
1 45 
1 46 
1 47 
1 48 
1 49 
1 50 
1 51 
1 52 
1 53 
1 54 
1 55 
1 56 
1 57 
1 58 
1 59 
1 60 
1 61 
1 62 
1 63 
1 64 
1 65 
1 66 
1 67 
1 68 
1 69 
1 70 
1 71 
1 72 
1 73 
1 74 
1 75 
1 76 
1 77 
1 78 
1 79 
1 80 
1 81 
1 82 
1 83 
1 84 
1 85 
1 86 
1 87 
1 88 
1 89 
1 90 
1 91 
1 92 
1 93 
1 94 
1 95 
1 96 
1 97 
1 98 
1 99 
CELL_TYPES 100 
1 
1 
1 
1 
1 
1 
1 
1 
1 
1 
1 
1 
1 
1 
1 
1 
1 
1 
1 
1 
1 
1 
1 
1 
1 
1 
1 
1 
1 
1 
1 
1 
1 
1 
1 
1 
1 
1 
1 
1 
1 
1 
1 
1 
1 
1 
1 
1 
1 
1 
1 
1 
1 
1 
1 
1 
1 
1 
1 
1 
1 
1 
1 
1 
1 
1 
1 
1 
1 
1 
1 
1 
1 
1 
1 
1 
1 
1 
1 
1 
1 
1 
1 
1 
1 
1 
1 
1 
1 
1 
1 
1 
1 
1 
1 
1 
1 
1 
1 
1 
POINT_DATA 100 
VECTORS X_GC float 
0.454089 -2.874863 0.000000 
0.451769 -2.774079 0.000000 
0.450188 -2.674944 0.000000 
0.450063 -2.575054 0.000000 
0.450021 -2.475101 0.000000 
0.450002 -2.375126 0.000000 
0.450000 -2.275128 0.000000 
0.450000 -2.175129 0.000000 
0.450000 -2.075129 0.000000 
0.450000 -1.975129 0.000000 
0.351517 -2.874884 0.000000 
0.350695 -2.774099 0.000000 
0.350112 -2.674960 0.000000 
0.350029 -2.575061 0.000000 
0.350009 -2.475104 0.000000 
0.350001 -2.375127 0.000000 
0.350000 -2.275128 0.000000 
0.350000 -2.175129 0.000000 
0.350000 -2.075129 0.000000 
0.350000 -1.975129 0.000000 
0.249135 -2.874905 0.000000 
0.249695 -2.774093 0.000000 
0.250041 -2.674951 0.000000 
0.250001 -2.575056 0.000000 
0.249999 -2.475102 0.000000 
0.250000 -2.375126 0.000000 
0.250000 -2.275128 0.000000 
0.250000 -2.175129 0.000000 
0.250000 -2.075129 0.000000 
0.250000 -1.975129 0.000000 
0.150139 -2.874927 0.000000 
0.150070 -2.774084 0.000000 
0.150019 -2.674937 0.000000 
0.150007 -2.575050 0.000000 
0.150002 -2.475099 0.000000 
0.150000 -2.375126 0.000000 
0.150000 -2.275128 0.000000 
0.150000 -2.175129 0.000000 
0.150000 -2.075129 0.000000 
0.150000 -1.975129 0.000000 
0.050950 -2.874944 0.000000 
0.050379 -2.774076 0.000000 
0.050008 -2.674927 0.000000 
0.050011 -2.575044 0.000000 
0.050005 -2.475097 0.000000 
0.050000 -2.375126 0.000000 
0.050000 -2.275128 0.000000 
0.050000 -2.175129 0.000000 
0.050000 -2.075129 0.000000 
0.050000 -1.975129 0.000000 
-0.050950 -2.874944 0.000000 
-0.050379 -2.774076 0.000000 
-0.050008 -2.674927 0.000000 
-0.050011 -2.575044 0.000000 
-0.050005 -2.475097 0.000000 
-0.050000 -2.375126 0.000000 
-0.050000 -2.275128 0.000000 
-0.050000 -2.175129 0.000000 
-0.050000 -2.075129 0.000000 
-0.050000 -1.975129 0.000000 
-0.150139 -2.874927 0.000000 
-0.150070 -2.774084 0.000000 
-0.150019 -2.674937 0.000000 
-0.150007 -2.575050 0.000000 
-0.150002 -2.475099 0.000000 
-0.150000 -2.375126 0.000000 
-0.150000 -2.275128 0.000000 
-0.150000 -2.175129 0.000000 
-0.150000 -2.075129 0.000000 
-0.150000 -1.975129 0.000000 
-0.249135 -2.874905 0.000000 
-0.249695 -2.774093 0.000000 
-0.250041 -2.674951 0.000000 
-0.250001 -2.575056 0.000000 
-0.249999 -2.475102 0.000000 
-0.250000 -2.375126 0.000000 
-0.250000 -2.275128 0.000000 
-0.250000 -2.175129 0.000000 
-0.250000 -2.075129 0.000000 
-0.250000 -1.975129 0.000000 
-0.351517 -2.874884 0.000000 
-0.350695 -2.774099 0.000000 
-0.350112 -2.674960 0.000000 
-0.350029 -2.575061 0.000000 
-0.350009 -2.475104 0.000000 
-0.350001 -2.375127 0.000000 
-0.350000 -2.275128 0.000000 
-0.350000 -2.175129 0.000000 
-0.350000 -2.075129 0.000000 
-0.350000 -1.975129 0.000000 
-0.454089 -2.874863 0.000000 
-0.451769 -2.774079 0.000000 
-0.450188 -2.674944 0.000000 
-0.450063 -2.575054 0.000000 
-0.450021 -2.475101 0.000000 
-0.450002 -2.375126 0.000000 
-0.450000 -2.275128 0.000000 
-0.450000 -2.175129 0.000000 
-0.450000 -2.075129 0.000000 
-0.450000 -1.975129 0.000000 
VECTORS X_EC float 
0.096841 -0.689353 0.000000 
0.127001 -0.049938 0.000000 
0.147554 0.611741 0.000000 
0.149175 -0.736771 0.000000 
0.149721 -0.086133 0.000000 
0.149975 0.564207 0.000000 
0.149994 -0.785766 0.000000 
0.149998 -0.135760 0.000000 
0.150000 0.514243 0.000000 
0.150000 -0.835757 0.000000 
-0.569725 -0.689068 0.000000 
-0.559030 -0.049662 0.000000 
-0.551451 0.611965 0.000000 
-0.550378 -0.736676 0.000000 
-0.550114 -0.086100 0.000000 
-0.550014 0.564208 0.000000 
-0.550003 -0.785766 0.000000 
-0.550001 -0.135759 0.000000 
-0.550000 0.514243 0.000000 
-0.550000 -0.835757 0.000000 
0.761239 -0.688786 0.000000 
0.753960 -0.049741 0.000000 
0.749472 0.611836 0.000000 
0.749983 -0.736738 0.000000 
0.750018 -0.086122 0.000000 
0.749997 0.564207 0.000000 
0.750000 -0.785766 0.000000 
0.750000 -0.135759 0.000000 
0.750000 0.514243 0.000000 
0.750000 -0.835757 0.000000 
0.048195 -0.688482 0.000000 
0.049088 -0.049867 0.000000 
0.049750 0.611653 0.000000 
0.049914 -0.736831 0.000000 
0.049971 -0.086158 0.000000 
0.049997 0.564204 0.000000 
0.049999 -0.785767 0.000000 
0.050000 -0.135760 0.000000 
0.050000 0.514243 0.000000 
0.050000 -0.835757 0.000000 
-0.662347 -0.688254 0.000000 
-0.654926 -0.049968 0.000000 
-0.650103 0.611510 0.000000 
-0.650138 -0.736904 0.000000 
-0.650062 -0.086186 0.000000 
-0.650004 0.564202 0.000000 
-0.650002 -0.785767 0.000000 
-0.650001 -0.135760 0.000000 
-0.650000 0.514243 0.000000 
-0.650000 -0.835757 0.000000 
0.662347 -0.688254 0.000000 
0.654926 -0.049968 0.000000 
0.650103 0.611510 0.000000 
0.650138 -0.736904 0.000000 
0.650062 -0.086186 0.000000 
0.650004 0.564202 0.000000 
0.650002 -0.785767 0.000000 
0.650001 -0.135760 0.000000 
0.650000 0.514243 0.000000 
0.650000 -0.835757 0.000000 
-0.048195 -0.688482 0.000000 
-0.049088 -0.049867 0.000000 
-0.049750 0.611653 0.000000 
-0.049914 -0.736831 0.000000 
-0.049971 -0.086158 0.000000 
-0.049997 0.564204 0.000000 
-0.049999 -0.785767 0.000000 
-0.050000 -0.135760 0.000000 
-0.050000 0.514243 0.000000 
-0.050000 -0.835757 0.000000 
-0.761239 -0.688786 0.000000 
-0.753960 -0.049741 0.000000 
-0.749472 0.611836 0.000000 
-0.749983 -0.736738 0.000000 
-0.750018 -0.086122 0.000000 
-0.749997 0.564207 0.000000 
-0.750000 -0.785766 0.000000 
-0.750000 -0.135759 0.000000 
-0.750000 0.514243 0.000000 
-0.750000 -0.835757 0.000000 
0.569725 -0.689068 0.000000 
0.559030 -0.049662 0.000000 
0.551451 0.611965 0.000000 
0.550378 -0.736676 0.000000 
0.550114 -0.086100 0.000000 
0.550014 0.564208 0.000000 
0.550003 -0.785766 0.000000 
0.550001 -0.135759 0.000000 
0.550000 0.514243 0.000000 
0.550000 -0.835757 0.000000 
-0.096841 -0.689353 0.000000 
-0.127001 -0.049938 0.000000 
-0.147554 0.611741 0.000000 
-0.149175 -0.736771 0.000000 
-0.149721 -0.086133 0.000000 
-0.149975 0.564207 0.000000 
-0.149994 -0.785766 0.000000 
-0.149998 -0.135760 0.000000 
-0.150000 0.514243 0.000000 
-0.150000 -0.835757 0.000000 
CELL_DATA 100 
SCALARS MASS float 
LOOKUP_TABLE default 
10.000000 
10.000000 
10.000000 
10.000000 
10.000000 
10.000000 
10.000000 
10.000000 
10.000000 
10.000000 
10.000000 
10.000000 
10.000000 
10.000000 
10.000000 
10.000000 
10.000000 
10.000000 
10.000000 
10.000000 
10.000000 
10.000000 
10.000000 
10.000000 
10.000000 
10.000000 
10.000000 
10.000000 
10.000000 
10.000000 
10.000000 
10.000000 
10.000000 
10.000000 
10.000000 
10.000000 
10.000000 
10.000000 
10.000000 
10.000000 
10.000000 
10.000000 
10.000000 
10.000000 
10.000000 
10.000000 
10.000000 
10.000000 
10.000000 
10.000000 
10.000000 
10.000000 
10.000000 
10.000000 
10.000000 
10.000000 
10.000000 
10.000000 
10.000000 
10.000000 
10.000000 
10.000000 
10.000000 
10.000000 
10.000000 
10.000000 
10.000000 
10.000000 
10.000000 
10.000000 
10.000000 
10.000000 
10.000000 
10.000000 
10.000000 
10.000000 
10.000000 
10.000000 
10.000000 
10.000000 
10.000000 
10.000000 
10.000000 
10.000000 
10.000000 
10.000000 
10.000000 
10.000000 
10.000000 
10.000000 
10.000000 
10.000000 
10.000000 
10.000000 
10.000000 
10.000000 
10.000000 
10.000000 
10.000000 
10.000000 
SCALARS MASS float 
LOOKUP_TABLE default 
10.000000 
10.000000 
10.000000 
10.000000 
10.000000 
10.000000 
10.000000 
10.000000 
10.000000 
10.000000 
10.000000 
10.000000 
10.000000 
10.000000 
10.000000 
10.000000 
10.000000 
10.000000 
10.000000 
10.000000 
10.000000 
10.000000 
10.000000 
10.000000 
10.000000 
10.000000 
10.000000 
10.000000 
10.000000 
10.000000 
10.000000 
10.000000 
10.000000 
10.000000 
10.000000 
10.000000 
10.000000 
10.000000 
10.000000 
10.000000 
10.000000 
10.000000 
10.000000 
10.000000 
10.000000 
10.000000 
10.000000 
10.000000 
10.000000 
10.000000 
10.000000 
10.000000 
10.000000 
10.000000 
10.000000 
10.000000 
10.000000 
10.000000 
10.000000 
10.000000 
10.000000 
10.000000 
10.000000 
10.000000 
10.000000 
10.000000 
10.000000 
10.000000 
10.000000 
10.000000 
10.000000 
10.000000 
10.000000 
10.000000 
10.000000 
10.000000 
10.000000 
10.000000 
10.000000 
10.000000 
10.000000 
10.000000 
10.000000 
10.000000 
10.000000 
10.000000 
10.000000 
10.000000 
10.000000 
10.000000 
10.000000 
10.000000 
10.000000 
10.000000 
10.000000 
10.000000 
10.000000 
10.000000 
10.000000 
10.000000 
SCALARS DENSITY float 
LOOKUP_TABLE default 
1395.101881 
986.417322 
1002.527053 
1003.919419 
1000.001889 
1000.022450 
1000.029480 
1000.000125 
1000.000054 
1000.000070 
1389.991334 
984.822122 
1002.103966 
1003.865324 
999.996606 
1000.019660 
1000.028724 
1000.000110 
1000.000049 
1000.000069 
1390.068300 
984.763410 
1002.111547 
1003.872911 
1000.000091 
1000.020272 
1000.029336 
1000.000114 
1000.000050 
1000.000070 
1423.879769 
995.369006 
1004.908533 
1004.166065 
1000.028396 
1000.034775 
1000.032384 
1000.000227 
1000.000084 
1000.000077 
1402.993043 
988.739293 
1003.205584 
1004.007954 
1000.027292 
1000.028985 
1000.033128 
1000.000170 
1000.000067 
1000.000080 
1402.993043 
988.739293 
1003.205584 
1004.007954 
1000.027292 
1000.028985 
1000.033128 
1000.000170 
1000.000067 
1000.000080 
1423.879769 
995.369006 
1004.908533 
1004.166065 
1000.028396 
1000.034775 
1000.032384 
1000.000227 
1000.000084 
1000.000077 
1390.068300 
984.763410 
1002.111547 
1003.872911 
1000.000091 
1000.020272 
1000.029336 
1000.000114 
1000.000050 
1000.000070 
1389.991334 
984.822122 
1002.103966 
1003.865324 
999.996606 
1000.019660 
1000.028724 
1000.000110 
1000.000049 
1000.000069 
1395.101881 
986.417322 
1002.527053 
1003.919419 
1000.001889 
1000.022450 
1000.029480 
1000.000125 
1000.000054 
1000.000070 
SCALARS ELEM_i float 
LOOKUP_TABLE default 
81 
82 
83 
83 
84 
85 
85 
86 
87 
87 
108 
109 
110 
110 
111 
112 
112 
113 
114 
114 
108 
109 
110 
110 
111 
112 
112 
113 
114 
114 
135 
136 
137 
137 
138 
139 
139 
140 
141 
141 
162 
163 
164 
164 
165 
166 
166 
167 
168 
168 
162 
163 
164 
164 
165 
166 
166 
167 
168 
168 
189 
190 
191 
191 
192 
193 
193 
194 
195 
195 
216 
217 
218 
218 
219 
220 
220 
221 
222 
222 
216 
217 
218 
218 
219 
220 
220 
221 
222 
222 
243 
244 
245 
245 
246 
247 
247 
248 
249 
249 
VECTORS VELOCITY float 
3.452434 -8.152936 0.000000 
1.292268 -5.504755 0.000000 
-0.053981 -7.052689 0.000000 
0.047088 -6.840170 0.000000 
0.024554 -6.861554 0.000000 
0.000266 -6.894715 0.000000 
0.000438 -6.893920 0.000000 
0.000181 -6.894219 0.000000 
0.000002 -6.894467 0.000000 
0.000001 -6.894466 0.000000 
0.961475 -8.182808 0.000000 
0.365863 -5.531431 0.000000 
-0.007422 -7.073431 0.000000 
0.017483 -6.849280 0.000000 
0.008481 -6.864725 0.000000 
0.000106 -6.894781 0.000000 
0.000150 -6.893967 0.000000 
0.000061 -6.894237 0.000000 
0.000001 -6.894467 0.000000 
0.000000 -6.894466 0.000000 
-1.060823 -8.205458 0.000000 
-0.354061 -5.520389 0.000000 
0.070242 -7.061474 0.000000 
-0.000401 -6.843555 0.000000 
-0.003682 -6.862698 0.000000 
0.000103 -6.894773 0.000000 
-0.000059 -6.893941 0.000000 
-0.000030 -6.894226 0.000000 
0.000000 -6.894467 0.000000 
-0.000000 -6.894466 0.000000 
0.153818 -8.232868 0.000000 
0.073174 -5.507219 0.000000 
0.015984 -7.046404 0.000000 
0.006003 -6.836197 0.000000 
0.002067 -6.860033 0.000000 
0.000162 -6.894701 0.000000 
0.000069 -6.893879 0.000000 
0.000024 -6.894202 0.000000 
0.000000 -6.894467 0.000000 
0.000000 -6.894466 0.000000 
1.045099 -8.253899 0.000000 
0.380555 -5.497194 0.000000 
-0.030307 -7.034849 0.000000 
0.009693 -6.830535 0.000000 
0.006100 -6.857973 0.000000 
0.000140 -6.894638 0.000000 
0.000144 -6.893828 0.000000 
0.000057 -6.894182 0.000000 
0.000000 -6.894467 0.000000 
0.000000 -6.894466 0.000000 
-1.045099 -8.253899 0.000000 
-0.380555 -5.497194 0.000000 
0.030307 -7.034849 0.000000 
-0.009693 -6.830535 0.000000 
-0.006100 -6.857973 0.000000 
-0.000140 -6.894638 0.000000 
-0.000144 -6.893828 0.000000 
-0.000057 -6.894182 0.000000 
-0.000000 -6.894467 0.000000 
-0.000000 -6.894466 0.000000 
-0.153818 -8.232868 0.000000 
-0.073174 -5.507219 0.000000 
-0.015984 -7.046404 0.000000 
-0.006003 -6.836197 0.000000 
-0.002067 -6.860033 0.000000 
-0.000162 -6.894701 0.000000 
-0.000069 -6.893879 0.000000 
-0.000024 -6.894202 0.000000 
-0.000000 -6.894467 0.000000 
-0.000000 -6.894466 0.000000 
1.060823 -8.205458 0.000000 
0.354061 -5.520389 0.000000 
-0.070242 -7.061474 0.000000 
0.000401 -6.843555 0.000000 
0.003682 -6.862698 0.000000 
-0.000103 -6.894773 0.000000 
0.000059 -6.893941 0.000000 
0.000030 -6.894226 0.000000 
-0.000000 -6.894467 0.000000 
0.000000 -6.894466 0.000000 
-0.961475 -8.182808 0.000000 
-0.365863 -5.531431 0.000000 
0.007422 -7.073431 0.000000 
-0.017483 -6.849280 0.000000 
-0.008481 -6.864725 0.000000 
-0.000106 -6.894781 0.000000 
-0.000150 -6.893967 0.000000 
-0.000061 -6.894237 0.000000 
-0.000001 -6.894467 0.000000 
-0.000000 -6.894466 0.000000 
-3.452434 -8.152936 0.000000 
-1.292268 -5.504755 0.000000 
0.053981 -7.052689 0.000000 
-0.047088 -6.840170 0.000000 
-0.024554 -6.861554 0.000000 
-0.000266 -6.894715 0.000000 
-0.000438 -6.893920 0.000000 
-0.000181 -6.894219 0.000000 
-0.000002 -6.894467 0.000000 
-0.000001 -6.894466 0.000000 
TENSORS STRESS float 
-2738.955178 -14.052775 0.000000 
0.000000 -3429.902771 0.000000 
0.000000 0.000000 0.000000 

304.478584 -62.299577 0.000000 
0.000000 311.809655 0.000000 
0.000000 0.000000 0.000000 

-42.148973 -13.190266 0.000000 
0.000000 -66.885178 0.000000 
0.000000 0.000000 0.000000 

-75.273231 -13.336808 0.000000 
0.000000 -93.941747 0.000000 
0.000000 0.000000 0.000000 

0.063062 -0.189170 0.000000 
0.000000 -0.144483 0.000000 
0.000000 0.000000 0.000000 

-0.543252 -0.097636 0.000000 
0.000000 -0.765795 0.000000 
0.000000 0.000000 0.000000 

-0.768253 -0.104373 0.000000 
0.000000 -0.949884 0.000000 
0.000000 0.000000 0.000000 

-0.003492 -0.000998 0.000000 
0.000000 -0.005156 0.000000 
0.000000 0.000000 0.000000 

-0.001553 -0.000264 0.000000 
0.000000 -0.002160 0.000000 
0.000000 0.000000 0.000000 

-0.002158 -0.000278 0.000000 
0.000000 -0.002655 0.000000 
0.000000 0.000000 0.000000 

-2692.517187 -6.824091 0.000000 
0.000000 -3396.314623 0.000000 
0.000000 0.000000 0.000000 

344.963585 -31.313257 0.000000 
0.000000 344.867048 0.000000 
0.000000 0.000000 0.000000 

-32.345013 -6.963491 0.000000 
0.000000 -58.704251 0.000000 
0.000000 0.000000 0.000000 

-73.872594 -6.907724 0.000000 
0.000000 -92.624819 0.000000 
0.000000 0.000000 0.000000 

0.210023 -0.185138 0.000000 
0.000000 0.011755 0.000000 
0.000000 0.000000 0.000000 

-0.456964 -0.064253 0.000000 
0.000000 -0.689473 0.000000 
0.000000 0.000000 0.000000 

-0.746859 -0.060618 0.000000 
0.000000 -0.926657 0.000000 
0.000000 0.000000 0.000000 

-0.002941 -0.000673 0.000000 
0.000000 -0.004644 0.000000 
0.000000 0.000000 0.000000 

-0.001363 -0.000170 0.000000 
0.000000 -0.001994 0.000000 
0.000000 0.000000 0.000000 

-0.002121 -0.000160 0.000000 
0.000000 -0.002614 0.000000 
0.000000 0.000000 0.000000 

-2693.279627 1.412659 0.000000 
0.000000 -3397.241471 0.000000 
0.000000 0.000000 0.000000 

346.564480 4.998002 0.000000 
0.000000 346.820694 0.000000 
0.000000 0.000000 0.000000 

-32.533853 0.615208 0.000000 
0.000000 -58.934588 0.000000 
0.000000 0.000000 0.000000 

-74.060316 0.656418 0.000000 
0.000000 -92.854092 0.000000 
0.000000 0.000000 0.000000 

0.117121 -0.134629 0.000000 
0.000000 -0.101790 0.000000 
0.000000 0.000000 0.000000 

-0.473318 -0.011543 0.000000 
0.000000 -0.709462 0.000000 
0.000000 0.000000 0.000000 

-0.763213 -0.007909 0.000000 
0.000000 -0.946645 0.000000 
0.000000 0.000000 0.000000 

-0.003081 -0.000220 0.000000 
0.000000 -0.004814 0.000000 
0.000000 0.000000 0.000000 

-0.001406 -0.000032 0.000000 
0.000000 -0.002048 0.000000 
0.000000 0.000000 0.000000 

-0.002164 -0.000022 0.000000 
0.000000 -0.002668 0.000000 
0.000000 0.000000 0.000000 

-2994.597757 -0.041091 0.000000 
0.000000 -3615.674757 0.000000 
0.000000 0.000000 0.000000 

76.426502 -1.005304 0.000000 
0.000000 125.767887 0.000000 
0.000000 0.000000 0.000000 

-99.179763 -0.619471 0.000000 
0.000000 -113.531047 0.000000 
0.000000 0.000000 0.000000 

-81.984424 -0.522374 0.000000 
0.000000 -99.486085 0.000000 
0.000000 0.000000 0.000000 

-0.723894 -0.132229 0.000000 
0.000000 -0.902112 0.000000 
0.000000 0.000000 0.000000 

-0.930143 -0.022259 0.000000 
0.000000 -1.102379 0.000000 
0.000000 0.000000 0.000000 

-0.854066 -0.010080 0.000000 
0.000000 -1.040135 0.000000 
0.000000 0.000000 0.000000 

-0.007193 -0.000378 0.000000 
0.000000 -0.008454 0.000000 
0.000000 0.000000 0.000000 

-0.002647 -0.000075 0.000000 
0.000000 -0.003124 0.000000 
0.000000 0.000000 0.000000 

-0.002391 -0.000036 0.000000 
0.000000 -0.002914 0.000000 
0.000000 0.000000 0.000000 

-2811.121120 -1.832273 0.000000 
0.000000 -3483.073165 0.000000 
0.000000 0.000000 0.000000 

244.780470 -8.129277 0.000000 
0.000000 264.413069 0.000000 
0.000000 0.000000 0.000000 

-58.557318 -1.744104 0.000000 
0.000000 -80.479402 0.000000 
0.000000 0.000000 0.000000 

-77.670968 -1.742684 0.000000 
0.000000 -96.091815 0.000000 
0.000000 0.000000 0.000000 

-0.641715 -0.023323 0.000000 
0.000000 -0.929883 0.000000 
0.000000 0.000000 0.000000 

-0.734175 -0.012103 0.000000 
0.000000 -0.958225 0.000000 
0.000000 0.000000 0.000000 

-0.867305 -0.012103 0.000000 
0.000000 -1.067149 0.000000 
0.000000 0.000000 0.000000 

-0.004907 -0.000205 0.000000 
0.000000 -0.006823 0.000000 
0.000000 0.000000 0.000000 

-0.001989 -0.000043 0.000000 
0.000000 -0.002638 0.000000 
0.000000 0.000000 0.000000 

-0.002467 -0.000043 0.000000 
0.000000 -0.003029 0.000000 
0.000000 0.000000 0.000000 

-2811.121120 1.832273 0.000000 
0.000000 -3483.073165 0.000000 
0.000000 0.000000 0.000000 

244.780470 8.129277 0.000000 
0.000000 264.413069 0.000000 
0.000000 0.000000 0.000000 

-58.557318 1.744104 0.000000 
0.000000 -80.479402 0.000000 
0.000000 0.000000 0.000000 

-77.670968 1.742684 0.000000 
0.000000 -96.091815 0.000000 
0.000000 0.000000 0.000000 

-0.641715 0.023323 0.000000 
0.000000 -0.929883 0.000000 
0.000000 0.000000 0.000000 

-0.734175 0.012103 0.000000 
0.000000 -0.958225 0.000000 
0.000000 0.000000 0.000000 

-0.867305 0.012103 0.000000 
0.000000 -1.067149 0.000000 
0.000000 0.000000 0.000000 

-0.004907 0.000205 0.000000 
0.000000 -0.006823 0.000000 
0.000000 0.000000 0.000000 

-0.001989 0.000043 0.000000 
0.000000 -0.002638 0.000000 
0.000000 0.000000 0.000000 

-0.002467 0.000043 0.000000 
0.000000 -0.003029 0.000000 
0.000000 0.000000 0.000000 

-2994.597757 0.041091 0.000000 
0.000000 -3615.674757 0.000000 
0.000000 0.000000 0.000000 

76.426502 1.005304 0.000000 
0.000000 125.767887 0.000000 
0.000000 0.000000 0.000000 

-99.179763 0.619471 0.000000 
0.000000 -113.531047 0.000000 
0.000000 0.000000 0.000000 

-81.984424 0.522374 0.000000 
0.000000 -99.486085 0.000000 
0.000000 0.000000 0.000000 

-0.723894 0.132229 0.000000 
0.000000 -0.902112 0.000000 
0.000000 0.000000 0.000000 

-0.930143 0.022259 0.000000 
0.000000 -1.102379 0.000000 
0.000000 0.000000 0.000000 

-0.854066 0.010080 0.000000 
0.000000 -1.040135 0.000000 
0.000000 0.000000 0.000000 

-0.007193 0.000378 0.000000 
0.000000 -0.008454 0.000000 
0.000000 0.000000 0.000000 

-0.002647 0.000075 0.000000 
0.000000 -0.003124 0.000000 
0.000000 0.000000 0.000000 

-0.002391 0.000036 0.000000 
0.000000 -0.002914 0.000000 
0.000000 0.000000 0.000000 

-2693.279627 -1.412659 0.000000 
0.000000 -3397.241471 0.000000 
0.000000 0.000000 0.000000 

346.564480 -4.998002 0.000000 
0.000000 346.820694 0.000000 
0.000000 0.000000 0.000000 

-32.533853 -0.615208 0.000000 
0.000000 -58.934588 0.000000 
0.000000 0.000000 0.000000 

-74.060316 -0.656418 0.000000 
0.000000 -92.854092 0.000000 
0.000000 0.000000 0.000000 

0.117121 0.134629 0.000000 
0.000000 -0.101790 0.000000 
0.000000 0.000000 0.000000 

-0.473318 0.011543 0.000000 
0.000000 -0.709462 0.000000 
0.000000 0.000000 0.000000 

-0.763213 0.007909 0.000000 
0.000000 -0.946645 0.000000 
0.000000 0.000000 0.000000 

-0.003081 0.000220 0.000000 
0.000000 -0.004814 0.000000 
0.000000 0.000000 0.000000 

-0.001406 0.000032 0.000000 
0.000000 -0.002048 0.000000 
0.000000 0.000000 0.000000 

-0.002164 0.000022 0.000000 
0.000000 -0.002668 0.000000 
0.000000 0.000000 0.000000 

-2692.517187 6.824091 0.000000 
0.000000 -3396.314623 0.000000 
0.000000 0.000000 0.000000 

344.963585 31.313257 0.000000 
0.000000 344.867048 0.000000 
0.000000 0.000000 0.000000 

-32.345013 6.963491 0.000000 
0.000000 -58.704251 0.000000 
0.000000 0.000000 0.000000 

-73.872594 6.907724 0.000000 
0.000000 -92.624819 0.000000 
0.000000 0.000000 0.000000 

0.210023 0.185138 0.000000 
0.000000 0.011755 0.000000 
0.000000 0.000000 0.000000 

-0.456964 0.064253 0.000000 
0.000000 -0.689473 0.000000 
0.000000 0.000000 0.000000 

-0.746859 0.060618 0.000000 
0.000000 -0.926657 0.000000 
0.000000 0.000000 0.000000 

-0.002941 0.000673 0.000000 
0.000000 -0.004644 0.000000 
0.000000 0.000000 0.000000 

-0.001363 0.000170 0.000000 
0.000000 -0.001994 0.000000 
0.000000 0.000000 0.000000 

-0.002121 0.000160 0.000000 
0.000000 -0.002614 0.000000 
0.000000 0.000000 0.000000 

-2738.955178 14.052775 0.000000 
0.000000 -3429.902771 0.000000 
0.000000 0.000000 0.000000 

304.478584 62.299577 0.000000 
0.000000 311.809655 0.000000 
0.000000 0.000000 0.000000 

-42.148973 13.190266 0.000000 
0.000000 -66.885178 0.000000 
0.000000 0.000000 0.000000 

-75.273231 13.336808 0.000000 
0.000000 -93.941747 0.000000 
0.000000 0.000000 0.000000 

0.063062 0.189170 0.000000 
0.000000 -0.144483 0.000000 
0.000000 0.000000 0.000000 

-0.543252 0.097636 0.000000 
0.000000 -0.765795 0.000000 
0.000000 0.000000 0.000000 

-0.768253 0.104373 0.000000 
0.000000 -0.949884 0.000000 
0.000000 0.000000 0.000000 

-0.003492 0.000998 0.000000 
0.000000 -0.005156 0.000000 
0.000000 0.000000 0.000000 

-0.001553 0.000264 0.000000 
0.000000 -0.002160 0.000000 
0.000000 0.000000 0.000000 

-0.002158 0.000278 0.000000 
0.000000 -0.002655 0.000000 
0.000000 0.000000 0.000000 

TENSORS STRAIN float 
0.007491 -0.002843 0.000000 
0.000000 -0.132281 0.000000 
0.000000 0.000000 0.000000 

0.003883 -0.008911 0.000000 
0.000000 0.004932 0.000000 
0.000000 0.000000 0.000000 

0.001005 -0.001917 0.000000 
0.000000 -0.002590 0.000000 
0.000000 0.000000 0.000000 

0.000127 -0.001941 0.000000 
0.000000 -0.002590 0.000000 
0.000000 0.000000 0.000000 

0.000014 -0.000027 0.000000 
0.000000 -0.000016 0.000000 
0.000000 0.000000 0.000000 

0.000007 -0.000014 0.000000 
0.000000 -0.000026 0.000000 
0.000000 0.000000 0.000000 

0.000001 -0.000015 0.000000 
0.000000 -0.000026 0.000000 
0.000000 0.000000 0.000000 

0.000000 -0.000000 0.000000 
0.000000 -0.000000 0.000000 
0.000000 0.000000 0.000000 

0.000000 -0.000000 0.000000 
0.000000 -0.000000 0.000000 
0.000000 0.000000 0.000000 

0.000000 -0.000000 0.000000 
0.000000 -0.000000 0.000000 
0.000000 0.000000 0.000000 

0.009565 -0.001375 0.000000 
0.000000 -0.132285 0.000000 
0.000000 0.000000 0.000000 

0.004932 -0.004472 0.000000 
0.000000 0.004918 0.000000 
0.000000 0.000000 0.000000 

0.001254 -0.001012 0.000000 
0.000000 -0.002577 0.000000 
0.000000 0.000000 0.000000 

0.000153 -0.001005 0.000000 
0.000000 -0.002577 0.000000 
0.000000 0.000000 0.000000 

0.000016 -0.000027 0.000000 
0.000000 -0.000013 0.000000 
0.000000 0.000000 0.000000 

0.000009 -0.000009 0.000000 
0.000000 -0.000025 0.000000 
0.000000 0.000000 0.000000 

0.000001 -0.000009 0.000000 
0.000000 -0.000025 0.000000 
0.000000 0.000000 0.000000 

0.000000 -0.000000 0.000000 
0.000000 -0.000000 0.000000 
0.000000 0.000000 0.000000 

0.000000 -0.000000 0.000000 
0.000000 -0.000000 0.000000 
0.000000 0.000000 0.000000 

0.000000 -0.000000 0.000000 
0.000000 -0.000000 0.000000 
0.000000 0.000000 0.000000 

0.009565 0.000285 0.000000 
0.000000 -0.132325 0.000000 
0.000000 0.000000 0.000000 

0.004932 0.000714 0.000000 
0.000000 0.004969 0.000000 
0.000000 0.000000 0.000000 

0.001254 0.000089 0.000000 
0.000000 -0.002583 0.000000 
0.000000 0.000000 0.000000 

0.000153 0.000096 0.000000 
0.000000 -0.002583 0.000000 
0.000000 0.000000 0.000000 

0.000016 -0.000020 0.000000 
0.000000 -0.000016 0.000000 
0.000000 0.000000 0.000000 

0.000009 -0.000002 0.000000 
0.000000 -0.000026 0.000000 
0.000000 0.000000 0.000000 

0.000001 -0.000001 0.000000 
0.000000 -0.000026 0.000000 
0.000000 0.000000 0.000000 

0.000000 -0.000000 0.000000 
0.000000 -0.000000 0.000000 
0.000000 0.000000 0.000000 

0.000000 -0.000000 0.000000 
0.000000 -0.000000 0.000000 
0.000000 0.000000 0.000000 

0.000000 -0.000000 0.000000 
0.000000 -0.000000 0.000000 
0.000000 0.000000 0.000000 

-0.004124 -0.000008 0.000000 
0.000000 -0.132353 0.000000 
0.000000 0.000000 0.000000 

-0.002102 -0.000145 0.000000 
0.000000 0.005020 0.000000 
0.000000 0.000000 0.000000 

-0.000504 -0.000090 0.000000 
0.000000 -0.002595 0.000000 
0.000000 0.000000 0.000000 

-0.000047 -0.000076 0.000000 
0.000000 -0.002595 0.000000 
0.000000 0.000000 0.000000 

0.000001 -0.000019 0.000000 
0.000000 -0.000025 0.000000 
0.000000 0.000000 0.000000 

-0.000002 -0.000003 0.000000 
0.000000 -0.000027 0.000000 
0.000000 0.000000 0.000000 

-0.000000 -0.000001 0.000000 
0.000000 -0.000027 0.000000 
0.000000 0.000000 0.000000 

-0.000000 -0.000000 0.000000 
0.000000 -0.000000 0.000000 
0.000000 0.000000 0.000000 

-0.000000 -0.000000 0.000000 
0.000000 -0.000000 0.000000 
0.000000 0.000000 0.000000 

-0.000000 -0.000000 0.000000 
0.000000 -0.000000 0.000000 
0.000000 0.000000 0.000000 

0.004326 -0.000373 0.000000 
0.000000 -0.132372 0.000000 
0.000000 0.000000 0.000000 

0.002243 -0.001165 0.000000 
0.000000 0.005057 0.000000 
0.000000 0.000000 0.000000 

0.000583 -0.000254 0.000000 
0.000000 -0.002606 0.000000 
0.000000 0.000000 0.000000 

0.000076 -0.000254 0.000000 
0.000000 -0.002606 0.000000 
0.000000 0.000000 0.000000 

0.000009 -0.000003 0.000000 
0.000000 -0.000032 0.000000 
0.000000 0.000000 0.000000 

0.000004 -0.000002 0.000000 
0.000000 -0.000029 0.000000 
0.000000 0.000000 0.000000 

0.000000 -0.000002 0.000000 