# vtk DataFile Version 3.0 
vtk output 
ASCII 
DATASET UNSTRUCTURED_GRID 
POINTS 100 float 
0.450000 -2.204927 0.000000 
0.450000 -2.104927 0.000000 
0.450000 -2.004927 0.000000 
0.450000 -1.904927 0.000000 
0.450000 -1.804927 0.000000 
0.450000 -1.704927 0.000000 
0.450000 -1.604927 0.000000 
0.450000 -1.504927 0.000000 
0.450000 -1.404927 0.000000 
0.450000 -1.304927 0.000000 
0.350000 -2.204927 0.000000 
0.350000 -2.104927 0.000000 
0.350000 -2.004927 0.000000 
0.350000 -1.904927 0.000000 
0.350000 -1.804927 0.000000 
0.350000 -1.704927 0.000000 
0.350000 -1.604927 0.000000 
0.350000 -1.504927 0.000000 
0.350000 -1.404927 0.000000 
0.350000 -1.304927 0.000000 
0.250000 -2.204927 0.000000 
0.250000 -2.104927 0.000000 
0.250000 -2.004927 0.000000 
0.250000 -1.904927 0.000000 
0.250000 -1.804927 0.000000 
0.250000 -1.704927 0.000000 
0.250000 -1.604927 0.000000 
0.250000 -1.504927 0.000000 
0.250000 -1.404927 0.000000 
0.250000 -1.304927 0.000000 
0.150000 -2.204927 0.000000 
0.150000 -2.104927 0.000000 
0.150000 -2.004927 0.000000 
0.150000 -1.904927 0.000000 
0.150000 -1.804927 0.000000 
0.150000 -1.704927 0.000000 
0.150000 -1.604927 0.000000 
0.150000 -1.504927 0.000000 
0.150000 -1.404927 0.000000 
0.150000 -1.304927 0.000000 
0.050000 -2.204927 0.000000 
0.050000 -2.104927 0.000000 
0.050000 -2.004927 0.000000 
0.050000 -1.904927 0.000000 
0.050000 -1.804927 0.000000 
0.050000 -1.704927 0.000000 
0.050000 -1.604927 0.000000 
0.050000 -1.504927 0.000000 
0.050000 -1.404927 0.000000 
0.050000 -1.304927 0.000000 
-0.050000 -2.204927 0.000000 
-0.050000 -2.104927 0.000000 
-0.050000 -2.004927 0.000000 
-0.050000 -1.904927 0.000000 
-0.050000 -1.804927 0.000000 
-0.050000 -1.704927 0.000000 
-0.050000 -1.604927 0.000000 
-0.050000 -1.504927 0.000000 
-0.050000 -1.404927 0.000000 
-0.050000 -1.304927 0.000000 
-0.150000 -2.204927 0.000000 
-0.150000 -2.104927 0.000000 
-0.150000 -2.004927 0.000000 
-0.150000 -1.904927 0.000000 
-0.150000 -1.804927 0.000000 
-0.150000 -1.704927 0.000000 
-0.150000 -1.604927 0.000000 
-0.150000 -1.504927 0.000000 
-0.150000 -1.404927 0.000000 
-0.150000 -1.304927 0.000000 
-0.250000 -2.204927 0.000000 
-0.250000 -2.104927 0.000000 
-0.250000 -2.004927 0.000000 
-0.250000 -1.904927 0.000000 
-0.250000 -1.804927 0.000000 
-0.250000 -1.704927 0.000000 
-0.250000 -1.604927 0.000000 
-0.250000 -1.504927 0.000000 
-0.250000 -1.404927 0.000000 
-0.250000 -1.304927 0.000000 
-0.350000 -2.204927 0.000000 
-0.350000 -2.104927 0.000000 
-0.350000 -2.004927 0.000000 
-0.350000 -1.904927 0.000000 
-0.350000 -1.804927 0.000000 
-0.350000 -1.704927 0.000000 
-0.350000 -1.604927 0.000000 
-0.350000 -1.504927 0.000000 
-0.350000 -1.404927 0.000000 
-0.350000 -1.304927 0.000000 
-0.450000 -2.204927 0.000000 
-0.450000 -2.104927 0.000000 
-0.450000 -2.004927 0.000000 
-0.450000 -1.904927 0.000000 
-0.450000 -1.804927 0.000000 
-0.450000 -1.704927 0.000000 
-0.450000 -1.604927 0.000000 
-0.450000 -1.504927 0.000000 
-0.450000 -1.404927 0.000000 
-0.450000 -1.304927 0.000000 
CELLS 100 200 
1 0 
1 1 
1 2 
1 3 
1 4 
1 5 
1 6 
1 7 
1 8 
1 9 
1 10 
1 11 
1 12 
1 13 
1 14 
1 15 
1 16 
1 17 
1 18 
1 19 
1 20 
1 21 
1 22 
1 23 
1 24 
1 25 
1 26 
1 27 
1 28 
1 29 
1 30 
1 31 
1 32 
1 33 
1 34 
1 35 
1 36 
1 37 
1 38 
1 39 
1 40 
1 41 
1 42 
1 43 
1 44 
1 45 
1 46 
1 47 
1 48 
1 49 
1 50 
1 51 
1 52 
1 53 
1 54 
1 55 
1 56 
1 57 
1 58 
1 59 
1 60 
1 61 
1 62 
1 63 
1 64 
1 65 
1 66 
1 67 
1 68 
1 69 
1 70 
1 71 
1 72 
1 73 
1 74 
1 75 
1 76 
1 77 
1 78 
1 79 
1 80 
1 81 
1 82 
1 83 
1 84 
1 85 
1 86 
1 87 
1 88 
1 89 
1 90 
1 91 
1 92 
1 93 
1 94 
1 95 
1 96 
1 97 
1 98 
1 99 
CELL_TYPES 100 
1 
1 
1 
1 
1 
1 
1 
1 
1 
1 
1 
1 
1 
1 
1 
1 
1 
1 
1 
1 
1 
1 
1 
1 
1 
1 
1 
1 
1 
1 
1 
1 
1 
1 
1 
1 
1 
1 
1 
1 
1 
1 
1 
1 
1 
1 
1 
1 
1 
1 
1 
1 
1 
1 
1 
1 
1 
1 
1 
1 
1 
1 
1 
1 
1 
1 
1 
1 
1 
1 
1 
1 
1 
1 
1 
1 
1 
1 
1 
1 
1 
1 
1 
1 
1 
1 
1 
1 
1 
1 
1 
1 
1 
1 
1 
1 
1 
1 
1 
1 
POINT_DATA 100 
VECTORS X_GC float 
0.450000 -2.204927 0.000000 
0.450000 -2.104927 0.000000 
0.450000 -2.004927 0.000000 
0.450000 -1.904927 0.000000 
0.450000 -1.804927 0.000000 
0.450000 -1.704927 0.000000 
0.450000 -1.604927 0.000000 
0.450000 -1.504927 0.000000 
0.450000 -1.404927 0.000000 
0.450000 -1.304927 0.000000 
0.350000 -2.204927 0.000000 
0.350000 -2.104927 0.000000 
0.350000 -2.004927 0.000000 
0.350000 -1.904927 0.000000 
0.350000 -1.804927 0.000000 
0.350000 -1.704927 0.000000 
0.350000 -1.604927 0.000000 
0.350000 -1.504927 0.000000 
0.350000 -1.404927 0.000000 
0.350000 -1.304927 0.000000 
0.250000 -2.204927 0.000000 
0.250000 -2.104927 0.000000 
0.250000 -2.004927 0.000000 
0.250000 -1.904927 0.000000 
0.250000 -1.804927 0.000000 
0.250000 -1.704927 0.000000 
0.250000 -1.604927 0.000000 
0.250000 -1.504927 0.000000 
0.250000 -1.404927 0.000000 
0.250000 -1.304927 0.000000 
0.150000 -2.204927 0.000000 
0.150000 -2.104927 0.000000 
0.150000 -2.004927 0.000000 
0.150000 -1.904927 0.000000 
0.150000 -1.804927 0.000000 
0.150000 -1.704927 0.000000 
0.150000 -1.604927 0.000000 
0.150000 -1.504927 0.000000 
0.150000 -1.404927 0.000000 
0.150000 -1.304927 0.000000 
0.050000 -2.204927 0.000000 
0.050000 -2.104927 0.000000 
0.050000 -2.004927 0.000000 
0.050000 -1.904927 0.000000 
0.050000 -1.804927 0.000000 
0.050000 -1.704927 0.000000 
0.050000 -1.604927 0.000000 
0.050000 -1.504927 0.000000 
0.050000 -1.404927 0.000000 
0.050000 -1.304927 0.000000 
-0.050000 -2.204927 0.000000 
-0.050000 -2.104927 0.000000 
-0.050000 -2.004927 0.000000 
-0.050000 -1.904927 0.000000 
-0.050000 -1.804927 0.000000 
-0.050000 -1.704927 0.000000 
-0.050000 -1.604927 0.000000 
-0.050000 -1.504927 0.000000 
-0.050000 -1.404927 0.000000 
-0.050000 -1.304927 0.000000 
-0.150000 -2.204927 0.000000 
-0.150000 -2.104927 0.000000 
-0.150000 -2.004927 0.000000 
-0.150000 -1.904927 0.000000 
-0.150000 -1.804927 0.000000 
-0.150000 -1.704927 0.000000 
-0.150000 -1.604927 0.000000 
-0.150000 -1.504927 0.000000 
-0.150000 -1.404927 0.000000 
-0.150000 -1.304927 0.000000 
-0.250000 -2.204927 0.000000 
-0.250000 -2.104927 0.000000 
-0.250000 -2.004927 0.000000 
-0.250000 -1.904927 0.000000 
-0.250000 -1.804927 0.000000 
-0.250000 -1.704927 0.000000 
-0.250000 -1.604927 0.000000 
-0.250000 -1.504927 0.000000 
-0.250000 -1.404927 0.000000 
-0.250000 -1.304927 0.000000 
-0.350000 -2.204927 0.000000 
-0.350000 -2.104927 0.000000 
-0.350000 -2.004927 0.000000 
-0.350000 -1.904927 0.000000 
-0.350000 -1.804927 0.000000 
-0.350000 -1.704927 0.000000 
-0.350000 -1.604927 0.000000 
-0.350000 -1.504927 0.000000 
-0.350000 -1.404927 0.000000 
-0.350000 -1.304927 0.000000 
-0.450000 -2.204927 0.000000 
-0.450000 -2.104927 0.000000 
-0.450000 -2.004927 0.000000 
-0.450000 -1.904927 0.000000 
-0.450000 -1.804927 0.000000 
-0.450000 -1.704927 0.000000 
-0.450000 -1.604927 0.000000 
-0.450000 -1.504927 0.000000 
-0.450000 -1.404927 0.000000 
-0.450000 -1.304927 0.000000 
VECTORS X_EC float 
0.150000 0.266516 0.000000 
0.150000 0.916516 0.000000 
0.150000 -0.433484 0.000000 
0.150000 0.216516 0.000000 
0.150000 0.866516 0.000000 
0.150000 -0.483484 0.000000 
0.150000 0.166516 0.000000 
0.150000 0.816516 0.000000 
0.150000 -0.533484 0.000000 
0.150000 0.116516 0.000000 
-0.550000 0.266516 0.000000 
-0.550000 0.916516 0.000000 
-0.550000 -0.433484 0.000000 
-0.550000 0.216516 0.000000 
-0.550000 0.866516 0.000000 
-0.550000 -0.483484 0.000000 
-0.550000 0.166516 0.000000 
-0.550000 0.816516 0.000000 
-0.550000 -0.533484 0.000000 
-0.550000 0.116516 0.000000 
0.750000 0.266516 0.000000 
0.750000 0.916516 0.000000 
0.750000 -0.433484 0.000000 
0.750000 0.216516 0.000000 
0.750000 0.866516 0.000000 
0.750000 -0.483484 0.000000 
0.750000 0.166516 0.000000 
0.750000 0.816516 0.000000 
0.750000 -0.533484 0.000000 
0.750000 0.116516 0.000000 
0.050000 0.266516 0.000000 
0.050000 0.916516 0.000000 
0.050000 -0.433484 0.000000 
0.050000 0.216516 0.000000 
0.050000 0.866516 0.000000 
0.050000 -0.483484 0.000000 
0.050000 0.166516 0.000000 
0.050000 0.816516 0.000000 
0.050000 -0.533484 0.000000 
0.050000 0.116516 0.000000 
-0.650000 0.266516 0.000000 
-0.650000 0.916516 0.000000 
-0.650000 -0.433484 0.000000 
-0.650000 0.216516 0.000000 
-0.650000 0.866516 0.000000 
-0.650000 -0.483484 0.000000 
-0.650000 0.166516 0.000000 
-0.650000 0.816516 0.000000 
-0.650000 -0.533484 0.000000 
-0.650000 0.116516 0.000000 
0.650000 0.266516 0.000000 
0.650000 0.916516 0.000000 
0.650000 -0.433484 0.000000 
0.650000 0.216516 0.000000 
0.650000 0.866516 0.000000 
0.650000 -0.483484 0.000000 
0.650000 0.166516 0.000000 
0.650000 0.816516 0.000000 
0.650000 -0.533484 0.000000 
0.650000 0.116516 0.000000 
-0.050000 0.266516 0.000000 
-0.050000 0.916516 0.000000 
-0.050000 -0.433484 0.000000 
-0.050000 0.216516 0.000000 
-0.050000 0.866516 0.000000 
-0.050000 -0.483484 0.000000 
-0.050000 0.166516 0.000000 
-0.050000 0.816516 0.000000 
-0.050000 -0.533484 0.000000 
-0.050000 0.116516 0.000000 
-0.750000 0.266516 0.000000 
-0.750000 0.916516 0.000000 
-0.750000 -0.433484 0.000000 
-0.750000 0.216516 0.000000 
-0.750000 0.866516 0.000000 
-0.750000 -0.483484 0.000000 
-0.750000 0.166516 0.000000 
-0.750000 0.816516 0.000000 
-0.750000 -0.533484 0.000000 
-0.750000 0.116516 0.000000 
0.550000 0.266516 0.000000 
0.550000 0.916516 0.000000 
0.550000 -0.433484 0.000000 
0.550000 0.216516 0.000000 
0.550000 0.866516 0.000000 
0.550000 -0.483484 0.000000 
0.550000 0.166516 0.000000 
0.550000 0.816516 0.000000 
0.550000 -0.533484 0.000000 
0.550000 0.116516 0.000000 
-0.150000 0.266516 0.000000 
-0.150000 0.916516 0.000000 
-0.150000 -0.433484 0.000000 
-0.150000 0.216516 0.000000 
-0.150000 0.866516 0.000000 
-0.150000 -0.483484 0.000000 
-0.150000 0.166516 0.000000 
-0.150000 0.816516 0.000000 
-0.150000 -0.533484 0.000000 
-0.150000 0.116516 0.000000 
CELL_DATA 100 
SCALARS MASS float 
LOOKUP_TABLE default 
10.000000 
10.000000 
10.000000 
10.000000 
10.000000 
10.000000 
10.000000 
10.000000 
10.000000 
10.000000 
10.000000 
10.000000 
10.000000 
10.000000 
10.000000 
10.000000 
10.000000 
10.000000 
10.000000 
10.000000 
10.000000 
10.000000 
10.000000 
10.000000 
10.000000 
10.000000 
10.000000 
10.000000 
10.000000 
10.000000 
10.000000 
10.000000 
10.000000 
10.000000 
10.000000 
10.000000 
10.000000 
10.000000 
10.000000 
10.000000 
10.000000 
10.000000 
10.000000 
10.000000 
10.000000 
10.000000 
10.000000 
10.000000 
10.000000 
10.000000 
10.000000 
10.000000 
10.000000 
10.000000 
10.000000 
10.000000 
10.000000 
10.000000 
10.000000 
10.000000 
10.000000 
10.000000 
10.000000 
10.000000 
10.000000 
10.000000 
10.000000 
10.000000 
10.000000 
10.000000 
10.000000 
10.000000 
10.000000 
10.000000 
10.000000 
10.000000 
10.000000 
10.000000 
10.000000 
10.000000 
10.000000 
10.000000 
10.000000 
10.000000 
10.000000 
10.000000 
10.000000 
10.000000 
10.000000 
10.000000 
10.000000 
10.000000 
10.000000 
10.000000 
10.000000 
10.000000 
10.000000 
10.000000 
10.000000 
10.000000 
SCALARS MASS float 
LOOKUP_TABLE default 
10.000000 
10.000000 
10.000000 
10.000000 
10.000000 
10.000000 
10.000000 
10.000000 
10.000000 
10.000000 
10.000000 
10.000000 
10.000000 
10.000000 
10.000000 
10.000000 
10.000000 
10.000000 
10.000000 
10.000000 
10.000000 
10.000000 
10.000000 
10.000000 
10.000000 
10.000000 
10.000000 
10.000000 
10.000000 
10.000000 
10.000000 
10.000000 
10.000000 
10.000000 
10.000000 
10.000000 
10.000000 
10.000000 
10.000000 
10.000000 
10.000000 
10.000000 
10.000000 
10.000000 
10.000000 
10.000000 
10.000000 
10.000000 
10.000000 
10.000000 
10.000000 
10.000000 
10.000000 
10.000000 
10.000000 
10.000000 
10.000000 
10.000000 
10.000000 
10.000000 
10.000000 
10.000000 
10.000000 
10.000000 
10.000000 
10.000000 
10.000000 
10.000000 
10.000000 
10.000000 
10.000000 
10.000000 
10.000000 
10.000000 
10.000000 
10.000000 
10.000000 
10.000000 
10.000000 
10.000000 
10.000000 
10.000000 
10.000000 
10.000000 
10.000000 
10.000000 
10.000000 
10.000000 
10.000000 
10.000000 
10.000000 
10.000000 
10.000000 
10.000000 
10.000000 
10.000000 
10.000000 
10.000000 
10.000000 
10.000000 
SCALARS DENSITY float 
LOOKUP_TABLE default 
1000.000000 
1000.000000 
1000.000000 
1000.000000 
1000.000000 
1000.000000 
1000.000000 
1000.000000 
1000.000000 
1000.000000 
1000.000000 
1000.000000 
1000.000000 
1000.000000 
1000.000000 
1000.000000 
1000.000000 
1000.000000 
1000.000000 
1000.000000 
1000.000000 
1000.000000 
1000.000000 
1000.000000 
1000.000000 
1000.000000 
1000.000000 
1000.000000 
1000.000000 
1000.000000 
1000.000000 
1000.000000 
1000.000000 
1000.000000 
1000.000000 
1000.000000 
1000.000000 
1000.000000 
1000.000000 
1000.000000 
1000.000000 
1000.000000 
1000.000000 
1000.000000 
1000.000000 
1000.000000 
1000.000000 
1000.000000 
1000.000000 
1000.000000 
1000.000000 
1000.000000 
1000.000000 
1000.000000 
1000.000000 
1000.000000 
1000.000000 
1000.000000 
1000.000000 
1000.000000 
1000.000000 
1000.000000 
1000.000000 
1000.000000 
1000.000000 
1000.000000 
1000.000000 
1000.000000 
1000.000000 
1000.000000 
1000.000000 
1000.000000 
1000.000000 
1000.000000 
1000.000000 
1000.000000 
1000.000000 
1000.000000 
1000.000000 
1000.000000 
1000.000000 
1000.000000 
1000.000000 
1000.000000 
1000.000000 
1000.000000 
1000.000000 
1000.000000 
1000.000000 
1000.000000 
1000.000000 
1000.000000 
1000.000000 
1000.000000 
1000.000000 
1000.000000 
1000.000000 
1000.000000 
1000.000000 
1000.000000 
SCALARS ELEM_i float 
LOOKUP_TABLE default 
86 
87 
87 
88 
89 
89 
90 
91 
91 
92 
113 
114 
114 
115 
116 
116 
117 
118 
118 
119 
113 
114 
114 
115 
116 
116 
117 
118 
118 
119 
140 
141 
141 
142 
143 
143 
144 
145 
145 
146 
167 
168 
168 
169 
170 
170 
171 
172 
172 
173 
167 
168 
168 
169 
170 
170 
171 
172 
172 
173 
194 
195 
195 
196 
197 
197 
198 
199 
199 
200 
221 
222 
222 
223 
224 
224 
225 
226 
226 
227 
221 
222 
222 
223 
224 
224 
225 
226 
226 
227 
248 
249 
249 
250 
251 
251 
252 
253 
253 
254 
VECTORS VELOCITY float 
0.000000 -5.864418 0.000000 
0.000000 -5.864418 0.000000 
-0.000000 -5.864418 0.000000 
0.000000 -5.864418 0.000000 
0.000000 -5.864418 0.000000 
0.000000 -5.864418 0.000000 
-0.000000 -5.864418 0.000000 
0.000000 -5.864418 0.000000 
-0.000000 -5.864418 0.000000 
0.000000 -5.864418 0.000000 
-0.000000 -5.864418 0.000000 
0.000000 -5.864418 0.000000 
0.000000 -5.864418 0.000000 
0.000000 -5.864418 0.000000 
-0.000000 -5.864418 0.000000 
-0.000000 -5.864418 0.000000 
0.000000 -5.864418 0.000000 
0.000000 -5.864418 0.000000 
-0.000000 -5.864418 0.000000 
0.000000 -5.864418 0.000000 
-0.000000 -5.864418 0.000000 
-0.000000 -5.864418 0.000000 
0.000000 -5.864418 0.000000 
0.000000 -5.864418 0.000000 
0.000000 -5.864418 0.000000 
-0.000000 -5.864418 0.000000 
-0.000000 -5.864418 0.000000 
0.000000 -5.864418 0.000000 
0.000000 -5.864418 0.000000 
-0.000000 -5.864418 0.000000 
-0.000000 -5.864418 0.000000 
-0.000000 -5.864418 0.000000 
-0.000000 -5.864418 0.000000 
0.000000 -5.864418 0.000000 
0.000000 -5.864418 0.000000 
0.000000 -5.864418 0.000000 
0.000000 -5.864418 0.000000 
0.000000 -5.864418 0.000000 
-0.000000 -5.864418 0.000000 
0.000000 -5.864418 0.000000 
0.000000 -5.864418 0.000000 
-0.000000 -5.864418 0.000000 
-0.000000 -5.864418 0.000000 
-0.000000 -5.864418 0.000000 
-0.000000 -5.864418 0.000000 
0.000000 -5.864418 0.000000 
0.000000 -5.864418 0.000000 
0.000000 -5.864418 0.000000 
-0.000000 -5.864418 0.000000 
0.000000 -5.864418 0.000000 
-0.000000 -5.864418 0.000000 
-0.000000 -5.864418 0.000000 
0.000000 -5.864418 0.000000 
0.000000 -5.864418 0.000000 
0.000000 -5.864418 0.000000 
-0.000000 -5.864418 0.000000 
0.000000 -5.864418 0.000000 
-0.000000 -5.864418 0.000000 
0.000000 -5.864418 0.000000 
0.000000 -5.864418 0.000000 
-0.000000 -5.864418 0.000000 
-0.000000 -5.864418 0.000000 
-0.000000 -5.864418 0.000000 
0.000000 -5.864418 0.000000 
-0.000000 -5.864418 0.000000 
0.000000 -5.864418 0.000000 
0.000000 -5.864418 0.000000 
-0.000000 -5.864418 0.000000 
0.000000 -5.864418 0.000000 
0.000000 -5.864418 0.000000 
-0.000000 -5.864418 0.000000 
0.000000 -5.864418 0.000000 
-0.000000 -5.864418 0.000000 
-0.000000 -5.864418 0.000000 
-0.000000 -5.864418 0.000000 
0.000000 -5.864418 0.000000 
0.000000 -5.864418 0.000000 
-0.000000 -5.864418 0.000000 
0.000000 -5.864418 0.000000 
-0.000000 -5.864418 0.000000 
0.000000 -5.864418 0.000000 
-0.000000 -5.864418 0.000000 
0.000000 -5.864418 0.000000 
-0.000000 -5.864418 0.000000 
-0.000000 -5.864418 0.000000 
0.000000 -5.864418 0.000000 
-0.000000 -5.864418 0.000000 
-0.000000 -5.864418 0.000000 
0.000000 -5.864418 0.000000 
-0.000000 -5.864418 0.000000 
0.000000 -5.864418 0.000000 
0.000000 -5.864418 0.000000 
-0.000000 -5.864418 0.000000 
-0.000000 -5.864418 0.000000 
-0.000000 -5.864418 0.000000 
-0.000000 -5.864418 0.000000 
0.000000 -5.864418 0.000000 
0.000000 -5.864418 0.000000 
0.000000 -5.864418 0.000000 
-0.000000 -5.864418 0.000000 
TENSORS STRESS float 
-0.000000 -0.000000 0.000000 
0.000000 -0.000000 0.000000 
0.000000 0.000000 0.000000 

0.000000 0.000000 0.000000 
0.000000 0.000000 0.000000 
0.000000 0.000000 0.000000 

-0.000000 -0.000000 0.000000 
0.000000 -0.000000 0.000000 
0.000000 0.000000 0.000000 

0.000000 0.000000 0.000000 
0.000000 0.000000 0.000000 
0.000000 0.000000 0.000000 

0.000000 0.000000 0.000000 
0.000000 0.000000 0.000000 
0.000000 0.000000 0.000000 

-0.000000 -0.000000 0.000000 
0.000000 -0.000000 0.000000 
0.000000 0.000000 0.000000 

0.000000 -0.000000 0.000000 
0.000000 0.000000 0.000000 
0.000000 0.000000 0.000000 

-0.000000 0.000000 0.000000 
0.000000 -0.000000 0.000000 
0.000000 0.000000 0.000000 

-0.000000 0.000000 0.000000 
0.000000 -0.000000 0.000000 
0.000000 0.000000 0.000000 

0.000000 0.000000 0.000000 
0.000000 -0.000000 0.000000 
0.000000 0.000000 0.000000 

-0.000000 -0.000000 0.000000 
0.000000 -0.000000 0.000000 
0.000000 0.000000 0.000000 

0.000000 0.000000 0.000000 
0.000000 0.000000 0.000000 
0.000000 0.000000 0.000000 

0.000000 0.000000 0.000000 
0.000000 -0.000000 0.000000 
0.000000 0.000000 0.000000 

-0.000000 0.000000 0.000000 
0.000000 -0.000000 0.000000 
0.000000 0.000000 0.000000 

0.000000 0.000000 0.000000 
0.000000 0.000000 0.000000 
0.000000 0.000000 0.000000 

-0.000000 -0.000000 0.000000 
0.000000 -0.000000 0.000000 
0.000000 0.000000 0.000000 

-0.000000 -0.000000 0.000000 
0.000000 -0.000000 0.000000 
0.000000 0.000000 0.000000 

0.000000 -0.000000 0.000000 
0.000000 0.000000 0.000000 
0.000000 0.000000 0.000000 

-0.000000 -0.000000 0.000000 
0.000000 -0.000000 0.000000 
0.000000 0.000000 0.000000 

0.000000 0.000000 0.000000 
0.000000 0.000000 0.000000 
0.000000 0.000000 0.000000 

-0.000000 -0.000000 0.000000 
0.000000 -0.000000 0.000000 
0.000000 0.000000 0.000000 

0.000000 -0.000000 0.000000 
0.000000 0.000000 0.000000 
0.000000 0.000000 0.000000 

0.000000 0.000000 0.000000 
0.000000 0.000000 0.000000 
0.000000 0.000000 0.000000 

-0.000000 0.000000 0.000000 
0.000000 -0.000000 0.000000 
0.000000 0.000000 0.000000 

0.000000 0.000000 0.000000 
0.000000 0.000000 0.000000 
0.000000 0.000000 0.000000 

0.000000 0.000000 0.000000 
0.000000 -0.000000 0.000000 
0.000000 0.000000 0.000000 

-0.000000 -0.000000 0.000000 
0.000000 -0.000000 0.000000 
0.000000 0.000000 0.000000 

0.000000 -0.000000 0.000000 
0.000000 0.000000 0.000000 
0.000000 0.000000 0.000000 

-0.000000 -0.000000 0.000000 
0.000000 -0.000000 0.000000 
0.000000 0.000000 0.000000 

-0.000000 -0.000000 0.000000 
0.000000 -0.000000 0.000000 
0.000000 0.000000 0.000000 

-0.000000 -0.000000 0.000000 
0.000000 0.000000 0.000000 
0.000000 0.000000 0.000000 

-0.000000 -0.000000 0.000000 
0.000000 -0.000000 0.000000 
0.000000 0.000000 0.000000 

0.000000 -0.000000 0.000000 
0.000000 0.000000 0.000000 
0.000000 0.000000 0.000000 

-0.000000 -0.000000 0.000000 
0.000000 -0.000000 0.000000 
0.000000 0.000000 0.000000 

0.000000 -0.000000 0.000000 
0.000000 0.000000 0.000000 
0.000000 0.000000 0.000000 

0.000000 0.000000 0.000000 
0.000000 0.000000 0.000000 
0.000000 0.000000 0.000000 

-0.000000 0.000000 0.000000 
0.000000 -0.000000 0.000000 
0.000000 0.000000 0.000000 

0.000000 -0.000000 0.000000 
0.000000 0.000000 0.000000 
0.000000 0.000000 0.000000 

-0.000000 -0.000000 0.000000 
0.000000 -0.000000 0.000000 
0.000000 0.000000 0.000000 

0.000000 -0.000000 0.000000 
0.000000 0.000000 0.000000 
0.000000 0.000000 0.000000 

0.000000 -0.000000 0.000000 
0.000000 0.000000 0.000000 
0.000000 0.000000 0.000000 

0.000000 -0.000000 0.000000 
0.000000 0.000000 0.000000 
0.000000 0.000000 0.000000 

0.000000 -0.000000 0.000000 
0.000000 0.000000 0.000000 
0.000000 0.000000 0.000000 

-0.000000 -0.000000 0.000000 
0.000000 -0.000000 0.000000 
0.000000 0.000000 0.000000 

-0.000000 -0.000000 0.000000 
0.000000 0.000000 0.000000 
0.000000 0.000000 0.000000 

-0.000000 0.000000 0.000000 
0.000000 -0.000000 0.000000 
0.000000 0.000000 0.000000 

-0.000000 0.000000 0.000000 
0.000000 0.000000 0.000000 
0.000000 0.000000 0.000000 

0.000000 -0.000000 0.000000 
0.000000 0.000000 0.000000 
0.000000 0.000000 0.000000 

-0.000000 -0.000000 0.000000 
0.000000 -0.000000 0.000000 
0.000000 0.000000 0.000000 

0.000000 0.000000 0.000000 
0.000000 0.000000 0.000000 
0.000000 0.000000 0.000000 

0.000000 -0.000000 0.000000 
0.000000 0.000000 0.000000 
0.000000 0.000000 0.000000 

-0.000000 -0.000000 0.000000 
0.000000 0.000000 0.000000 
0.000000 0.000000 0.000000 

-0.000000 0.000000 0.000000 
0.000000 -0.000000 0.000000 
0.000000 0.000000 0.000000 

0.000000 -0.000000 0.000000 
0.000000 0.000000 0.000000 
0.000000 0.000000 0.000000 

-0.000000 -0.000000 0.000000 
0.000000 -0.000000 0.000000 
0.000000 0.000000 0.000000 

-0.000000 -0.000000 0.000000 
0.000000 -0.000000 0.000000 
0.000000 0.000000 0.000000 

0.000000 -0.000000 0.000000 
0.000000 0.000000 0.000000 
0.000000 0.000000 0.000000 

0.000000 -0.000000 0.000000 
0.000000 0.000000 0.000000 
0.000000 0.000000 0.000000 

-0.000000 0.000000 0.000000 
0.000000 -0.000000 0.000000 
0.000000 0.000000 0.000000 

-0.000000 0.000000 0.000000 
0.000000 -0.000000 0.000000 
0.000000 0.000000 0.000000 

0.000000 0.000000 0.000000 
0.000000 0.000000 0.000000 
0.000000 0.000000 0.000000 

0.000000 0.000000 0.000000 
0.000000 -0.000000 0.000000 
0.000000 0.000000 0.000000 

0.000000 0.000000 0.000000 
0.000000 0.000000 0.000000 
0.000000 0.000000 0.000000 

-0.000000 0.000000 0.000000 
0.000000 -0.000000 0.000000 
0.000000 0.000000 0.000000 

-0.000000 0.000000 0.000000 
0.000000 -0.000000 0.000000 
0.000000 0.000000 0.000000 

-0.000000 -0.000000 0.000000 
0.000000 -0.000000 0.000000 
0.000000 0.000000 0.000000 

0.000000 -0.000000 0.000000 
0.000000 0.000000 0.000000 
0.000000 0.000000 0.000000 

0.000000 0.000000 0.000000 
0.000000 0.000000 0.000000 
0.000000 0.000000 0.000000 

0.000000 -0.000000 0.000000 
0.000000 -0.000000 0.000000 
0.000000 0.000000 0.000000 

0.000000 0.000000 0.000000 
0.000000 -0.000000 0.000000 
0.000000 0.000000 0.000000 

-0.000000 -0.000000 0.000000 
0.000000 -0.000000 0.000000 
0.000000 0.000000 0.000000 

-0.000000 -0.000000 0.000000 
0.000000 -0.000000 0.000000 
0.000000 0.000000 0.000000 

0.000000 0.000000 0.000000 
0.000000 0.000000 0.000000 
0.000000 0.000000 0.000000 

-0.000000 -0.000000 0.000000 
0.000000 -0.000000 0.000000 
0.000000 0.000000 0.000000 

-0.000000 -0.000000 0.000000 
0.000000 -0.000000 0.000000 
0.000000 0.000000 0.000000 

0.000000 -0.000000 0.000000 
0.000000 -0.000000 0.000000 
0.000000 0.000000 0.000000 

-0.000000 0.000000 0.000000 
0.000000 -0.000000 0.000000 
0.000000 0.000000 0.000000 

0.000000 0.000000 0.000000 
0.000000 0.000000 0.000000 
0.000000 0.000000 0.000000 

-0.000000 -0.000000 0.000000 
0.000000 -0.000000 0.000000 
0.000000 0.000000 0.000000 

-0.000000 0.000000 0.000000 
0.000000 -0.000000 0.000000 
0.000000 0.000000 0.000000 

0.000000 -0.000000 0.000000 
0.000000 0.000000 0.000000 
0.000000 0.000000 0.000000 

0.000000 -0.000000 0.000000 
0.000000 0.000000 0.000000 
0.000000 0.000000 0.000000 

0.000000 0.000000 0.000000 
0.000000 0.000000 0.000000 
0.000000 0.000000 0.000000 

0.000000 -0.000000 0.000000 
0.000000 0.000000 0.000000 
0.000000 0.000000 0.000000 

-0.000000 -0.000000 0.000000 
0.000000 -0.000000 0.000000 
0.000000 0.000000 0.000000 

0.000000 -0.000000 0.000000 
0.000000 -0.000000 0.000000 
0.000000 0.000000 0.000000 

-0.000000 0.000000 0.000000 
0.000000 -0.000000 0.000000 
0.000000 0.000000 0.000000 

-0.000000 -0.000000 0.000000 
0.000000 -0.000000 0.000000 
0.000000 0.000000 0.000000 

-0.000000 -0.000000 0.000000 
0.000000 -0.000000 0.000000 
0.000000 0.000000 0.000000 

-0.000000 -0.000000 0.000000 
0.000000 -0.000000 0.000000 
0.000000 0.000000 0.000000 

-0.000000 0.000000 0.000000 
0.000000 -0.000000 0.000000 
0.000000 0.000000 0.000000 

0.000000 -0.000000 0.000000 
0.000000 0.000000 0.000000 
0.000000 0.000000 0.000000 

-0.000000 0.000000 0.000000 
0.000000 -0.000000 0.000000 
0.000000 0.000000 0.000000 

0.000000 -0.000000 0.000000 
0.000000 0.000000 0.000000 
0.000000 0.000000 0.000000 

0.000000 -0.000000 0.000000 
0.000000 0.000000 0.000000 
0.000000 0.000000 0.000000 

-0.000000 -0.000000 0.000000 
0.000000 -0.000000 0.000000 
0.000000 0.000000 0.000000 

-0.000000 -0.000000 0.000000 
0.000000 -0.000000 0.000000 
0.000000 0.000000 0.000000 

0.000000 -0.000000 0.000000 
0.000000 0.000000 0.000000 
0.000000 0.000000 0.000000 

-0.000000 -0.000000 0.000000 
0.000000 -0.000000 0.000000 
0.000000 0.000000 0.000000 

-0.000000 0.000000 0.000000 
0.000000 -0.000000 0.000000 
0.000000 0.000000 0.000000 

TENSORS STRAIN float 
-0.000000 -0.000000 0.000000 
0.000000 -0.000000 0.000000 
0.000000 0.000000 0.000000 

-0.000000 0.000000 0.000000 
0.000000 0.000000 0.000000 
0.000000 0.000000 0.000000 

-0.000000 -0.000000 0.000000 
0.000000 -0.000000 0.000000 
0.000000 0.000000 0.000000 

-0.000000 0.000000 0.000000 
0.000000 0.000000 0.000000 
0.000000 0.000000 0.000000 

0.000000 0.000000 0.000000 
0.000000 0.000000 0.000000 
0.000000 0.000000 0.000000 

0.000000 -0.000000 0.000000 
0.000000 -0.000000 0.000000 
0.000000 0.000000 0.000000 

0.000000 -0.000000 0.000000 
0.000000 -0.000000 0.000000 
0.000000 0.000000 0.000000 

-0.000000 0.000000 0.000000 
0.000000 0.000000 0.000000 
0.000000 0.000000 0.000000 

-0.000000 0.000000 0.000000 
0.000000 0.000000 0.000000 
0.000000 0.000000 0.000000 

0.000000 0.000000 0.000000 
0.000000 -0.000000 0.000000 
0.000000 0.000000 0.000000 

-0.000000 -0.000000 0.000000 
0.000000 -0.000000 0.000000 
0.000000 0.000000 0.000000 

0.000000 0.000000 0.000000 
0.000000 -0.000000 0.000000 
0.000000 0.000000 0.000000 

0.000000 0.000000 0.000000 
0.000000 -0.000000 0.000000 
0.000000 0.000000 0.000000 

-0.000000 0.000000 0.000000 
0.000000 -0.000000 0.000000 
0.000000 0.000000 0.000000 

-0.000000 0.000000 0.000000 
0.000000 0.000000 0.000000 
0.000000 0.000000 0.000000 

0.000000 -0.000000 0.000000 
0.000000 -0.000000 0.000000 
0.000000 0.000000 0.000000 

-0.000000 -0.000000 0.000000 
0.000000 -0.000000 0.000000 
0.000000 0.000000 0.000000 

-0.000000 -0.000000 0.000000 
0.000000 0.000000 0.000000 
0.000000 0.000000 0.000000 

-0.000000 -0.000000 0.000000 
0.000000 -0.000000 0.000000 
0.000000 0.000000 0.000000 

0.000000 0.000000 0.000000 
0.000000 0.000000 0.000000 
0.000000 0.000000 0.000000 

-0.000000 -0.000000 0.000000 
0.000000 -0.000000 0.000000 
0.000000 0.000000 0.000000 

0.000000 -0.000000 0.000000 
0.000000 0.000000 0.000000 
0.000000 0.000000 0.000000 

0.000000 0.000000 0.000000 
0.000000 -0.000000 0.000000 
0.000000 0.000000 0.000000 

-0.000000 0.000000 0.000000 
0.000000 0.000000 0.000000 
0.000000 0.000000 0.000000 

-0.000000 0.000000 0.000000 
0.000000 0.000000 0.000000 
0.000000 0.000000 0.000000 

0.000000 0.000000 0.000000 
0.000000 -0.000000 0.000000 
0.000000 0.000000 0.000000 

-0.000000 -0.000000 0.000000 
0.000000 -0.000000 0.000000 
0.000000 0.000000 0.000000 

-0.000000 -0.000000 0.000000 
0.000000 0.000000 0.000000 
0.000000 0.000000 0.000000 

-0.000000 -0.000000 0.000000 
0.000000 0.000000 0.000000 
0.000000 0.000000 0.000000 

0.000000 -0.000000 0.000000 
0.000000 -0.000000 0.000000 
0.000000 0.000000 0.000000 

-0.000000 -0.000000 0.000000 
0.000000 0.000000 0.000000 
0.000000 0.000000 0.000000 

0.000000 -0.000000 0.000000 
0.000000 -0.000000 0.000000 
0.000000 0.000000 0.000000 

0.000000 -0.000000 0.000000 
0.000000 0.000000 0.000000 
0.000000 0.000000 0.000000 

0.000000 -0.000000 0.000000 
0.000000 -0.000000 0.000000 
0.000000 0.000000 0.000000 

0.000000 -0.000000 0.000000 
0.000000 0.000000 0.000000 
0.000000 0.000000 0.000000 

-0.000000 0.000000 0.000000 
0.000000 0.000000 0.000000 
0.000000 0.000000 0.000000 

-0.000000 0.000000 0.000000 
0.000000 0.000000 0.000000 
0.000000 0.000000 0.000000 

-0.000000 -0.000000 0.000000 
0.000000 0.000000 0.000000 
0.000000 0.000000 0.000000 

0.000000 -0.000000 0.000000 
0.000000 -0.000000 0.000000 
0.000000 0.000000 0.000000 

0.000000 -0.000000 0.000000 
0.000000 -0.000000 0.000000 
0.000000 0.000000 0.000000 

-0.000000 -0.000000 0.000000 
0.000000 0.000000 0.000000 
0.000000 0.000000 0.000000 

-0.000000 -0.000000 0.000000 
0.000000 0.000000 0.000000 
0.000000 0.000000 0.000000 

-0.000000 -0.000000 0.000000 
0.000000 0.000000 0.000000 
0.000000 0.000000 0.000000 

0.000000 -0.000000 0.000000 
0.000000 -0.000000 0.000000 
0.000000 0.000000 0.000000 

-0.000000 -0.000000 0.000000 
0.000000 0.000000 0.000000 
0.000000 0.000000 0.000000 

-0.000000 0.000000 0.000000 
0.000000 0.000000 0.000000 
0.000000 0.000000 0.000000 

-0.000000 0.000000 0.000000 
0.000000 0.000000 0.000000 
0.000000 0.000000 0.000000 

0.000000 -0.000000 0.000000 
0.000000 0.000000 0.000000 
0.000000 0.000000 0.000000 

0.000000 -0.000000 0.000000 
0.000000 -0.000000 0.000000 
0.000000 0.000000 0.000000 

0.000000 0.000000 0.000000 