# vtk DataFile Version 3.0 
vtk output 
ASCII 
DATASET UNSTRUCTURED_GRID 
POINTS 100 float 
0.450000 -1.944302 0.000000 
0.450000 -1.844302 0.000000 
0.450000 -1.744302 0.000000 
0.450000 -1.644302 0.000000 
0.450000 -1.544302 0.000000 
0.450000 -1.444302 0.000000 
0.450000 -1.344302 0.000000 
0.450000 -1.244302 0.000000 
0.450000 -1.144302 0.000000 
0.450000 -1.044302 0.000000 
0.350000 -1.944302 0.000000 
0.350000 -1.844302 0.000000 
0.350000 -1.744302 0.000000 
0.350000 -1.644302 0.000000 
0.350000 -1.544302 0.000000 
0.350000 -1.444302 0.000000 
0.350000 -1.344302 0.000000 
0.350000 -1.244302 0.000000 
0.350000 -1.144302 0.000000 
0.350000 -1.044302 0.000000 
0.250000 -1.944302 0.000000 
0.250000 -1.844302 0.000000 
0.250000 -1.744302 0.000000 
0.250000 -1.644302 0.000000 
0.250000 -1.544302 0.000000 
0.250000 -1.444302 0.000000 
0.250000 -1.344302 0.000000 
0.250000 -1.244302 0.000000 
0.250000 -1.144302 0.000000 
0.250000 -1.044302 0.000000 
0.150000 -1.944302 0.000000 
0.150000 -1.844302 0.000000 
0.150000 -1.744302 0.000000 
0.150000 -1.644302 0.000000 
0.150000 -1.544302 0.000000 
0.150000 -1.444302 0.000000 
0.150000 -1.344302 0.000000 
0.150000 -1.244302 0.000000 
0.150000 -1.144302 0.000000 
0.150000 -1.044302 0.000000 
0.050000 -1.944302 0.000000 
0.050000 -1.844302 0.000000 
0.050000 -1.744302 0.000000 
0.050000 -1.644302 0.000000 
0.050000 -1.544302 0.000000 
0.050000 -1.444302 0.000000 
0.050000 -1.344302 0.000000 
0.050000 -1.244302 0.000000 
0.050000 -1.144302 0.000000 
0.050000 -1.044302 0.000000 
-0.050000 -1.944302 0.000000 
-0.050000 -1.844302 0.000000 
-0.050000 -1.744302 0.000000 
-0.050000 -1.644302 0.000000 
-0.050000 -1.544302 0.000000 
-0.050000 -1.444302 0.000000 
-0.050000 -1.344302 0.000000 
-0.050000 -1.244302 0.000000 
-0.050000 -1.144302 0.000000 
-0.050000 -1.044302 0.000000 
-0.150000 -1.944302 0.000000 
-0.150000 -1.844302 0.000000 
-0.150000 -1.744302 0.000000 
-0.150000 -1.644302 0.000000 
-0.150000 -1.544302 0.000000 
-0.150000 -1.444302 0.000000 
-0.150000 -1.344302 0.000000 
-0.150000 -1.244302 0.000000 
-0.150000 -1.144302 0.000000 
-0.150000 -1.044302 0.000000 
-0.250000 -1.944302 0.000000 
-0.250000 -1.844302 0.000000 
-0.250000 -1.744302 0.000000 
-0.250000 -1.644302 0.000000 
-0.250000 -1.544302 0.000000 
-0.250000 -1.444302 0.000000 
-0.250000 -1.344302 0.000000 
-0.250000 -1.244302 0.000000 
-0.250000 -1.144302 0.000000 
-0.250000 -1.044302 0.000000 
-0.350000 -1.944302 0.000000 
-0.350000 -1.844302 0.000000 
-0.350000 -1.744302 0.000000 
-0.350000 -1.644302 0.000000 
-0.350000 -1.544302 0.000000 
-0.350000 -1.444302 0.000000 
-0.350000 -1.344302 0.000000 
-0.350000 -1.244302 0.000000 
-0.350000 -1.144302 0.000000 
-0.350000 -1.044302 0.000000 
-0.450000 -1.944302 0.000000 
-0.450000 -1.844302 0.000000 
-0.450000 -1.744302 0.000000 
-0.450000 -1.644302 0.000000 
-0.450000 -1.544302 0.000000 
-0.450000 -1.444302 0.000000 
-0.450000 -1.344302 0.000000 
-0.450000 -1.244302 0.000000 
-0.450000 -1.144302 0.000000 
-0.450000 -1.044302 0.000000 
CELLS 100 200 
1 0 
1 1 
1 2 
1 3 
1 4 
1 5 
1 6 
1 7 
1 8 
1 9 
1 10 
1 11 
1 12 
1 13 
1 14 
1 15 
1 16 
1 17 
1 18 
1 19 
1 20 
1 21 
1 22 
1 23 
1 24 
1 25 
1 26 
1 27 
1 28 
1 29 
1 30 
1 31 
1 32 
1 33 
1 34 
1 35 
1 36 
1 37 
1 38 
1 39 
1 40 
1 41 
1 42 
1 43 
1 44 
1 45 
1 46 
1 47 
1 48 
1 49 
1 50 
1 51 
1 52 
1 53 
1 54 
1 55 
1 56 
1 57 
1 58 
1 59 
1 60 
1 61 
1 62 
1 63 
1 64 
1 65 
1 66 
1 67 
1 68 
1 69 
1 70 
1 71 
1 72 
1 73 
1 74 
1 75 
1 76 
1 77 
1 78 
1 79 
1 80 
1 81 
1 82 
1 83 
1 84 
1 85 
1 86 
1 87 
1 88 
1 89 
1 90 
1 91 
1 92 
1 93 
1 94 
1 95 
1 96 
1 97 
1 98 
1 99 
CELL_TYPES 100 
1 
1 
1 
1 
1 
1 
1 
1 
1 
1 
1 
1 
1 
1 
1 
1 
1 
1 
1 
1 
1 
1 
1 
1 
1 
1 
1 
1 
1 
1 
1 
1 
1 
1 
1 
1 
1 
1 
1 
1 
1 
1 
1 
1 
1 
1 
1 
1 
1 
1 
1 
1 
1 
1 
1 
1 
1 
1 
1 
1 
1 
1 
1 
1 
1 
1 
1 
1 
1 
1 
1 
1 
1 
1 
1 
1 
1 
1 
1 
1 
1 
1 
1 
1 
1 
1 
1 
1 
1 
1 
1 
1 
1 
1 
1 
1 
1 
1 
1 
1 
POINT_DATA 100 
VECTORS X_GC float 
0.450000 -1.944302 0.000000 
0.450000 -1.844302 0.000000 
0.450000 -1.744302 0.000000 
0.450000 -1.644302 0.000000 
0.450000 -1.544302 0.000000 
0.450000 -1.444302 0.000000 
0.450000 -1.344302 0.000000 
0.450000 -1.244302 0.000000 
0.450000 -1.144302 0.000000 
0.450000 -1.044302 0.000000 
0.350000 -1.944302 0.000000 
0.350000 -1.844302 0.000000 
0.350000 -1.744302 0.000000 
0.350000 -1.644302 0.000000 
0.350000 -1.544302 0.000000 
0.350000 -1.444302 0.000000 
0.350000 -1.344302 0.000000 
0.350000 -1.244302 0.000000 
0.350000 -1.144302 0.000000 
0.350000 -1.044302 0.000000 
0.250000 -1.944302 0.000000 
0.250000 -1.844302 0.000000 
0.250000 -1.744302 0.000000 
0.250000 -1.644302 0.000000 
0.250000 -1.544302 0.000000 
0.250000 -1.444302 0.000000 
0.250000 -1.344302 0.000000 
0.250000 -1.244302 0.000000 
0.250000 -1.144302 0.000000 
0.250000 -1.044302 0.000000 
0.150000 -1.944302 0.000000 
0.150000 -1.844302 0.000000 
0.150000 -1.744302 0.000000 
0.150000 -1.644302 0.000000 
0.150000 -1.544302 0.000000 
0.150000 -1.444302 0.000000 
0.150000 -1.344302 0.000000 
0.150000 -1.244302 0.000000 
0.150000 -1.144302 0.000000 
0.150000 -1.044302 0.000000 
0.050000 -1.944302 0.000000 
0.050000 -1.844302 0.000000 
0.050000 -1.744302 0.000000 
0.050000 -1.644302 0.000000 
0.050000 -1.544302 0.000000 
0.050000 -1.444302 0.000000 
0.050000 -1.344302 0.000000 
0.050000 -1.244302 0.000000 
0.050000 -1.144302 0.000000 
0.050000 -1.044302 0.000000 
-0.050000 -1.944302 0.000000 
-0.050000 -1.844302 0.000000 
-0.050000 -1.744302 0.000000 
-0.050000 -1.644302 0.000000 
-0.050000 -1.544302 0.000000 
-0.050000 -1.444302 0.000000 
-0.050000 -1.344302 0.000000 
-0.050000 -1.244302 0.000000 
-0.050000 -1.144302 0.000000 
-0.050000 -1.044302 0.000000 
-0.150000 -1.944302 0.000000 
-0.150000 -1.844302 0.000000 
-0.150000 -1.744302 0.000000 
-0.150000 -1.644302 0.000000 
-0.150000 -1.544302 0.000000 
-0.150000 -1.444302 0.000000 
-0.150000 -1.344302 0.000000 
-0.150000 -1.244302 0.000000 
-0.150000 -1.144302 0.000000 
-0.150000 -1.044302 0.000000 
-0.250000 -1.944302 0.000000 
-0.250000 -1.844302 0.000000 
-0.250000 -1.744302 0.000000 
-0.250000 -1.644302 0.000000 
-0.250000 -1.544302 0.000000 
-0.250000 -1.444302 0.000000 
-0.250000 -1.344302 0.000000 
-0.250000 -1.244302 0.000000 
-0.250000 -1.144302 0.000000 
-0.250000 -1.044302 0.000000 
-0.350000 -1.944302 0.000000 
-0.350000 -1.844302 0.000000 
-0.350000 -1.744302 0.000000 
-0.350000 -1.644302 0.000000 
-0.350000 -1.544302 0.000000 
-0.350000 -1.444302 0.000000 
-0.350000 -1.344302 0.000000 
-0.350000 -1.244302 0.000000 
-0.350000 -1.144302 0.000000 
-0.350000 -1.044302 0.000000 
-0.450000 -1.944302 0.000000 
-0.450000 -1.844302 0.000000 
-0.450000 -1.744302 0.000000 
-0.450000 -1.644302 0.000000 
-0.450000 -1.544302 0.000000 
-0.450000 -1.444302 0.000000 
-0.450000 -1.344302 0.000000 
-0.450000 -1.244302 0.000000 
-0.450000 -1.144302 0.000000 
-0.450000 -1.044302 0.000000 
VECTORS X_EC float 
0.150000 0.748074 0.000000 
0.150000 -0.601926 0.000000 
0.150000 0.048074 0.000000 
0.150000 0.698074 0.000000 
0.150000 -0.651926 0.000000 
0.150000 -0.001926 0.000000 
0.150000 0.648074 0.000000 
0.150000 -0.701926 0.000000 
0.150000 -0.051926 0.000000 
0.150000 0.598074 0.000000 
-0.550000 0.748074 0.000000 
-0.550000 -0.601926 0.000000 
-0.550000 0.048074 0.000000 
-0.550000 0.698074 0.000000 
-0.550000 -0.651926 0.000000 
-0.550000 -0.001926 0.000000 
-0.550000 0.648074 0.000000 
-0.550000 -0.701926 0.000000 
-0.550000 -0.051926 0.000000 
-0.550000 0.598074 0.000000 
0.750000 0.748074 0.000000 
0.750000 -0.601926 0.000000 
0.750000 0.048074 0.000000 
0.750000 0.698074 0.000000 
0.750000 -0.651926 0.000000 
0.750000 -0.001926 0.000000 
0.750000 0.648074 0.000000 
0.750000 -0.701926 0.000000 
0.750000 -0.051926 0.000000 
0.750000 0.598074 0.000000 
0.050000 0.748074 0.000000 
0.050000 -0.601926 0.000000 
0.050000 0.048074 0.000000 
0.050000 0.698074 0.000000 
0.050000 -0.651926 0.000000 
0.050000 -0.001926 0.000000 
0.050000 0.648074 0.000000 
0.050000 -0.701926 0.000000 
0.050000 -0.051926 0.000000 
0.050000 0.598074 0.000000 
-0.650000 0.748074 0.000000 
-0.650000 -0.601926 0.000000 
-0.650000 0.048074 0.000000 
-0.650000 0.698074 0.000000 
-0.650000 -0.651926 0.000000 
-0.650000 -0.001926 0.000000 
-0.650000 0.648074 0.000000 
-0.650000 -0.701926 0.000000 
-0.650000 -0.051926 0.000000 
-0.650000 0.598074 0.000000 
0.650000 0.748074 0.000000 
0.650000 -0.601926 0.000000 
0.650000 0.048074 0.000000 
0.650000 0.698074 0.000000 
0.650000 -0.651926 0.000000 
0.650000 -0.001926 0.000000 
0.650000 0.648074 0.000000 
0.650000 -0.701926 0.000000 
0.650000 -0.051926 0.000000 
0.650000 0.598074 0.000000 
-0.050000 0.748074 0.000000 
-0.050000 -0.601926 0.000000 
-0.050000 0.048074 0.000000 
-0.050000 0.698074 0.000000 
-0.050000 -0.651926 0.000000 
-0.050000 -0.001926 0.000000 
-0.050000 0.648074 0.000000 
-0.050000 -0.701926 0.000000 
-0.050000 -0.051926 0.000000 
-0.050000 0.598074 0.000000 
-0.750000 0.748074 0.000000 
-0.750000 -0.601926 0.000000 
-0.750000 0.048074 0.000000 
-0.750000 0.698074 0.000000 
-0.750000 -0.651926 0.000000 
-0.750000 -0.001926 0.000000 
-0.750000 0.648074 0.000000 
-0.750000 -0.701926 0.000000 
-0.750000 -0.051926 0.000000 
-0.750000 0.598074 0.000000 
0.550000 0.748074 0.000000 
0.550000 -0.601926 0.000000 
0.550000 0.048074 0.000000 
0.550000 0.698074 0.000000 
0.550000 -0.651926 0.000000 
0.550000 -0.001926 0.000000 
0.550000 0.648074 0.000000 
0.550000 -0.701926 0.000000 
0.550000 -0.051926 0.000000 
0.550000 0.598074 0.000000 
-0.150000 0.748074 0.000000 
-0.150000 -0.601926 0.000000 
-0.150000 0.048074 0.000000 
-0.150000 0.698074 0.000000 
-0.150000 -0.651926 0.000000 
-0.150000 -0.001926 0.000000 
-0.150000 0.648074 0.000000 
-0.150000 -0.701926 0.000000 
-0.150000 -0.051926 0.000000 
-0.150000 0.598074 0.000000 
CELL_DATA 100 
SCALARS MASS float 
LOOKUP_TABLE default 
10.000000 
10.000000 
10.000000 
10.000000 
10.000000 
10.000000 
10.000000 
10.000000 
10.000000 
10.000000 
10.000000 
10.000000 
10.000000 
10.000000 
10.000000 
10.000000 
10.000000 
10.000000 
10.000000 
10.000000 
10.000000 
10.000000 
10.000000 
10.000000 
10.000000 
10.000000 
10.000000 
10.000000 
10.000000 
10.000000 
10.000000 
10.000000 
10.000000 
10.000000 
10.000000 
10.000000 
10.000000 
10.000000 
10.000000 
10.000000 
10.000000 
10.000000 
10.000000 
10.000000 
10.000000 
10.000000 
10.000000 
10.000000 
10.000000 
10.000000 
10.000000 
10.000000 
10.000000 
10.000000 
10.000000 
10.000000 
10.000000 
10.000000 
10.000000 
10.000000 
10.000000 
10.000000 
10.000000 
10.000000 
10.000000 
10.000000 
10.000000 
10.000000 
10.000000 
10.000000 
10.000000 
10.000000 
10.000000 
10.000000 
10.000000 
10.000000 
10.000000 
10.000000 
10.000000 
10.000000 
10.000000 
10.000000 
10.000000 
10.000000 
10.000000 
10.000000 
10.000000 
10.000000 
10.000000 
10.000000 
10.000000 
10.000000 
10.000000 
10.000000 
10.000000 
10.000000 
10.000000 
10.000000 
10.000000 
10.000000 
SCALARS MASS float 
LOOKUP_TABLE default 
10.000000 
10.000000 
10.000000 
10.000000 
10.000000 
10.000000 
10.000000 
10.000000 
10.000000 
10.000000 
10.000000 
10.000000 
10.000000 
10.000000 
10.000000 
10.000000 
10.000000 
10.000000 
10.000000 
10.000000 
10.000000 
10.000000 
10.000000 
10.000000 
10.000000 
10.000000 
10.000000 
10.000000 
10.000000 
10.000000 
10.000000 
10.000000 
10.000000 
10.000000 
10.000000 
10.000000 
10.000000 
10.000000 
10.000000 
10.000000 
10.000000 
10.000000 
10.000000 
10.000000 
10.000000 
10.000000 
10.000000 
10.000000 
10.000000 
10.000000 
10.000000 
10.000000 
10.000000 
10.000000 
10.000000 
10.000000 
10.000000 
10.000000 
10.000000 
10.000000 
10.000000 
10.000000 
10.000000 
10.000000 
10.000000 
10.000000 
10.000000 
10.000000 
10.000000 
10.000000 
10.000000 
10.000000 
10.000000 
10.000000 
10.000000 
10.000000 
10.000000 
10.000000 
10.000000 
10.000000 
10.000000 
10.000000 
10.000000 
10.000000 
10.000000 
10.000000 
10.000000 
10.000000 
10.000000 
10.000000 
10.000000 
10.000000 
10.000000 
10.000000 
10.000000 
10.000000 
10.000000 
10.000000 
10.000000 
10.000000 
SCALARS DENSITY float 
LOOKUP_TABLE default 
1000.000000 
1000.000000 
1000.000000 
1000.000000 
1000.000000 
1000.000000 
1000.000000 
1000.000000 
1000.000000 
1000.000000 
1000.000000 
1000.000000 
1000.000000 
1000.000000 
1000.000000 
1000.000000 
1000.000000 
1000.000000 
1000.000000 
1000.000000 
1000.000000 
1000.000000 
1000.000000 
1000.000000 
1000.000000 
1000.000000 
1000.000000 
1000.000000 
1000.000000 
1000.000000 
1000.000000 
1000.000000 
1000.000000 
1000.000000 
1000.000000 
1000.000000 
1000.000000 
1000.000000 
1000.000000 
1000.000000 
1000.000000 
1000.000000 
1000.000000 
1000.000000 
1000.000000 
1000.000000 
1000.000000 
1000.000000 
1000.000000 
1000.000000 
1000.000000 
1000.000000 
1000.000000 
1000.000000 
1000.000000 
1000.000000 
1000.000000 
1000.000000 
1000.000000 
1000.000000 
1000.000000 
1000.000000 
1000.000000 
1000.000000 
1000.000000 
1000.000000 
1000.000000 
1000.000000 
1000.000000 
1000.000000 
1000.000000 
1000.000000 
1000.000000 
1000.000000 
1000.000000 
1000.000000 
1000.000000 
1000.000000 
1000.000000 
1000.000000 
1000.000000 
1000.000000 
1000.000000 
1000.000000 
1000.000000 
1000.000000 
1000.000000 
1000.000000 
1000.000000 
1000.000000 
1000.000000 
1000.000000 
1000.000000 
1000.000000 
1000.000000 
1000.000000 
1000.000000 
1000.000000 
1000.000000 
1000.000000 
SCALARS ELEM_i float 
LOOKUP_TABLE default 
88 
88 
89 
90 
90 
91 
92 
92 
93 
94 
115 
115 
116 
117 
117 
118 
119 
119 
120 
121 
115 
115 
116 
117 
117 
118 
119 
119 
120 
121 
142 
142 
143 
144 
144 
145 
146 
146 
147 
148 
169 
169 
170 
171 
171 
172 
173 
173 
174 
175 
169 
169 
170 
171 
171 
172 
173 
173 
174 
175 
196 
196 
197 
198 
198 
199 
200 
200 
201 
202 
223 
223 
224 
225 
225 
226 
227 
227 
228 
229 
223 
223 
224 
225 
225 
226 
227 
227 
228 
229 
250 
250 
251 
252 
252 
253 
254 
254 
255 
256 
VECTORS VELOCITY float 
0.000000 -5.411196 0.000000 
-0.000000 -5.411196 0.000000 
-0.000000 -5.411196 0.000000 
-0.000000 -5.411196 0.000000 
-0.000000 -5.411196 0.000000 
-0.000000 -5.411196 0.000000 
-0.000000 -5.411196 0.000000 
-0.000000 -5.411196 0.000000 
0.000000 -5.411196 0.000000 
-0.000000 -5.411196 0.000000 
0.000000 -5.411196 0.000000 
0.000000 -5.411196 0.000000 
0.000000 -5.411196 0.000000 
-0.000000 -5.411196 0.000000 
-0.000000 -5.411196 0.000000 
0.000000 -5.411196 0.000000 
-0.000000 -5.411196 0.000000 
0.000000 -5.411196 0.000000 
-0.000000 -5.411196 0.000000 
0.000000 -5.411196 0.000000 
-0.000000 -5.411196 0.000000 
0.000000 -5.411196 0.000000 
-0.000000 -5.411196 0.000000 
0.000000 -5.411196 0.000000 
0.000000 -5.411196 0.000000 
-0.000000 -5.411196 0.000000 
0.000000 -5.411196 0.000000 
0.000000 -5.411196 0.000000 
0.000000 -5.411196 0.000000 
0.000000 -5.411196 0.000000 
-0.000000 -5.411196 0.000000 
-0.000000 -5.411196 0.000000 
-0.000000 -5.411196 0.000000 
0.000000 -5.411196 0.000000 
0.000000 -5.411196 0.000000 
-0.000000 -5.411196 0.000000 
0.000000 -5.411196 0.000000 
-0.000000 -5.411196 0.000000 
0.000000 -5.411196 0.000000 
0.000000 -5.411196 0.000000 
0.000000 -5.411196 0.000000 
-0.000000 -5.411196 0.000000 
-0.000000 -5.411196 0.000000 
-0.000000 -5.411196 0.000000 
0.000000 -5.411196 0.000000 
0.000000 -5.411196 0.000000 
0.000000 -5.411196 0.000000 
-0.000000 -5.411196 0.000000 
0.000000 -5.411196 0.000000 
0.000000 -5.411196 0.000000 
0.000000 -5.411196 0.000000 
0.000000 -5.411196 0.000000 
0.000000 -5.411196 0.000000 
0.000000 -5.411196 0.000000 
0.000000 -5.411196 0.000000 
-0.000000 -5.411196 0.000000 
0.000000 -5.411196 0.000000 
0.000000 -5.411196 0.000000 
0.000000 -5.411196 0.000000 
0.000000 -5.411196 0.000000 
0.000000 -5.411196 0.000000 
0.000000 -5.411196 0.000000 
0.000000 -5.411196 0.000000 
-0.000000 -5.411196 0.000000 
-0.000000 -5.411196 0.000000 
-0.000000 -5.411196 0.000000 
0.000000 -5.411196 0.000000 
0.000000 -5.411196 0.000000 
-0.000000 -5.411196 0.000000 
-0.000000 -5.411196 0.000000 
0.000000 -5.411196 0.000000 
-0.000000 -5.411196 0.000000 
0.000000 -5.411196 0.000000 
-0.000000 -5.411196 0.000000 
-0.000000 -5.411196 0.000000 
0.000000 -5.411196 0.000000 
-0.000000 -5.411196 0.000000 
0.000000 -5.411196 0.000000 
-0.000000 -5.411196 0.000000 
-0.000000 -5.411196 0.000000 
0.000000 -5.411196 0.000000 
-0.000000 -5.411196 0.000000 
0.000000 -5.411196 0.000000 
0.000000 -5.411196 0.000000 
-0.000000 -5.411196 0.000000 
0.000000 -5.411196 0.000000 
-0.000000 -5.411196 0.000000 
-0.000000 -5.411196 0.000000 
0.000000 -5.411196 0.000000 
-0.000000 -5.411196 0.000000 
-0.000000 -5.411196 0.000000 
0.000000 -5.411196 0.000000 
0.000000 -5.411196 0.000000 
0.000000 -5.411196 0.000000 
-0.000000 -5.411196 0.000000 
0.000000 -5.411196 0.000000 
0.000000 -5.411196 0.000000 
-0.000000 -5.411196 0.000000 
0.000000 -5.411196 0.000000 
0.000000 -5.411196 0.000000 
TENSORS STRESS float 
-0.000000 0.000000 0.000000 
0.000000 -0.000000 0.000000 
0.000000 0.000000 0.000000 

0.000000 0.000000 0.000000 
0.000000 0.000000 0.000000 
0.000000 0.000000 0.000000 

-0.000000 -0.000000 0.000000 
0.000000 -0.000000 0.000000 
0.000000 0.000000 0.000000 

-0.000000 0.000000 0.000000 
0.000000 -0.000000 0.000000 
0.000000 0.000000 0.000000 

0.000000 -0.000000 0.000000 
0.000000 -0.000000 0.000000 
0.000000 0.000000 0.000000 

0.000000 0.000000 0.000000 
0.000000 0.000000 0.000000 
0.000000 0.000000 0.000000 

-0.000000 0.000000 0.000000 
0.000000 -0.000000 0.000000 
0.000000 0.000000 0.000000 

-0.000000 -0.000000 0.000000 
0.000000 -0.000000 0.000000 
0.000000 0.000000 0.000000 

0.000000 0.000000 0.000000 
0.000000 0.000000 0.000000 
0.000000 0.000000 0.000000 

-0.000000 0.000000 0.000000 
0.000000 -0.000000 0.000000 
0.000000 0.000000 0.000000 

-0.000000 0.000000 0.000000 
0.000000 -0.000000 0.000000 
0.000000 0.000000 0.000000 

-0.000000 0.000000 0.000000 
0.000000 -0.000000 0.000000 
0.000000 0.000000 0.000000 

-0.000000 -0.000000 0.000000 
0.000000 -0.000000 0.000000 
0.000000 0.000000 0.000000 

-0.000000 0.000000 0.000000 
0.000000 -0.000000 0.000000 
0.000000 0.000000 0.000000 

0.000000 -0.000000 0.000000 
0.000000 0.000000 0.000000 
0.000000 0.000000 0.000000 

0.000000 0.000000 0.000000 
0.000000 0.000000 0.000000 
0.000000 0.000000 0.000000 

0.000000 0.000000 0.000000 
0.000000 0.000000 0.000000 
0.000000 0.000000 0.000000 

-0.000000 0.000000 0.000000 
0.000000 -0.000000 0.000000 
0.000000 0.000000 0.000000 

0.000000 0.000000 0.000000 
0.000000 -0.000000 0.000000 
0.000000 0.000000 0.000000 

-0.000000 -0.000000 0.000000 
0.000000 0.000000 0.000000 
0.000000 0.000000 0.000000 

-0.000000 -0.000000 0.000000 
0.000000 -0.000000 0.000000 
0.000000 0.000000 0.000000 

0.000000 -0.000000 0.000000 
0.000000 -0.000000 0.000000 
0.000000 0.000000 0.000000 

-0.000000 -0.000000 0.000000 
0.000000 -0.000000 0.000000 
0.000000 0.000000 0.000000 

0.000000 0.000000 0.000000 
0.000000 0.000000 0.000000 
0.000000 0.000000 0.000000 

0.000000 -0.000000 0.000000 
0.000000 0.000000 0.000000 
0.000000 0.000000 0.000000 

-0.000000 0.000000 0.000000 
0.000000 -0.000000 0.000000 
0.000000 0.000000 0.000000 

-0.000000 0.000000 0.000000 
0.000000 -0.000000 0.000000 
0.000000 0.000000 0.000000 

0.000000 0.000000 0.000000 
0.000000 0.000000 0.000000 
0.000000 0.000000 0.000000 

0.000000 0.000000 0.000000 
0.000000 0.000000 0.000000 
0.000000 0.000000 0.000000 

-0.000000 0.000000 0.000000 
0.000000 -0.000000 0.000000 
0.000000 0.000000 0.000000 

-0.000000 0.000000 0.000000 
0.000000 -0.000000 0.000000 
0.000000 0.000000 0.000000 

-0.000000 0.000000 0.000000 
0.000000 -0.000000 0.000000 
0.000000 0.000000 0.000000 

-0.000000 -0.000000 0.000000 
0.000000 -0.000000 0.000000 
0.000000 0.000000 0.000000 

-0.000000 -0.000000 0.000000 
0.000000 -0.000000 0.000000 
0.000000 0.000000 0.000000 

0.000000 -0.000000 0.000000 
0.000000 0.000000 0.000000 
0.000000 0.000000 0.000000 

-0.000000 -0.000000 0.000000 
0.000000 -0.000000 0.000000 
0.000000 0.000000 0.000000 

-0.000000 0.000000 0.000000 
0.000000 -0.000000 0.000000 
0.000000 0.000000 0.000000 

0.000000 -0.000000 0.000000 
0.000000 0.000000 0.000000 
0.000000 0.000000 0.000000 

0.000000 -0.000000 0.000000 
0.000000 0.000000 0.000000 
0.000000 0.000000 0.000000 

-0.000000 -0.000000 0.000000 
0.000000 -0.000000 0.000000 
0.000000 0.000000 0.000000 

0.000000 -0.000000 0.000000 
0.000000 0.000000 0.000000 
0.000000 0.000000 0.000000 

0.000000 -0.000000 0.000000 
0.000000 0.000000 0.000000 
0.000000 0.000000 0.000000 

0.000000 -0.000000 0.000000 
0.000000 0.000000 0.000000 
0.000000 0.000000 0.000000 

0.000000 -0.000000 0.000000 
0.000000 0.000000 0.000000 
0.000000 0.000000 0.000000 

0.000000 0.000000 0.000000 
0.000000 0.000000 0.000000 
0.000000 0.000000 0.000000 

-0.000000 0.000000 0.000000 
0.000000 -0.000000 0.000000 
0.000000 0.000000 0.000000 

-0.000000 0.000000 0.000000 
0.000000 -0.000000 0.000000 
0.000000 0.000000 0.000000 

0.000000 0.000000 0.000000 
0.000000 0.000000 0.000000 
0.000000 0.000000 0.000000 

0.000000 0.000000 0.000000 
0.000000 0.000000 0.000000 
0.000000 0.000000 0.000000 

0.000000 0.000000 0.000000 
0.000000 0.000000 0.000000 
0.000000 0.000000 0.000000 

-0.000000 0.000000 0.000000 
0.000000 -0.000000 0.000000 
0.000000 0.000000 0.000000 

0.000000 0.000000 0.000000 
0.000000 0.000000 0.000000 
0.000000 0.000000 0.000000 

0.000000 -0.000000 0.000000 
0.000000 -0.000000 0.000000 
0.000000 0.000000 0.000000 

0.000000 -0.000000 0.000000 
0.000000 0.000000 0.000000 
0.000000 0.000000 0.000000 

0.000000 0.000000 0.000000 
0.000000 0.000000 0.000000 
0.000000 0.000000 0.000000 

0.000000 -0.000000 0.000000 
0.000000 0.000000 0.000000 
0.000000 0.000000 0.000000 

-0.000000 -0.000000 0.000000 
0.000000 -0.000000 0.000000 
0.000000 0.000000 0.000000 

0.000000 0.000000 0.000000 
0.000000 0.000000 0.000000 
0.000000 0.000000 0.000000 

0.000000 -0.000000 0.000000 
0.000000 0.000000 0.000000 
0.000000 0.000000 0.000000 

0.000000 -0.000000 0.000000 
0.000000 0.000000 0.000000 
0.000000 0.000000 0.000000 

-0.000000 -0.000000 0.000000 
0.000000 -0.000000 0.000000 
0.000000 0.000000 0.000000 

0.000000 0.000000 0.000000 
0.000000 0.000000 0.000000 
0.000000 0.000000 0.000000 

0.000000 -0.000000 0.000000 
0.000000 0.000000 0.000000 
0.000000 0.000000 0.000000 

-0.000000 0.000000 0.000000 
0.000000 -0.000000 0.000000 
0.000000 0.000000 0.000000 

-0.000000 0.000000 0.000000 
0.000000 -0.000000 0.000000 
0.000000 0.000000 0.000000 

0.000000 0.000000 0.000000 
0.000000 0.000000 0.000000 
0.000000 0.000000 0.000000 

0.000000 -0.000000 0.000000 
0.000000 0.000000 0.000000 
0.000000 0.000000 0.000000 

0.000000 -0.000000 0.000000 
0.000000 0.000000 0.000000 
0.000000 0.000000 0.000000 

-0.000000 -0.000000 0.000000 
0.000000 0.000000 0.000000 
0.000000 0.000000 0.000000 

-0.000000 0.000000 0.000000 
0.000000 -0.000000 0.000000 
0.000000 0.000000 0.000000 

0.000000 -0.000000 0.000000 
0.000000 -0.000000 0.000000 
0.000000 0.000000 0.000000 

-0.000000 0.000000 0.000000 
0.000000 -0.000000 0.000000 
0.000000 0.000000 0.000000 

0.000000 0.000000 0.000000 
0.000000 0.000000 0.000000 
0.000000 0.000000 0.000000 

0.000000 0.000000 0.000000 
0.000000 -0.000000 0.000000 
0.000000 0.000000 0.000000 

-0.000000 0.000000 0.000000 
0.000000 -0.000000 0.000000 
0.000000 0.000000 0.000000 

0.000000 -0.000000 0.000000 
0.000000 0.000000 0.000000 
0.000000 0.000000 0.000000 

0.000000 -0.000000 0.000000 
0.000000 0.000000 0.000000 
0.000000 0.000000 0.000000 

0.000000 0.000000 0.000000 
0.000000 0.000000 0.000000 
0.000000 0.000000 0.000000 

0.000000 0.000000 0.000000 
0.000000 0.000000 0.000000 
0.000000 0.000000 0.000000 

0.000000 0.000000 0.000000 
0.000000 0.000000 0.000000 
0.000000 0.000000 0.000000 

0.000000 -0.000000 0.000000 
0.000000 0.000000 0.000000 
0.000000 0.000000 0.000000 

0.000000 -0.000000 0.000000 
0.000000 0.000000 0.000000 
0.000000 0.000000 0.000000 

0.000000 -0.000000 0.000000 
0.000000 0.000000 0.000000 
0.000000 0.000000 0.000000 

0.000000 0.000000 0.000000 
0.000000 0.000000 0.000000 
0.000000 0.000000 0.000000 

0.000000 0.000000 0.000000 
0.000000 -0.000000 0.000000 
0.000000 0.000000 0.000000 

0.000000 0.000000 0.000000 
0.000000 0.000000 0.000000 
0.000000 0.000000 0.000000 

-0.000000 0.000000 0.000000 
0.000000 -0.000000 0.000000 
0.000000 0.000000 0.000000 

-0.000000 0.000000 0.000000 
0.000000 -0.000000 0.000000 
0.000000 0.000000 0.000000 

0.000000 0.000000 0.000000 
0.000000 0.000000 0.000000 
0.000000 0.000000 0.000000 

-0.000000 0.000000 0.000000 
0.000000 -0.000000 0.000000 
0.000000 0.000000 0.000000 

-0.000000 0.000000 0.000000 
0.000000 -0.000000 0.000000 
0.000000 0.000000 0.000000 

0.000000 -0.000000 0.000000 
0.000000 0.000000 0.000000 
0.000000 0.000000 0.000000 

-0.000000 0.000000 0.000000 
0.000000 -0.000000 0.000000 
0.000000 0.000000 0.000000 

0.000000 0.000000 0.000000 
0.000000 0.000000 0.000000 
0.000000 0.000000 0.000000 

-0.000000 0.000000 0.000000 
0.000000 -0.000000 0.000000 
0.000000 0.000000 0.000000 

0.000000 0.000000 0.000000 
0.000000 0.000000 0.000000 
0.000000 0.000000 0.000000 

0.000000 -0.000000 0.000000 
0.000000 0.000000 0.000000 
0.000000 0.000000 0.000000 

-0.000000 -0.000000 0.000000 
0.000000 -0.000000 0.000000 
0.000000 0.000000 0.000000 

0.000000 -0.000000 0.000000 
0.000000 0.000000 0.000000 
0.000000 0.000000 0.000000 

-0.000000 -0.000000 0.000000 
0.000000 -0.000000 0.000000 
0.000000 0.000000 0.000000 

TENSORS STRAIN float 
-0.000000 0.000000 0.000000 
0.000000 -0.000000 0.000000 
0.000000 0.000000 0.000000 

0.000000 0.000000 0.000000 
0.000000 0.000000 0.000000 
0.000000 0.000000 0.000000 

-0.000000 -0.000000 0.000000 
0.000000 -0.000000 0.000000 
0.000000 0.000000 0.000000 

-0.000000 0.000000 0.000000 
0.000000 -0.000000 0.000000 
0.000000 0.000000 0.000000 

0.000000 -0.000000 0.000000 
0.000000 -0.000000 0.000000 
0.000000 0.000000 0.000000 

-0.000000 0.000000 0.000000 
0.000000 0.000000 0.000000 
0.000000 0.000000 0.000000 

0.000000 0.000000 0.000000 
0.000000 -0.000000 0.000000 
0.000000 0.000000 0.000000 

-0.000000 -0.000000 0.000000 
0.000000 0.000000 0.000000 
0.000000 0.000000 0.000000 

-0.000000 0.000000 0.000000 
0.000000 0.000000 0.000000 
0.000000 0.000000 0.000000 

0.000000 0.000000 0.000000 
0.000000 -0.000000 0.000000 
0.000000 0.000000 0.000000 

0.000000 0.000000 0.000000 
0.000000 -0.000000 0.000000 
0.000000 0.000000 0.000000 

0.000000 0.000000 0.000000 
0.000000 -0.000000 0.000000 
0.000000 0.000000 0.000000 

0.000000 -0.000000 0.000000 
0.000000 -0.000000 0.000000 
0.000000 0.000000 0.000000 

0.000000 0.000000 0.000000 
0.000000 -0.000000 0.000000 
0.000000 0.000000 0.000000 

-0.000000 -0.000000 0.000000 
0.000000 0.000000 0.000000 
0.000000 0.000000 0.000000 

0.000000 0.000000 0.000000 
0.000000 0.000000 0.000000 
0.000000 0.000000 0.000000 

0.000000 0.000000 0.000000 
0.000000 0.000000 0.000000 
0.000000 0.000000 0.000000 

0.000000 0.000000 0.000000 
0.000000 -0.000000 0.000000 
0.000000 0.000000 0.000000 

0.000000 0.000000 0.000000 
0.000000 -0.000000 0.000000 
0.000000 0.000000 0.000000 

-0.000000 -0.000000 0.000000 
0.000000 0.000000 0.000000 
0.000000 0.000000 0.000000 

0.000000 -0.000000 0.000000 
0.000000 -0.000000 0.000000 
0.000000 0.000000 0.000000 

0.000000 -0.000000 0.000000 
0.000000 -0.000000 0.000000 
0.000000 0.000000 0.000000 

0.000000 -0.000000 0.000000 
0.000000 -0.000000 0.000000 
0.000000 0.000000 0.000000 

0.000000 0.000000 0.000000 
0.000000 0.000000 0.000000 
0.000000 0.000000 0.000000 

-0.000000 -0.000000 0.000000 
0.000000 0.000000 0.000000 
0.000000 0.000000 0.000000 

0.000000 0.000000 0.000000 
0.000000 -0.000000 0.000000 
0.000000 0.000000 0.000000 

0.000000 0.000000 0.000000 
0.000000 -0.000000 0.000000 
0.000000 0.000000 0.000000 

0.000000 0.000000 0.000000 
0.000000 -0.000000 0.000000 
0.000000 0.000000 0.000000 

0.000000 0.000000 0.000000 
0.000000 0.000000 0.000000 
0.000000 0.000000 0.000000 

-0.000000 0.000000 0.000000 
0.000000 -0.000000 0.000000 
0.000000 0.000000 0.000000 

-0.000000 0.000000 0.000000 
0.000000 0.000000 0.000000 
0.000000 0.000000 0.000000 

0.000000 0.000000 0.000000 
0.000000 -0.000000 0.000000 
0.000000 0.000000 0.000000 

0.000000 -0.000000 0.000000 
0.000000 -0.000000 0.000000 
0.000000 0.000000 0.000000 

-0.000000 -0.000000 0.000000 
0.000000 -0.000000 0.000000 
0.000000 0.000000 0.000000 

-0.000000 -0.000000 0.000000 
0.000000 0.000000 0.000000 
0.000000 0.000000 0.000000 

-0.000000 -0.000000 0.000000 
0.000000 -0.000000 0.000000 
0.000000 0.000000 0.000000 

-0.000000 0.000000 0.000000 
0.000000 -0.000000 0.000000 
0.000000 0.000000 0.000000 

0.000000 -0.000000 0.000000 
0.000000 0.000000 0.000000 
0.000000 0.000000 0.000000 

-0.000000 -0.000000 0.000000 
0.000000 0.000000 0.000000 
0.000000 0.000000 0.000000 

-0.000000 -0.000000 0.000000 
0.000000 -0.000000 0.000000 
0.000000 0.000000 0.000000 

-0.000000 -0.000000 0.000000 
0.000000 0.000000 0.000000 
0.000000 0.000000 0.000000 

-0.000000 -0.000000 0.000000 
0.000000 0.000000 0.000000 
0.000000 0.000000 0.000000 

0.000000 -0.000000 0.000000 
0.000000 0.000000 0.000000 
0.000000 0.000000 0.000000 

0.000000 -0.000000 0.000000 
0.000000 -0.000000 0.000000 
0.000000 0.000000 0.000000 

0.000000 0.000000 0.000000 
0.000000 0.000000 0.000000 
0.000000 0.000000 0.000000 

-0.000000 0.000000 0.000000 
0.000000 -0.000000 0.000000 
0.000000 0.000000 0.000000 

-0.000000 0.000000 0.000000 
0.000000 -0.000000 0.000000 
0.000000 0.000000 0.000000 

-0.000000 0.000000 0.000000 
0.000000 0.000000 0.000000 
0.000000 0.000000 0.000000 

0.000000 0.000000 0.000000 
0.000000 0.000000 0.000000 
0.000000 0.000000 0.000000 

0.000000 0.000000 0.000000 
0.000000 -0.000000 0.000000 