# vtk DataFile Version 3.0 
vtk output 
ASCII 
DATASET UNSTRUCTURED_GRID 
POINTS 100 float 
0.480067 -2.909816 0.000000 
0.464183 -2.819215 0.000000 
0.452900 -2.730361 0.000000 
0.452039 -2.628516 0.000000 
0.451162 -2.527714 0.000000 
0.450527 -2.428095 0.000000 
0.450333 -2.328176 0.000000 
0.450186 -2.228294 0.000000 
0.450072 -2.128429 0.000000 
0.450044 -2.028461 0.000000 
0.364106 -2.911789 0.000000 
0.357660 -2.821638 0.000000 
0.352989 -2.731887 0.000000 
0.351810 -2.629215 0.000000 
0.350884 -2.527902 0.000000 
0.350372 -2.428161 0.000000 
0.350214 -2.328209 0.000000 
0.350109 -2.228308 0.000000 
0.350042 -2.128433 0.000000 
0.350025 -2.028462 0.000000 
0.250407 -2.912841 0.000000 
0.253340 -2.822622 0.000000 
0.253886 -2.731457 0.000000 
0.251819 -2.629056 0.000000 
0.250653 -2.527959 0.000000 
0.250270 -2.428168 0.000000 
0.250130 -2.328202 0.000000 
0.250048 -2.228300 0.000000 
0.250017 -2.128428 0.000000 
0.250010 -2.028458 0.000000 
0.152490 -2.913272 0.000000 
0.152139 -2.822849 0.000000 
0.151541 -2.730545 0.000000 
0.150930 -2.628508 0.000000 
0.150503 -2.527724 0.000000 
0.150224 -2.428048 0.000000 
0.150115 -2.328135 0.000000 
0.150046 -2.228272 0.000000 
0.150018 -2.128416 0.000000 
0.150010 -2.028450 0.000000 
0.054427 -2.913507 0.000000 
0.051129 -2.822879 0.000000 
0.049494 -2.729784 0.000000 
0.050079 -2.628037 0.000000 
0.050265 -2.527500 0.000000 
0.050130 -2.427938 0.000000 
0.050075 -2.328075 0.000000 
0.050036 -2.228248 0.000000 
0.050014 -2.128406 0.000000 
0.050009 -2.028443 0.000000 
-0.054427 -2.913507 0.000000 
-0.051129 -2.822879 0.000000 
-0.049494 -2.729784 0.000000 
-0.050079 -2.628037 0.000000 
-0.050265 -2.527500 0.000000 
-0.050130 -2.427938 0.000000 
-0.050075 -2.328075 0.000000 
-0.050036 -2.228248 0.000000 
-0.050014 -2.128406 0.000000 
-0.050009 -2.028443 0.000000 
-0.152490 -2.913272 0.000000 
-0.152139 -2.822849 0.000000 
-0.151541 -2.730545 0.000000 
-0.150930 -2.628508 0.000000 
-0.150503 -2.527724 0.000000 
-0.150224 -2.428048 0.000000 
-0.150115 -2.328135 0.000000 
-0.150046 -2.228272 0.000000 
-0.150018 -2.128416 0.000000 
-0.150010 -2.028450 0.000000 
-0.250407 -2.912841 0.000000 
-0.253340 -2.822622 0.000000 
-0.253886 -2.731457 0.000000 
-0.251819 -2.629056 0.000000 
-0.250653 -2.527959 0.000000 
-0.250270 -2.428168 0.000000 
-0.250130 -2.328202 0.000000 
-0.250048 -2.228300 0.000000 
-0.250017 -2.128428 0.000000 
-0.250010 -2.028458 0.000000 
-0.364106 -2.911789 0.000000 
-0.357660 -2.821638 0.000000 
-0.352989 -2.731887 0.000000 
-0.351810 -2.629215 0.000000 
-0.350884 -2.527902 0.000000 
-0.350372 -2.428161 0.000000 
-0.350214 -2.328209 0.000000 
-0.350109 -2.228308 0.000000 
-0.350042 -2.128433 0.000000 
-0.350025 -2.028462 0.000000 
-0.480067 -2.909816 0.000000 
-0.464183 -2.819215 0.000000 
-0.452900 -2.730361 0.000000 
-0.452039 -2.628516 0.000000 
-0.451162 -2.527714 0.000000 
-0.450527 -2.428095 0.000000 
-0.450333 -2.328176 0.000000 
-0.450186 -2.228294 0.000000 
-0.450072 -2.128429 0.000000 
-0.450044 -2.028461 0.000000 
CELLS 100 200 
1 0 
1 1 
1 2 
1 3 
1 4 
1 5 
1 6 
1 7 
1 8 
1 9 
1 10 
1 11 
1 12 
1 13 
1 14 
1 15 
1 16 
1 17 
1 18 
1 19 
1 20 
1 21 
1 22 
1 23 
1 24 
1 25 
1 26 
1 27 
1 28 
1 29 
1 30 
1 31 
1 32 
1 33 
1 34 
1 35 
1 36 
1 37 
1 38 
1 39 
1 40 
1 41 
1 42 
1 43 
1 44 
1 45 
1 46 
1 47 
1 48 
1 49 
1 50 
1 51 
1 52 
1 53 
1 54 
1 55 
1 56 
1 57 
1 58 
1 59 
1 60 
1 61 
1 62 
1 63 
1 64 
1 65 
1 66 
1 67 
1 68 
1 69 
1 70 
1 71 
1 72 
1 73 
1 74 
1 75 
1 76 
1 77 
1 78 
1 79 
1 80 
1 81 
1 82 
1 83 
1 84 
1 85 
1 86 
1 87 
1 88 
1 89 
1 90 
1 91 
1 92 
1 93 
1 94 
1 95 
1 96 
1 97 
1 98 
1 99 
CELL_TYPES 100 
1 
1 
1 
1 
1 
1 
1 
1 
1 
1 
1 
1 
1 
1 
1 
1 
1 
1 
1 
1 
1 
1 
1 
1 
1 
1 
1 
1 
1 
1 
1 
1 
1 
1 
1 
1 
1 
1 
1 
1 
1 
1 
1 
1 
1 
1 
1 
1 
1 
1 
1 
1 
1 
1 
1 
1 
1 
1 
1 
1 
1 
1 
1 
1 
1 
1 
1 
1 
1 
1 
1 
1 
1 
1 
1 
1 
1 
1 
1 
1 
1 
1 
1 
1 
1 
1 
1 
1 
1 
1 
1 
1 
1 
1 
1 
1 
1 
1 
1 
1 
POINT_DATA 100 
VECTORS X_GC float 
0.480067 -2.909816 0.000000 
0.464183 -2.819215 0.000000 
0.452900 -2.730361 0.000000 
0.452039 -2.628516 0.000000 
0.451162 -2.527714 0.000000 
0.450527 -2.428095 0.000000 
0.450333 -2.328176 0.000000 
0.450186 -2.228294 0.000000 
0.450072 -2.128429 0.000000 
0.450044 -2.028461 0.000000 
0.364106 -2.911789 0.000000 
0.357660 -2.821638 0.000000 
0.352989 -2.731887 0.000000 
0.351810 -2.629215 0.000000 
0.350884 -2.527902 0.000000 
0.350372 -2.428161 0.000000 
0.350214 -2.328209 0.000000 
0.350109 -2.228308 0.000000 
0.350042 -2.128433 0.000000 
0.350025 -2.028462 0.000000 
0.250407 -2.912841 0.000000 
0.253340 -2.822622 0.000000 
0.253886 -2.731457 0.000000 
0.251819 -2.629056 0.000000 
0.250653 -2.527959 0.000000 
0.250270 -2.428168 0.000000 
0.250130 -2.328202 0.000000 
0.250048 -2.228300 0.000000 
0.250017 -2.128428 0.000000 
0.250010 -2.028458 0.000000 
0.152490 -2.913272 0.000000 
0.152139 -2.822849 0.000000 
0.151541 -2.730545 0.000000 
0.150930 -2.628508 0.000000 
0.150503 -2.527724 0.000000 
0.150224 -2.428048 0.000000 
0.150115 -2.328135 0.000000 
0.150046 -2.228272 0.000000 
0.150018 -2.128416 0.000000 
0.150010 -2.028450 0.000000 
0.054427 -2.913507 0.000000 
0.051129 -2.822879 0.000000 
0.049494 -2.729784 0.000000 
0.050079 -2.628037 0.000000 
0.050265 -2.527500 0.000000 
0.050130 -2.427938 0.000000 
0.050075 -2.328075 0.000000 
0.050036 -2.228248 0.000000 
0.050014 -2.128406 0.000000 
0.050009 -2.028443 0.000000 
-0.054427 -2.913507 0.000000 
-0.051129 -2.822879 0.000000 
-0.049494 -2.729784 0.000000 
-0.050079 -2.628037 0.000000 
-0.050265 -2.527500 0.000000 
-0.050130 -2.427938 0.000000 
-0.050075 -2.328075 0.000000 
-0.050036 -2.228248 0.000000 
-0.050014 -2.128406 0.000000 
-0.050009 -2.028443 0.000000 
-0.152490 -2.913272 0.000000 
-0.152139 -2.822849 0.000000 
-0.151541 -2.730545 0.000000 
-0.150930 -2.628508 0.000000 
-0.150503 -2.527724 0.000000 
-0.150224 -2.428048 0.000000 
-0.150115 -2.328135 0.000000 
-0.150046 -2.228272 0.000000 
-0.150018 -2.128416 0.000000 
-0.150010 -2.028450 0.000000 
-0.250407 -2.912841 0.000000 
-0.253340 -2.822622 0.000000 
-0.253886 -2.731457 0.000000 
-0.251819 -2.629056 0.000000 
-0.250653 -2.527959 0.000000 
-0.250270 -2.428168 0.000000 
-0.250130 -2.328202 0.000000 
-0.250048 -2.228300 0.000000 
-0.250017 -2.128428 0.000000 
-0.250010 -2.028458 0.000000 
-0.364106 -2.911789 0.000000 
-0.357660 -2.821638 0.000000 
-0.352989 -2.731887 0.000000 
-0.351810 -2.629215 0.000000 
-0.350884 -2.527902 0.000000 
-0.350372 -2.428161 0.000000 
-0.350214 -2.328209 0.000000 
-0.350109 -2.228308 0.000000 
-0.350042 -2.128433 0.000000 
-0.350025 -2.028462 0.000000 
-0.480067 -2.909816 0.000000 
-0.464183 -2.819215 0.000000 
-0.452900 -2.730361 0.000000 
-0.452039 -2.628516 0.000000 
-0.451162 -2.527714 0.000000 
-0.450527 -2.428095 0.000000 
-0.450333 -2.328176 0.000000 
-0.450186 -2.228294 0.000000 
-0.450072 -2.128429 0.000000 
-0.450044 -2.028461 0.000000 
VECTORS X_EC float 
-0.240872 -0.217483 0.000000 
-0.034380 0.559407 0.000000 
0.112296 -0.640121 0.000000 
0.123497 -0.015029 0.000000 
0.134894 0.624139 0.000000 
0.143152 -0.720714 0.000000 
0.145672 -0.069625 0.000000 
0.147586 0.581974 0.000000 
0.149062 -0.766207 0.000000 
0.149431 -0.115778 0.000000 
-0.733381 -0.190848 0.000000 
-0.649574 0.592107 0.000000 
-0.588855 -0.619532 0.000000 
-0.573525 -0.005604 0.000000 
-0.561488 0.626682 0.000000 
-0.554839 -0.719823 0.000000 
-0.552781 -0.069177 0.000000 
-0.551417 0.582153 0.000000 
-0.550545 -0.766158 0.000000 
-0.550329 -0.115758 0.000000 
0.744706 -0.176643 0.000000 
0.706576 0.605398 0.000000 
0.699478 -0.625330 0.000000 
0.726347 -0.007748 0.000000 
0.741509 0.627451 0.000000 
0.746486 -0.719733 0.000000 
0.748311 -0.069268 0.000000 
0.749374 0.582056 0.000000 
0.749776 -0.766222 0.000000 
0.749870 -0.115813 0.000000 
0.017634 -0.170823 0.000000 
0.022190 0.608461 0.000000 
0.029972 -0.637639 0.000000 
0.037904 -0.015143 0.000000 
0.043456 0.624272 0.000000 
0.047087 -0.721351 0.000000 
0.048510 -0.070175 0.000000 
0.049401 0.581675 0.000000 
0.049772 -0.766382 0.000000 
0.049865 -0.115924 0.000000 
-0.707556 -0.167658 0.000000 
-0.664672 0.608867 0.000000 
-0.643416 -0.647913 0.000000 
-0.651026 -0.021497 0.000000 
-0.653450 0.621247 0.000000 
-0.651691 -0.722833 0.000000 
-0.650975 -0.070981 0.000000 
-0.650463 0.581347 0.000000 
-0.650187 -0.766515 0.000000 
-0.650113 -0.116014 0.000000 
0.707556 -0.167658 0.000000 
0.664672 0.608867 0.000000 
0.643416 -0.647913 0.000000 
0.651026 -0.021497 0.000000 
0.653450 0.621247 0.000000 
0.651691 -0.722833 0.000000 
0.650975 -0.070981 0.000000 
0.650463 0.581347 0.000000 
0.650187 -0.766515 0.000000 
0.650113 -0.116014 0.000000 
-0.017634 -0.170823 0.000000 
-0.022190 0.608461 0.000000 
-0.029972 -0.637639 0.000000 
-0.037904 -0.015143 0.000000 
-0.043456 0.624272 0.000000 
-0.047087 -0.721351 0.000000 
-0.048510 -0.070175 0.000000 
-0.049401 0.581675 0.000000 
-0.049772 -0.766382 0.000000 
-0.049865 -0.115924 0.000000 
-0.744706 -0.176643 0.000000 
-0.706576 0.605398 0.000000 
-0.699478 -0.625330 0.000000 
-0.726347 -0.007748 0.000000 
-0.741509 0.627451 0.000000 
-0.746486 -0.719733 0.000000 
-0.748311 -0.069268 0.000000 
-0.749374 0.582056 0.000000 
-0.749776 -0.766222 0.000000 
-0.749870 -0.115813 0.000000 
0.733381 -0.190848 0.000000 
0.649574 0.592107 0.000000 
0.588855 -0.619532 0.000000 
0.573525 -0.005604 0.000000 
0.561488 0.626682 0.000000 
0.554839 -0.719823 0.000000 
0.552781 -0.069177 0.000000 
0.551417 0.582153 0.000000 
0.550545 -0.766158 0.000000 
0.550329 -0.115758 0.000000 
0.240872 -0.217483 0.000000 
0.034380 0.559407 0.000000 
-0.112296 -0.640121 0.000000 
-0.123497 -0.015029 0.000000 
-0.134894 0.624139 0.000000 
-0.143152 -0.720714 0.000000 
-0.145672 -0.069625 0.000000 
-0.147586 0.581974 0.000000 
-0.149062 -0.766207 0.000000 
-0.149431 -0.115778 0.000000 
CELL_DATA 100 
SCALARS MASS float 
LOOKUP_TABLE default 
10.000000 
10.000000 
10.000000 
10.000000 
10.000000 
10.000000 
10.000000 
10.000000 
10.000000 
10.000000 
10.000000 
10.000000 
10.000000 
10.000000 
10.000000 
10.000000 
10.000000 
10.000000 
10.000000 
10.000000 
10.000000 
10.000000 
10.000000 
10.000000 
10.000000 
10.000000 
10.000000 
10.000000 
10.000000 
10.000000 
10.000000 
10.000000 
10.000000 
10.000000 
10.000000 
10.000000 
10.000000 
10.000000 
10.000000 
10.000000 
10.000000 
10.000000 
10.000000 
10.000000 
10.000000 
10.000000 
10.000000 
10.000000 
10.000000 
10.000000 
10.000000 
10.000000 
10.000000 
10.000000 
10.000000 
10.000000 
10.000000 
10.000000 
10.000000 
10.000000 
10.000000 
10.000000 
10.000000 
10.000000 
10.000000 
10.000000 
10.000000 
10.000000 
10.000000 
10.000000 
10.000000 
10.000000 
10.000000 
10.000000 
10.000000 
10.000000 
10.000000 
10.000000 
10.000000 
10.000000 
10.000000 
10.000000 
10.000000 
10.000000 
10.000000 
10.000000 
10.000000 
10.000000 
10.000000 
10.000000 
10.000000 
10.000000 
10.000000 
10.000000 
10.000000 
10.000000 
10.000000 
10.000000 
10.000000 
10.000000 
SCALARS MASS float 
LOOKUP_TABLE default 
10.000000 
10.000000 
10.000000 
10.000000 
10.000000 
10.000000 
10.000000 
10.000000 
10.000000 
10.000000 
10.000000 
10.000000 
10.000000 
10.000000 
10.000000 
10.000000 
10.000000 
10.000000 
10.000000 
10.000000 
10.000000 
10.000000 
10.000000 
10.000000 
10.000000 
10.000000 
10.000000 
10.000000 
10.000000 
10.000000 
10.000000 
10.000000 
10.000000 
10.000000 
10.000000 
10.000000 
10.000000 
10.000000 
10.000000 
10.000000 
10.000000 
10.000000 
10.000000 
10.000000 
10.000000 
10.000000 
10.000000 
10.000000 
10.000000 
10.000000 
10.000000 
10.000000 
10.000000 
10.000000 
10.000000 
10.000000 
10.000000 
10.000000 
10.000000 
10.000000 
10.000000 
10.000000 
10.000000 
10.000000 
10.000000 
10.000000 
10.000000 
10.000000 
10.000000 
10.000000 
10.000000 
10.000000 
10.000000 
10.000000 
10.000000 
10.000000 
10.000000 
10.000000 
10.000000 
10.000000 
10.000000 
10.000000 
10.000000 
10.000000 
10.000000 
10.000000 
10.000000 
10.000000 
10.000000 
10.000000 
10.000000 
10.000000 
10.000000 
10.000000 
10.000000 
10.000000 
10.000000 
10.000000 
10.000000 
10.000000 
SCALARS DENSITY float 
LOOKUP_TABLE default 
34050.950395 
675.308024 
1213.878468 
1010.847093 
1003.229123 
1007.238307 
1007.659304 
1002.550109 
1001.537142 
1000.635749 
32833.310025 
681.908467 
1241.963744 
1001.068391 
1000.693148 
1005.226702 
1006.860355 
1002.340540 
1001.428473 
1000.582699 
34997.714035 
649.142895 
1212.934007 
1005.358928 
1003.449098 
1005.684761 
1006.879247 
1002.498167 
1001.492902 
1000.604833 
212464.474867 
1066.220412 
1141.848179 
991.082913 
1015.802026 
1015.705651 
1011.635222 
1004.694644 
1002.340804 
1001.002628 
62802.493772 
713.657380 
1166.852055 
1020.751532 
1017.204768 
1010.458590 
1008.921067 
1003.540920 
1002.054356 
1000.795426 
62802.493772 
713.657380 
1166.852055 
1020.751532 
1017.204768 
1010.458590 
1008.921067 
1003.540920 
1002.054356 
1000.795426 
212464.474867 
1066.220412 
1141.848179 
991.082913 
1015.802026 
1015.705651 
1011.635222 
1004.694644 
1002.340804 
1001.002628 
34997.714035 
649.142895 
1212.934007 
1005.358928 
1003.449098 
1005.684761 
1006.879247 
1002.498167 
1001.492902 
1000.604833 
32833.310025 
681.908467 
1241.963744 
1001.068391 
1000.693148 
1005.226702 
1006.860355 
1002.340540 
1001.428473 
1000.582699 
34050.950395 
675.308024 
1213.878468 
1010.847093 
1003.229123 
1007.238307 
1007.659304 
1002.550109 
1001.537142 
1000.635749 
SCALARS ELEM_i float 
LOOKUP_TABLE default 
81 
82 
82 
83 
84 
84 
85 
86 
86 
87 
108 
109 
109 
110 
111 
111 
112 
113 
113 
114 
108 
109 
109 
110 
111 
111 
112 
113 
113 
114 
135 
136 
136 
137 
138 
138 
139 
140 
140 
141 
162 
163 
163 
164 
165 
165 
166 
167 
167 
168 
162 
163 
163 
164 
165 
165 
166 
167 
167 
168 
189 
190 
190 
191 
192 
192 
193 
194 
194 
195 
216 
217 
217 
218 
219 
219 
220 
221 
221 
222 
216 
217 
217 
218 
219 
219 
220 
221 
221 
222 
243 
244 
244 
245 
246 
246 
247 
248 
248 
249 
VECTORS VELOCITY float 
4.746298 -8.882385 0.000000 
-0.217360 0.231233 0.000000 
0.563922 -9.011226 0.000000 
0.849875 -6.797997 0.000000 
0.121440 -6.808844 0.000000 
0.102020 -6.964664 0.000000 
0.116385 -6.870704 0.000000 
0.075571 -6.896974 0.000000 
0.031995 -6.931228 0.000000 
0.020642 -6.938398 0.000000 
1.069077 -10.884125 0.000000 
-0.114192 -1.740058 0.000000 
0.844877 -9.846098 0.000000 
0.550367 -7.151025 0.000000 
0.069526 -6.927094 0.000000 
0.068267 -7.008826 0.000000 
0.056107 -6.898586 0.000000 
0.029402 -6.910816 0.000000 
0.013447 -6.935080 0.000000 
0.008797 -6.940511 0.000000 
-0.431331 -10.966081 0.000000 
1.894596 -1.767312 0.000000 
1.465847 -9.356634 0.000000 
0.326615 -7.087245 0.000000 
0.090583 -7.045263 0.000000 
0.109134 -7.014152 0.000000 
0.045908 -6.895004 0.000000 
0.009170 -6.909761 0.000000 
0.004530 -6.932228 0.000000 
0.002646 -6.937991 0.000000 
0.549440 -11.023031 0.000000 
0.380263 -1.774448 0.000000 
0.136053 -9.018727 0.000000 
0.154432 -7.002282 0.000000 
0.165640 -7.024696 0.000000 
0.089836 -6.956360 0.000000 
0.044841 -6.865150 0.000000 
0.016405 -6.902868 0.000000 
0.008561 -6.926446 0.000000 
0.005224 -6.933597 0.000000 
1.066279 -11.053499 0.000000 
-0.962897 -1.776900 0.000000 
-0.742991 -8.805583 0.000000 
0.027434 -6.936319 0.000000 
0.149202 -6.984956 0.000000 
0.042364 -6.902972 0.000000 
0.029679 -6.838756 0.000000 
0.017211 -6.896813 0.000000 
0.008946 -6.921710 0.000000 
0.005607 -6.930060 0.000000 
-1.066279 -11.053499 0.000000 
0.962897 -1.776900 0.000000 
0.742991 -8.805583 0.000000 
-0.027434 -6.936319 0.000000 
-0.149202 -6.984956 0.000000 
-0.042364 -6.902972 0.000000 
-0.029679 -6.838756 0.000000 
-0.017211 -6.896813 0.000000 
-0.008946 -6.921710 0.000000 
-0.005607 -6.930060 0.000000 
-0.549440 -11.023031 0.000000 
-0.380263 -1.774448 0.000000 
-0.136053 -9.018727 0.000000 
-0.154432 -7.002282 0.000000 
-0.165640 -7.024696 0.000000 
-0.089836 -6.956360 0.000000 
-0.044841 -6.865150 0.000000 
-0.016405 -6.902868 0.000000 
-0.008561 -6.926446 0.000000 
-0.005224 -6.933597 0.000000 
0.431331 -10.966081 0.000000 
-1.894596 -1.767312 0.000000 
-1.465847 -9.356634 0.000000 
-0.326615 -7.087245 0.000000 
-0.090583 -7.045263 0.000000 
-0.109134 -7.014152 0.000000 
-0.045908 -6.895004 0.000000 
-0.009170 -6.909761 0.000000 
-0.004530 -6.932228 0.000000 
-0.002646 -6.937991 0.000000 
-1.069077 -10.884125 0.000000 
0.114192 -1.740058 0.000000 
-0.844877 -9.846098 0.000000 
-0.550367 -7.151025 0.000000 
-0.069526 -6.927094 0.000000 
-0.068267 -7.008826 0.000000 
-0.056107 -6.898586 0.000000 
-0.029402 -6.910816 0.000000 
-0.013447 -6.935080 0.000000 
-0.008797 -6.940511 0.000000 
-4.746298 -8.882385 0.000000 
0.217360 0.231233 0.000000 
-0.563922 -9.011226 0.000000 
-0.849875 -6.797997 0.000000 
-0.121440 -6.808844 0.000000 
-0.102020 -6.964664 0.000000 
-0.116385 -6.870704 0.000000 
-0.075571 -6.896974 0.000000 
-0.031995 -6.931228 0.000000 
-0.020642 -6.938398 0.000000 
TENSORS STRESS float 
-273.212662 -15.143240 0.000000 
0.000000 -389.526361 0.000000 
0.000000 0.000000 0.000000 

1754.887754 -1279.193825 0.000000 
0.000000 631.746868 0.000000 
0.000000 0.000000 0.000000 

-1425.751212 -248.453015 0.000000 
0.000000 -1795.939671 0.000000 
0.000000 0.000000 0.000000 

395.700054 11.446474 0.000000 
0.000000 466.012503 0.000000 
0.000000 0.000000 0.000000 

7.222899 -32.368098 0.000000 
0.000000 -27.886121 0.000000 
0.000000 0.000000 0.000000 

-21.633797 -28.190695 0.000000 
0.000000 -46.401518 0.000000 
0.000000 0.000000 0.000000 

-14.356102 -10.564644 0.000000 
0.000000 -29.211638 0.000000 
0.000000 0.000000 0.000000 

-18.849060 -5.253904 0.000000 
0.000000 -29.633636 0.000000 
0.000000 0.000000 0.000000 

-17.568250 -3.867353 0.000000 
0.000000 -24.010578 0.000000 
0.000000 0.000000 0.000000 

-3.374132 -1.091179 0.000000 
0.000000 -5.613415 0.000000 
0.000000 0.000000 0.000000 

-297.368856 -5.709167 0.000000 
0.000000 -418.286410 0.000000 
0.000000 0.000000 0.000000 

1102.836750 -529.971204 0.000000 
0.000000 97.676279 0.000000 
0.000000 0.000000 0.000000 

-1606.668934 -150.110346 0.000000 
0.000000 -1905.860640 0.000000 
0.000000 0.000000 0.000000 

465.638934 -64.562814 0.000000 
0.000000 594.952754 0.000000 
0.000000 0.000000 0.000000 

31.406407 -38.377451 0.000000 
0.000000 0.898870 0.000000 
0.000000 0.000000 0.000000 

-3.754084 -25.110671 0.000000 
0.000000 -24.464719 0.000000 
0.000000 0.000000 0.000000 

-9.135176 -9.064975 0.000000 
0.000000 -22.856723 0.000000 
0.000000 0.000000 0.000000 

-16.693800 -4.391271 0.000000 
0.000000 -27.534000 0.000000 
0.000000 0.000000 0.000000 

-16.117513 -2.960643 0.000000 
0.000000 -22.527956 0.000000 
0.000000 0.000000 0.000000 

-2.666017 -0.922762 0.000000 
0.000000 -4.947297 0.000000 
0.000000 0.000000 0.000000 

-288.772344 4.373467 0.000000 
0.000000 -404.488268 0.000000 
0.000000 0.000000 0.000000 

1747.160473 209.934812 0.000000 
0.000000 818.979530 0.000000 
0.000000 0.000000 0.000000 

-1438.842367 -1.371125 0.000000 
0.000000 -1698.240986 0.000000 
0.000000 0.000000 0.000000 

428.989442 -106.888875 0.000000 
0.000000 549.825349 0.000000 
0.000000 0.000000 0.000000 

21.141284 -30.364920 0.000000 
0.000000 -11.540887 0.000000 
0.000000 0.000000 0.000000 

-3.313300 -17.736465 0.000000 
0.000000 -23.916117 0.000000 
0.000000 0.000000 0.000000 

-7.275962 -5.880039 0.000000 
0.000000 -20.583962 0.000000 
0.000000 0.000000 0.000000 

-17.891278 -2.394297 0.000000 
0.000000 -28.996249 0.000000 
0.000000 0.000000 0.000000 

-16.754731 -1.634116 0.000000 
0.000000 -23.306534 0.000000 
0.000000 0.000000 0.000000 

-2.760514 -0.474174 0.000000 
0.000000 -5.062744 0.000000 
0.000000 0.000000 0.000000 

-77.140233 0.112714 0.000000 
0.000000 -91.102349 0.000000 
0.000000 0.000000 0.000000 

-1034.112730 -26.037449 0.000000 
0.000000 -1097.214205 0.000000 
0.000000 0.000000 0.000000 

-559.355331 -78.164697 0.000000 
0.000000 -941.081270 0.000000 
0.000000 0.000000 0.000000 

775.417104 -83.442014 0.000000 
0.000000 793.938505 0.000000 
0.000000 0.000000 0.000000 

-45.322144 -34.333266 0.000000 
0.000000 -84.289284 0.000000 
0.000000 0.000000 0.000000 

-72.124450 -17.293657 0.000000 
0.000000 -89.551155 0.000000 
0.000000 0.000000 0.000000 

-45.668596 -8.731164 0.000000 
0.000000 -55.782228 0.000000 
0.000000 0.000000 0.000000 

-41.278679 -3.508248 0.000000 
0.000000 -50.107839 0.000000 
0.000000 0.000000 0.000000 

-27.558292 -1.776792 0.000000 
0.000000 -33.484214 0.000000 
0.000000 0.000000 0.000000 

-7.893564 -0.654482 0.000000 
0.000000 -9.509449 0.000000 
0.000000 0.000000 0.000000 

-193.546017 -1.473503 0.000000 
0.000000 -253.569039 0.000000 
0.000000 0.000000 0.000000 

1268.376544 -195.777049 0.000000 
0.000000 791.373151 0.000000 
0.000000 0.000000 0.000000 

-1049.464069 -55.609178 0.000000 
0.000000 -1285.945505 0.000000 
0.000000 0.000000 0.000000 

341.183114 10.597428 0.000000 
0.000000 399.093666 0.000000 
0.000000 0.000000 0.000000 

-37.279456 -4.201009 0.000000 
0.000000 -93.921467 0.000000 
0.000000 0.000000 0.000000 

-22.260472 -3.471099 0.000000 
0.000000 -57.643210 0.000000 
0.000000 0.000000 0.000000 

-13.960823 -3.147058 0.000000 
0.000000 -33.520992 0.000000 
0.000000 0.000000 0.000000 

-26.968638 -1.093827 0.000000 
0.000000 -40.153634 0.000000 
0.000000 0.000000 0.000000 

-23.841889 -0.736359 0.000000 
0.000000 -31.620645 0.000000 
0.000000 0.000000 0.000000 

-4.451035 -0.184459 0.000000 
0.000000 -6.911311 0.000000 
0.000000 0.000000 0.000000 

-193.546017 1.473503 0.000000 
0.000000 -253.569039 0.000000 
0.000000 0.000000 0.000000 

1268.376544 195.777049 0.000000 
0.000000 791.373151 0.000000 
0.000000 0.000000 0.000000 

-1049.464069 55.609178 0.000000 
0.000000 -1285.945505 0.000000 
0.000000 0.000000 0.000000 

341.183114 -10.597428 0.000000 
0.000000 399.093666 0.000000 
0.000000 0.000000 0.000000 

-37.279456 4.201009 0.000000 
0.000000 -93.921467 0.000000 
0.000000 0.000000 0.000000 

-22.260472 3.471099 0.000000 
0.000000 -57.643210 0.000000 
0.000000 0.000000 0.000000 

-13.960823 3.147058 0.000000 
0.000000 -33.520992 0.000000 
0.000000 0.000000 0.000000 

-26.968638 1.093827 0.000000 
0.000000 -40.153634 0.000000 
0.000000 0.000000 0.000000 

-23.841889 0.736359 0.000000 
0.000000 -31.620645 0.000000 
0.000000 0.000000 0.000000 

-4.451035 0.184459 0.000000 
0.000000 -6.911311 0.000000 
0.000000 0.000000 0.000000 

-77.140233 -0.112714 0.000000 
0.000000 -91.102349 0.000000 
0.000000 0.000000 0.000000 

-1034.112730 26.037449 0.000000 
0.000000 -1097.214205 0.000000 
0.000000 0.000000 0.000000 

-559.355331 78.164697 0.000000 
0.000000 -941.081270 0.000000 
0.000000 0.000000 0.000000 

775.417104 83.442014 0.000000 
0.000000 793.938505 0.000000 
0.000000 0.000000 0.000000 

-45.322144 34.333266 0.000000 
0.000000 -84.289284 0.000000 
0.000000 0.000000 0.000000 

-72.124450 17.293657 0.000000 
0.000000 -89.551155 0.000000 
0.000000 0.000000 0.000000 

-45.668596 8.731164 0.000000 
0.000000 -55.782228 0.000000 
0.000000 0.000000 0.000000 

-41.278679 3.508248 0.000000 
0.000000 -50.107839 0.000000 
0.000000 0.000000 0.000000 

-27.558292 1.776792 0.000000 
0.000000 -33.484214 0.000000 
0.000000 0.000000 0.000000 

-7.893564 0.654482 0.000000 
0.000000 -9.509449 0.000000 
0.000000 0.000000 0.000000 

-288.772344 -4.373467 0.000000 
0.000000 -404.488268 0.000000 
0.000000 0.000000 0.000000 

1747.160473 -209.934812 0.000000 
0.000000 818.979530 0.000000 
0.000000 0.000000 0.000000 

-1438.842367 1.371125 0.000000 
0.000000 -1698.240986 0.000000 
0.000000 0.000000 0.000000 

428.989442 106.888875 0.000000 
0.000000 549.825349 0.000000 
0.000000 0.000000 0.000000 

21.141284 30.364920 0.000000 
0.000000 -11.540887 0.000000 
0.000000 0.000000 0.000000 

-3.313300 17.736465 0.000000 
0.000000 -23.916117 0.000000 
0.000000 0.000000 0.000000 

-7.275962 5.880039 0.000000 
0.000000 -20.583962 0.000000 
0.000000 0.000000 0.000000 

-17.891278 2.394297 0.000000 
0.000000 -28.996249 0.000000 
0.000000 0.000000 0.000000 

-16.754731 1.634116 0.000000 
0.000000 -23.306534 0.000000 
0.000000 0.000000 0.000000 

-2.760514 0.474174 0.000000 
0.000000 -5.062744 0.000000 
0.000000 0.000000 0.000000 

-297.368856 5.709167 0.000000 
0.000000 -418.286410 0.000000 
0.000000 0.000000 0.000000 

1102.836750 529.971204 0.000000 
0.000000 97.676279 0.000000 
0.000000 0.000000 0.000000 

-1606.668934 150.110346 0.000000 
0.000000 -1905.860640 0.000000 
0.000000 0.000000 0.000000 

465.638934 64.562814 0.000000 
0.000000 594.952754 0.000000 
0.000000 0.000000 0.000000 

31.406407 38.377451 0.000000 
0.000000 0.898870 0.000000 
0.000000 0.000000 0.000000 

-3.754084 25.110671 0.000000 
0.000000 -24.464719 0.000000 
0.000000 0.000000 0.000000 

-9.135176 9.064975 0.000000 
0.000000 -22.856723 0.000000 
0.000000 0.000000 0.000000 

-16.693800 4.391271 0.000000 
0.000000 -27.534000 0.000000 
0.000000 0.000000 0.000000 

-16.117513 2.960643 0.000000 
0.000000 -22.527956 0.000000 
0.000000 0.000000 0.000000 

-2.666017 0.922762 0.000000 
0.000000 -4.947297 0.000000 
0.000000 0.000000 0.000000 

-273.212662 15.143240 0.000000 
0.000000 -389.526361 0.000000 
0.000000 0.000000 0.000000 

1754.887754 1279.193825 0.000000 
0.000000 631.746868 0.000000 
0.000000 0.000000 0.000000 

-1425.751212 248.453015 0.000000 
0.000000 -1795.939671 0.000000 
0.000000 0.000000 0.000000 

395.700054 -11.446474 0.000000 
0.000000 466.012503 0.000000 
0.000000 0.000000 0.000000 

7.222899 32.368098 0.000000 
0.000000 -27.886121 0.000000 
0.000000 0.000000 0.000000 

-21.633797 28.190695 0.000000 
0.000000 -46.401518 0.000000 
0.000000 0.000000 0.000000 

-14.356102 10.564644 0.000000 
0.000000 -29.211638 0.000000 
0.000000 0.000000 0.000000 

-18.849060 5.253904 0.000000 
0.000000 -29.633636 0.000000 
0.000000 0.000000 0.000000 

-17.568250 3.867353 0.000000 
0.000000 -24.010578 0.000000 
0.000000 0.000000 0.000000 

-3.374132 1.091179 0.000000 
0.000000 -5.613415 0.000000 
0.000000 0.000000 0.000000 

TENSORS STRAIN float 
0.123533 -0.074768 0.000000 
0.000000 -0.450753 0.000000 
0.000000 0.000000 0.000000 

0.066674 -0.125258 0.000000 
0.000000 -0.043304 0.000000 
0.000000 0.000000 0.000000 

0.004226 -0.043731 0.000000 
0.000000 -0.060932 0.000000 
0.000000 0.000000 0.000000 

0.001162 0.001678 0.000000 
0.000000 0.011468 0.000000 
0.000000 0.000000 0.000000 

0.002403 -0.004709 0.000000 
0.000000 -0.002704 0.000000 
0.000000 0.000000 0.000000 

0.001312 -0.004117 0.000000 
0.000000 -0.002305 0.000000 
0.000000 0.000000 0.000000 

0.000767 -0.001544 0.000000 
0.000000 -0.001404 0.000000 
0.000000 0.000000 0.000000 

0.000431 -0.000764 0.000000 
0.000000 -0.001136 0.000000 
0.000000 0.000000 0.000000 

0.000166 -0.000562 0.000000 
0.000000 -0.000770 0.000000 
0.000000 0.000000 0.000000 

0.000097 -0.000158 0.000000 
0.000000 -0.000228 0.000000 
0.000000 0.000000 0.000000 

0.117478 -0.027180 0.000000 
0.000000 -0.458190 0.000000 
0.000000 0.000000 0.000000 

0.055629 -0.052402 0.000000 
0.000000 -0.043758 0.000000 
0.000000 0.000000 0.000000 

-0.004688 -0.027033 0.000000 
0.000000 -0.058568 0.000000 
0.000000 0.000000 0.000000 

-0.001688 -0.009372 0.000000 
0.000000 0.017083 0.000000 
0.000000 0.000000 0.000000 

0.002448 -0.005569 0.000000 
0.000000 -0.001979 0.000000 
0.000000 0.000000 0.000000 

0.001304 -0.003660 0.000000 
0.000000 -0.001715 0.000000 
0.000000 0.000000 0.000000 

0.000768 -0.001323 0.000000 
0.000000 -0.001235 0.000000 
0.000000 0.000000 0.000000 

0.000466 -0.000638 0.000000 
0.000000 -0.001109 0.000000 
0.000000 0.000000 0.000000 

0.000185 -0.000430 0.000000 
0.000000 -0.000746 0.000000 
0.000000 0.000000 0.000000 

0.000110 -0.000134 0.000000 
0.000000 -0.000221 0.000000 
0.000000 0.000000 0.000000 

0.117707 0.022194 0.000000 
0.000000 -0.469513 0.000000 
0.000000 0.000000 0.000000 

0.055760 0.019760 0.000000 
0.000000 -0.031606 0.000000 
0.000000 0.000000 0.000000 

-0.004776 -0.000241 0.000000 
0.000000 -0.050398 0.000000 
0.000000 0.000000 0.000000 

-0.001673 -0.015582 0.000000 
0.000000 0.015942 0.000000 
0.000000 0.000000 0.000000 

0.002447 -0.004418 0.000000 
0.000000 -0.002308 0.000000 
0.000000 0.000000 0.000000 

0.001304 -0.002586 0.000000 
0.000000 -0.001701 0.000000 
0.000000 0.000000 0.000000 

0.000768 -0.000858 0.000000 
0.000000 -0.001175 0.000000 
0.000000 0.000000 0.000000 

0.000466 -0.000348 0.000000 
0.000000 -0.001148 0.000000 
0.000000 0.000000 0.000000 

0.000185 -0.000237 0.000000 
0.000000 -0.000767 0.000000 
0.000000 0.000000 0.000000 

0.000110 -0.000069 0.000000 
0.000000 -0.000224 0.000000 
0.000000 0.000000 0.000000 

-0.044088 0.003472 0.000000 
0.000000 -0.474223 0.000000 
0.000000 0.000000 0.000000 

-0.011598 -0.004025 0.000000 
0.000000 -0.021353 0.000000 
0.000000 0.000000 0.000000 

0.019180 -0.012942 0.000000 
0.000000 -0.044022 0.000000 
0.000000 0.000000 0.000000 

0.009946 -0.011991 0.000000 
0.000000 0.012607 0.000000 
0.000000 0.000000 0.000000 

0.001915 -0.005057 0.000000 
0.000000 -0.003824 0.000000 
0.000000 0.000000 0.000000 

0.000093 -0.002547 0.000000 
0.000000 -0.002474 0.000000 
0.000000 0.000000 0.000000 

-0.000002 -0.001281 0.000000 
0.000000 -0.001486 0.000000 
0.000000 0.000000 0.000000 

-0.000023 -0.000511 0.000000 
0.000000 -0.001309 0.000000 
0.000000 0.000000 0.000000 

-0.000013 -0.000258 0.000000 
0.000000 -0.000874 0.000000 
0.000000 0.000000 0.000000 

-0.000009 -0.000095 0.000000 
0.000000 -0.000244 0.000000 
0.000000 0.000000 0.000000 

0.069716 -0.013418 0.000000 
0.000000 -0.476875 0.000000 
0.000000 0.000000 0.000000 

0.035337 -0.020259 0.000000 
0.000000 -0.014023 0.000000 
0.000000 0.000000 0.000000 

0.000249 -0.009409 0.000000 
0.000000 -0.039762 0.000000 
0.000000 0.000000 0.000000 

0.001193 0.001569 0.000000 
0.000000 0.009764 0.000000 
0.000000 0.000000 0.000000 

0.003210 -0.000620 0.000000 