# vtk DataFile Version 3.0 
vtk output 
ASCII 
DATASET UNSTRUCTURED_GRID 
POINTS 100 float 
0.452340 -2.870171 0.000000 
0.450964 -2.769654 0.000000 
0.450084 -2.670214 0.000000 
0.450022 -2.570276 0.000000 
0.450007 -2.470294 0.000000 
0.450000 -2.370303 0.000000 
0.450000 -2.270303 0.000000 
0.450000 -2.170303 0.000000 
0.450000 -2.070303 0.000000 
0.450000 -1.970303 0.000000 
0.350810 -2.870178 0.000000 
0.350351 -2.769661 0.000000 
0.350048 -2.670219 0.000000 
0.350010 -2.570278 0.000000 
0.350003 -2.470295 0.000000 
0.350000 -2.370303 0.000000 
0.350000 -2.270303 0.000000 
0.350000 -2.170303 0.000000 
0.350000 -2.070303 0.000000 
0.350000 -1.970303 0.000000 
0.249424 -2.870185 0.000000 
0.249792 -2.769658 0.000000 
0.250011 -2.670216 0.000000 
0.249999 -2.570277 0.000000 
0.249999 -2.470294 0.000000 
0.250000 -2.370303 0.000000 
0.250000 -2.270303 0.000000 
0.250000 -2.170303 0.000000 
0.250000 -2.070303 0.000000 
0.250000 -1.970303 0.000000 
0.150074 -2.870193 0.000000 
0.150033 -2.769654 0.000000 
0.150006 -2.670212 0.000000 
0.150002 -2.570275 0.000000 
0.150001 -2.470294 0.000000 
0.150000 -2.370302 0.000000 
0.150000 -2.270303 0.000000 
0.150000 -2.170303 0.000000 
0.150000 -2.070303 0.000000 
0.150000 -1.970303 0.000000 
0.050587 -2.870199 0.000000 
0.050227 -2.769651 0.000000 
0.050005 -2.670208 0.000000 
0.050004 -2.570273 0.000000 
0.050002 -2.470293 0.000000 
0.050000 -2.370302 0.000000 
0.050000 -2.270303 0.000000 
0.050000 -2.170303 0.000000 
0.050000 -2.070303 0.000000 
0.050000 -1.970303 0.000000 
-0.050587 -2.870199 0.000000 
-0.050227 -2.769651 0.000000 
-0.050005 -2.670208 0.000000 
-0.050004 -2.570273 0.000000 
-0.050002 -2.470293 0.000000 
-0.050000 -2.370302 0.000000 
-0.050000 -2.270303 0.000000 
-0.050000 -2.170303 0.000000 
-0.050000 -2.070303 0.000000 
-0.050000 -1.970303 0.000000 
-0.150074 -2.870193 0.000000 
-0.150033 -2.769654 0.000000 
-0.150006 -2.670212 0.000000 
-0.150002 -2.570275 0.000000 
-0.150001 -2.470294 0.000000 
-0.150000 -2.370302 0.000000 
-0.150000 -2.270303 0.000000 
-0.150000 -2.170303 0.000000 
-0.150000 -2.070303 0.000000 
-0.150000 -1.970303 0.000000 
-0.249424 -2.870185 0.000000 
-0.249792 -2.769658 0.000000 
-0.250011 -2.670216 0.000000 
-0.249999 -2.570277 0.000000 
-0.249999 -2.470294 0.000000 
-0.250000 -2.370303 0.000000 
-0.250000 -2.270303 0.000000 
-0.250000 -2.170303 0.000000 
-0.250000 -2.070303 0.000000 
-0.250000 -1.970303 0.000000 
-0.350810 -2.870178 0.000000 
-0.350351 -2.769661 0.000000 
-0.350048 -2.670219 0.000000 
-0.350010 -2.570278 0.000000 
-0.350003 -2.470295 0.000000 
-0.350000 -2.370303 0.000000 
-0.350000 -2.270303 0.000000 
-0.350000 -2.170303 0.000000 
-0.350000 -2.070303 0.000000 
-0.350000 -1.970303 0.000000 
-0.452340 -2.870171 0.000000 
-0.450964 -2.769654 0.000000 
-0.450084 -2.670214 0.000000 
-0.450022 -2.570276 0.000000 
-0.450007 -2.470294 0.000000 
-0.450000 -2.370303 0.000000 
-0.450000 -2.270303 0.000000 
-0.450000 -2.170303 0.000000 
-0.450000 -2.070303 0.000000 
-0.450000 -1.970303 0.000000 
CELLS 100 200 
1 0 
1 1 
1 2 
1 3 
1 4 
1 5 
1 6 
1 7 
1 8 
1 9 
1 10 
1 11 
1 12 
1 13 
1 14 
1 15 
1 16 
1 17 
1 18 
1 19 
1 20 
1 21 
1 22 
1 23 
1 24 
1 25 
1 26 
1 27 
1 28 
1 29 
1 30 
1 31 
1 32 
1 33 
1 34 
1 35 
1 36 
1 37 
1 38 
1 39 
1 40 
1 41 
1 42 
1 43 
1 44 
1 45 
1 46 
1 47 
1 48 
1 49 
1 50 
1 51 
1 52 
1 53 
1 54 
1 55 
1 56 
1 57 
1 58 
1 59 
1 60 
1 61 
1 62 
1 63 
1 64 
1 65 
1 66 
1 67 
1 68 
1 69 
1 70 
1 71 
1 72 
1 73 
1 74 
1 75 
1 76 
1 77 
1 78 
1 79 
1 80 
1 81 
1 82 
1 83 
1 84 
1 85 
1 86 
1 87 
1 88 
1 89 
1 90 
1 91 
1 92 
1 93 
1 94 
1 95 
1 96 
1 97 
1 98 
1 99 
CELL_TYPES 100 
1 
1 
1 
1 
1 
1 
1 
1 
1 
1 
1 
1 
1 
1 
1 
1 
1 
1 
1 
1 
1 
1 
1 
1 
1 
1 
1 
1 
1 
1 
1 
1 
1 
1 
1 
1 
1 
1 
1 
1 
1 
1 
1 
1 
1 
1 
1 
1 
1 
1 
1 
1 
1 
1 
1 
1 
1 
1 
1 
1 
1 
1 
1 
1 
1 
1 
1 
1 
1 
1 
1 
1 
1 
1 
1 
1 
1 
1 
1 
1 
1 
1 
1 
1 
1 
1 
1 
1 
1 
1 
1 
1 
1 
1 
1 
1 
1 
1 
1 
1 
POINT_DATA 100 
VECTORS X_GC float 
0.452340 -2.870171 0.000000 
0.450964 -2.769654 0.000000 
0.450084 -2.670214 0.000000 
0.450022 -2.570276 0.000000 
0.450007 -2.470294 0.000000 
0.450000 -2.370303 0.000000 
0.450000 -2.270303 0.000000 
0.450000 -2.170303 0.000000 
0.450000 -2.070303 0.000000 
0.450000 -1.970303 0.000000 
0.350810 -2.870178 0.000000 
0.350351 -2.769661 0.000000 
0.350048 -2.670219 0.000000 
0.350010 -2.570278 0.000000 
0.350003 -2.470295 0.000000 
0.350000 -2.370303 0.000000 
0.350000 -2.270303 0.000000 
0.350000 -2.170303 0.000000 
0.350000 -2.070303 0.000000 
0.350000 -1.970303 0.000000 
0.249424 -2.870185 0.000000 
0.249792 -2.769658 0.000000 
0.250011 -2.670216 0.000000 
0.249999 -2.570277 0.000000 
0.249999 -2.470294 0.000000 
0.250000 -2.370303 0.000000 
0.250000 -2.270303 0.000000 
0.250000 -2.170303 0.000000 
0.250000 -2.070303 0.000000 
0.250000 -1.970303 0.000000 
0.150074 -2.870193 0.000000 
0.150033 -2.769654 0.000000 
0.150006 -2.670212 0.000000 
0.150002 -2.570275 0.000000 
0.150001 -2.470294 0.000000 
0.150000 -2.370302 0.000000 
0.150000 -2.270303 0.000000 
0.150000 -2.170303 0.000000 
0.150000 -2.070303 0.000000 
0.150000 -1.970303 0.000000 
0.050587 -2.870199 0.000000 
0.050227 -2.769651 0.000000 
0.050005 -2.670208 0.000000 
0.050004 -2.570273 0.000000 
0.050002 -2.470293 0.000000 
0.050000 -2.370302 0.000000 
0.050000 -2.270303 0.000000 
0.050000 -2.170303 0.000000 
0.050000 -2.070303 0.000000 
0.050000 -1.970303 0.000000 
-0.050587 -2.870199 0.000000 
-0.050227 -2.769651 0.000000 
-0.050005 -2.670208 0.000000 
-0.050004 -2.570273 0.000000 
-0.050002 -2.470293 0.000000 
-0.050000 -2.370302 0.000000 
-0.050000 -2.270303 0.000000 
-0.050000 -2.170303 0.000000 
-0.050000 -2.070303 0.000000 
-0.050000 -1.970303 0.000000 
-0.150074 -2.870193 0.000000 
-0.150033 -2.769654 0.000000 
-0.150006 -2.670212 0.000000 
-0.150002 -2.570275 0.000000 
-0.150001 -2.470294 0.000000 
-0.150000 -2.370302 0.000000 
-0.150000 -2.270303 0.000000 
-0.150000 -2.170303 0.000000 
-0.150000 -2.070303 0.000000 
-0.150000 -1.970303 0.000000 
-0.249424 -2.870185 0.000000 
-0.249792 -2.769658 0.000000 
-0.250011 -2.670216 0.000000 
-0.249999 -2.570277 0.000000 
-0.249999 -2.470294 0.000000 
-0.250000 -2.370303 0.000000 
-0.250000 -2.270303 0.000000 
-0.250000 -2.170303 0.000000 
-0.250000 -2.070303 0.000000 
-0.250000 -1.970303 0.000000 
-0.350810 -2.870178 0.000000 
-0.350351 -2.769661 0.000000 
-0.350048 -2.670219 0.000000 
-0.350010 -2.570278 0.000000 
-0.350003 -2.470295 0.000000 
-0.350000 -2.370303 0.000000 
-0.350000 -2.270303 0.000000 
-0.350000 -2.170303 0.000000 
-0.350000 -2.070303 0.000000 
-0.350000 -1.970303 0.000000 
-0.452340 -2.870171 0.000000 
-0.450964 -2.769654 0.000000 
-0.450084 -2.670214 0.000000 
-0.450022 -2.570276 0.000000 
-0.450007 -2.470294 0.000000 
-0.450000 -2.370303 0.000000 
-0.450000 -2.270303 0.000000 
-0.450000 -2.170303 0.000000 
-0.450000 -2.070303 0.000000 
-0.450000 -1.970303 0.000000 
VECTORS X_EC float 
0.119577 -0.752694 0.000000 
0.137471 -0.109670 0.000000 
0.148914 0.547884 0.000000 
0.149710 -0.801275 0.000000 
0.149911 -0.151029 0.000000 
0.149996 0.499084 0.000000 
0.149999 -0.850911 0.000000 
0.150000 -0.200910 0.000000 
0.150000 0.449090 0.000000 
0.150000 -0.900910 0.000000 
-0.560532 -0.752596 0.000000 
-0.554565 -0.109576 0.000000 
-0.550618 0.547961 0.000000 
-0.550124 -0.801243 0.000000 
-0.550033 -0.151017 0.000000 
-0.550002 0.499084 0.000000 
-0.550000 -0.850911 0.000000 
-0.550000 -0.200910 0.000000 
-0.550000 0.449090 0.000000 
-0.550000 -0.900910 0.000000 
0.757488 -0.752502 0.000000 
0.752710 -0.109616 0.000000 
0.749852 0.547918 0.000000 
0.750013 -0.801262 0.000000 
0.750010 -0.151024 0.000000 
0.750000 0.499084 0.000000 
0.750000 -0.850911 0.000000 
0.750000 -0.200910 0.000000 
0.750000 0.449090 0.000000 
0.750000 -0.900910 0.000000 
0.049041 -0.752394 0.000000 
0.049568 -0.109671 0.000000 
0.049921 0.547860 0.000000 
0.049976 -0.801290 0.000000 
0.049992 -0.151034 0.000000 
0.049999 0.499084 0.000000 
0.050000 -0.850911 0.000000 
0.050000 -0.200910 0.000000 
0.050000 0.449090 0.000000 
0.050000 -0.900910 0.000000 
-0.657630 -0.752312 0.000000 
-0.652951 -0.109713 0.000000 
-0.650064 0.547815 0.000000 
-0.650053 -0.801312 0.000000 
-0.650021 -0.151042 0.000000 
-0.650001 0.499083 0.000000 
-0.650000 -0.850911 0.000000 
-0.650000 -0.200910 0.000000 
-0.650000 0.449090 0.000000 
-0.650000 -0.900910 0.000000 
0.657630 -0.752312 0.000000 
0.652951 -0.109713 0.000000 
0.650064 0.547815 0.000000 
0.650053 -0.801312 0.000000 
0.650021 -0.151042 0.000000 
0.650001 0.499083 0.000000 
0.650000 -0.850911 0.000000 
0.650000 -0.200910 0.000000 
0.650000 0.449090 0.000000 
0.650000 -0.900910 0.000000 
-0.049041 -0.752394 0.000000 
-0.049568 -0.109671 0.000000 
-0.049921 0.547860 0.000000 
-0.049976 -0.801290 0.000000 
-0.049992 -0.151034 0.000000 
-0.049999 0.499084 0.000000 
-0.050000 -0.850911 0.000000 
-0.050000 -0.200910 0.000000 
-0.050000 0.449090 0.000000 
-0.050000 -0.900910 0.000000 
-0.757488 -0.752502 0.000000 
-0.752710 -0.109616 0.000000 
-0.749852 0.547918 0.000000 
-0.750013 -0.801262 0.000000 
-0.750010 -0.151024 0.000000 
-0.750000 0.499084 0.000000 
-0.750000 -0.850911 0.000000 
-0.750000 -0.200910 0.000000 
-0.750000 0.449090 0.000000 
-0.750000 -0.900910 0.000000 
0.560532 -0.752596 0.000000 
0.554565 -0.109576 0.000000 
0.550618 0.547961 0.000000 
0.550124 -0.801243 0.000000 
0.550033 -0.151017 0.000000 
0.550002 0.499084 0.000000 
0.550000 -0.850911 0.000000 
0.550000 -0.200910 0.000000 
0.550000 0.449090 0.000000 
0.550000 -0.900910 0.000000 
-0.119577 -0.752694 0.000000 
-0.137471 -0.109670 0.000000 
-0.148914 0.547884 0.000000 
-0.149710 -0.801275 0.000000 
-0.149911 -0.151029 0.000000 
-0.149996 0.499084 0.000000 
-0.149999 -0.850911 0.000000 
-0.150000 -0.200910 0.000000 
-0.150000 0.449090 0.000000 
-0.150000 -0.900910 0.000000 
CELL_DATA 100 
SCALARS MASS float 
LOOKUP_TABLE default 
10.000000 
10.000000 
10.000000 
10.000000 
10.000000 
10.000000 
10.000000 
10.000000 
10.000000 
10.000000 
10.000000 
10.000000 
10.000000 
10.000000 
10.000000 
10.000000 
10.000000 
10.000000 
10.000000 
10.000000 
10.000000 
10.000000 
10.000000 
10.000000 
10.000000 
10.000000 
10.000000 
10.000000 
10.000000 
10.000000 
10.000000 
10.000000 
10.000000 
10.000000 
10.000000 
10.000000 
10.000000 
10.000000 
10.000000 
10.000000 
10.000000 
10.000000 
10.000000 
10.000000 
10.000000 
10.000000 
10.000000 
10.000000 
10.000000 
10.000000 
10.000000 
10.000000 
10.000000 
10.000000 
10.000000 
10.000000 
10.000000 
10.000000 
10.000000 
10.000000 
10.000000 
10.000000 
10.000000 
10.000000 
10.000000 
10.000000 
10.000000 
10.000000 
10.000000 
10.000000 
10.000000 
10.000000 
10.000000 
10.000000 
10.000000 
10.000000 
10.000000 
10.000000 
10.000000 
10.000000 
10.000000 
10.000000 
10.000000 
10.000000 
10.000000 
10.000000 
10.000000 
10.000000 
10.000000 
10.000000 
10.000000 
10.000000 
10.000000 
10.000000 
10.000000 
10.000000 
10.000000 
10.000000 
10.000000 
10.000000 
SCALARS MASS float 
LOOKUP_TABLE default 
10.000000 
10.000000 
10.000000 
10.000000 
10.000000 
10.000000 
10.000000 
10.000000 
10.000000 
10.000000 
10.000000 
10.000000 
10.000000 
10.000000 
10.000000 
10.000000 
10.000000 
10.000000 
10.000000 
10.000000 
10.000000 
10.000000 
10.000000 
10.000000 
10.000000 
10.000000 
10.000000 
10.000000 
10.000000 
10.000000 
10.000000 
10.000000 
10.000000 
10.000000 
10.000000 
10.000000 
10.000000 
10.000000 
10.000000 
10.000000 
10.000000 
10.000000 
10.000000 
10.000000 
10.000000 
10.000000 
10.000000 
10.000000 
10.000000 
10.000000 
10.000000 
10.000000 
10.000000 
10.000000 
10.000000 
10.000000 
10.000000 
10.000000 
10.000000 
10.000000 
10.000000 
10.000000 
10.000000 
10.000000 
10.000000 
10.000000 
10.000000 
10.000000 
10.000000 
10.000000 
10.000000 
10.000000 
10.000000 
10.000000 
10.000000 
10.000000 
10.000000 
10.000000 
10.000000 
10.000000 
10.000000 
10.000000 
10.000000 
10.000000 
10.000000 
10.000000 
10.000000 
10.000000 
10.000000 
10.000000 
10.000000 
10.000000 
10.000000 
10.000000 
10.000000 
10.000000 
10.000000 
10.000000 
10.000000 
10.000000 
SCALARS DENSITY float 
LOOKUP_TABLE default 
1221.007554 
995.112395 
1000.938057 
1001.446531 
1000.000709 
1000.003468 
1000.004565 
1000.000000 
1000.000000 
1000.000000 
1219.412098 
994.523335 
1000.778191 
1001.432412 
999.999822 
1000.003036 
1000.004457 
1000.000000 
1000.000000 
1000.000000 
1219.422842 
994.513449 
1000.779648 
1001.433869 
1000.000313 
1000.003121 
1000.004542 
1000.000000 
1000.000000 
1000.000000 
1229.552385 
998.273733 
1001.793873 
1001.512772 
1000.004817 
1000.005302 
1000.004917 
1000.000000 
1000.000000 
1000.000000 
1223.346369 
995.957254 
1001.176606 
1001.468157 
1000.004503 
1000.004443 
1000.005076 
1000.000000 
1000.000000 
1000.000000 
1223.346369 
995.957254 
1001.176606 
1001.468157 
1000.004503 
1000.004443 
1000.005076 
1000.000000 
1000.000000 
1000.000000 
1229.552385 
998.273733 
1001.793873 
1001.512772 
1000.004817 
1000.005302 
1000.004917 
1000.000000 
1000.000000 
1000.000000 
1219.422842 
994.513449 
1000.779648 
1001.433869 
1000.000313 
1000.003121 
1000.004542 
1000.000000 
1000.000000 
1000.000000 
1219.412098 
994.523335 
1000.778191 
1001.432412 
999.999822 
1000.003036 
1000.004457 
1000.000000 
1000.000000 
1000.000000 
1221.007554 
995.112395 
1000.938057 
1001.446531 
1000.000709 
1000.003468 
1000.004565 
1000.000000 
1000.000000 
1000.000000 
SCALARS ELEM_i float 
LOOKUP_TABLE default 
81 
82 
83 
83 
84 
85 
85 
86 
87 
87 
108 
109 
110 
110 
111 
112 
112 
113 
114 
114 
108 
109 
110 
110 
111 
112 
112 
113 
114 
114 
135 
136 
137 
137 
138 
139 
139 
140 
141 
141 
162 
163 
164 
164 
165 
166 
166 
167 
168 
168 
162 
163 
164 
164 
165 
166 
166 
167 
168 
168 
189 
190 
191 
191 
192 
193 
193 
194 
195 
195 
216 
217 
218 
218 
219 
220 
220 
221 
222 
222 
216 
217 
218 
218 
219 
220 
220 
221 
222 
222 
243 
244 
245 
245 
246 
247 
247 
248 
249 
249 
VECTORS VELOCITY float 
2.322858 -7.715318 0.000000 
0.858819 -6.017003 0.000000 
-0.019818 -6.942984 0.000000 
0.019070 -6.864969 0.000000 
0.008678 -6.876270 0.000000 
0.000043 -6.887632 0.000000 
0.000070 -6.887512 0.000000 
0.000026 -6.887566 0.000000 
-0.000000 -6.887601 0.000000 
0.000000 -6.887601 0.000000 
0.643297 -7.725803 0.000000 
0.240075 -6.026533 0.000000 
-0.002912 -6.950549 0.000000 
0.006806 -6.868261 0.000000 
0.002958 -6.877398 0.000000 
0.000017 -6.887643 0.000000 
0.000024 -6.887520 0.000000 
0.000009 -6.887568 0.000000 
0.000000 -6.887601 0.000000 
0.000000 -6.887601 0.000000 
-0.742637 -7.734295 0.000000 
-0.258798 -6.021813 0.000000 
0.025173 -6.946328 0.000000 
-0.001362 -6.866292 0.000000 
-0.001410 -6.876715 0.000000 
0.000015 -6.887641 0.000000 
-0.000011 -6.887516 0.000000 
-0.000005 -6.887567 0.000000 
0.000000 -6.887601 0.000000 
-0.000000 -6.887601 0.000000 
0.090661 -7.744794 0.000000 
0.039265 -6.016142 0.000000 
0.005774 -6.940956 0.000000 
0.002007 -6.863765 0.000000 
0.000663 -6.875832 0.000000 
0.000025 -6.887630 0.000000 
0.000010 -6.887507 0.000000 
0.000003 -6.887564 0.000000 
0.000000 -6.887601 0.000000 
-0.000000 -6.887601 0.000000 
0.706409 -7.752850 0.000000 
0.257328 -6.011825 0.000000 
-0.010832 -6.936830 0.000000 
0.004209 -6.861821 0.000000 
0.002145 -6.875151 0.000000 
0.000022 -6.887620 0.000000 
0.000023 -6.887500 0.000000 
0.000008 -6.887561 0.000000 
0.000000 -6.887601 0.000000 
-0.000000 -6.887601 0.000000 
-0.706409 -7.752850 0.000000 
-0.257328 -6.011825 0.000000 
0.010832 -6.936830 0.000000 
-0.004209 -6.861821 0.000000 
-0.002145 -6.875151 0.000000 
-0.000022 -6.887620 0.000000 
-0.000023 -6.887500 0.000000 
-0.000008 -6.887561 0.000000 
0.000000 -6.887601 0.000000 
0.000000 -6.887601 0.000000 
-0.090661 -7.744794 0.000000 
-0.039265 -6.016142 0.000000 
-0.005774 -6.940956 0.000000 
-0.002007 -6.863765 0.000000 
-0.000663 -6.875832 0.000000 
-0.000025 -6.887630 0.000000 
-0.000010 -6.887507 0.000000 
-0.000003 -6.887564 0.000000 
0.000000 -6.887601 0.000000 
-0.000000 -6.887601 0.000000 
0.742637 -7.734295 0.000000 
0.258798 -6.021813 0.000000 
-0.025173 -6.946328 0.000000 
0.001362 -6.866292 0.000000 
0.001410 -6.876715 0.000000 
-0.000015 -6.887641 0.000000 
0.000011 -6.887516 0.000000 
0.000005 -6.887567 0.000000 
-0.000000 -6.887601 0.000000 
-0.000000 -6.887601 0.000000 
-0.643297 -7.725803 0.000000 
-0.240075 -6.026533 0.000000 
0.002912 -6.950549 0.000000 
-0.006806 -6.868261 0.000000 
-0.002958 -6.877398 0.000000 
-0.000017 -6.887643 0.000000 
-0.000024 -6.887520 0.000000 
-0.000009 -6.887568 0.000000 
0.000000 -6.887601 0.000000 
0.000000 -6.887601 0.000000 
-2.322858 -7.715318 0.000000 
-0.858819 -6.017003 0.000000 
0.019818 -6.942984 0.000000 
-0.019070 -6.864969 0.000000 
-0.008678 -6.876270 0.000000 
-0.000043 -6.887632 0.000000 
-0.000070 -6.887512 0.000000 
-0.000026 -6.887566 0.000000 
0.000000 -6.887601 0.000000 
-0.000000 -6.887601 0.000000 
TENSORS STRESS float 
-2404.112967 -6.559944 0.000000 
0.000000 -2978.563279 0.000000 
0.000000 0.000000 0.000000 

131.969593 -26.440050 0.000000 
0.000000 136.211805 0.000000 
0.000000 0.000000 0.000000 

-19.712401 -6.049875 0.000000 
0.000000 -30.769933 0.000000 
0.000000 0.000000 0.000000 

-34.764976 -6.078462 0.000000 
0.000000 -43.078232 0.000000 
0.000000 0.000000 0.000000 

-0.003742 -0.035847 0.000000 
0.000000 -0.045122 0.000000 
0.000000 0.000000 0.000000 

-0.099578 -0.017978 0.000000 
0.000000 -0.139575 0.000000 
0.000000 0.000000 0.000000 

-0.141212 -0.019223 0.000000 
0.000000 -0.173639 0.000000 
0.000000 0.000000 0.000000 

-0.000000 0.000000 0.000000 
0.000000 -0.000000 0.000000 
0.000000 0.000000 0.000000 

-0.000000 -0.000000 0.000000 
0.000000 -0.000000 0.000000 
0.000000 0.000000 0.000000 

0.000000 -0.000000 0.000000 
0.000000 -0.000000 0.000000 
0.000000 0.000000 0.000000 

-2378.172994 -3.241535 0.000000 
0.000000 -2958.661976 0.000000 
0.000000 0.000000 0.000000 

149.898798 -13.299121 0.000000 
0.000000 150.856321 0.000000 
0.000000 0.000000 0.000000 

-15.009707 -3.106232 0.000000 
0.000000 -26.892521 0.000000 
0.000000 0.000000 0.000000 

-34.319255 -3.094372 0.000000 
0.000000 -42.681699 0.000000 
0.000000 0.000000 0.000000 

0.026135 -0.033357 0.000000 
0.000000 -0.013851 0.000000 
0.000000 0.000000 0.000000 

-0.083798 -0.011581 0.000000 
0.000000 -0.125553 0.000000 
0.000000 0.000000 0.000000 

-0.137700 -0.010995 0.000000 
0.000000 -0.169655 0.000000 
0.000000 0.000000 0.000000 

-0.000000 -0.000000 0.000000 
0.000000 -0.000000 0.000000 
0.000000 0.000000 0.000000 

-0.000000 -0.000000 0.000000 
0.000000 -0.000000 0.000000 
0.000000 0.000000 0.000000 

-0.000000 0.000000 0.000000 
0.000000 -0.000000 0.000000 
0.000000 0.000000 0.000000 

-2378.350145 0.598205 0.000000 
0.000000 -2958.878121 0.000000 
0.000000 0.000000 0.000000 

150.203461 2.152312 0.000000 
0.000000 151.228563 0.000000 
0.000000 0.000000 0.000000 

-15.052829 0.409440 0.000000 
0.000000 -26.945179 0.000000 
0.000000 0.000000 0.000000 

-34.362269 0.418786 0.000000 
0.000000 -42.734254 0.000000 
0.000000 0.000000 0.000000 

0.010888 -0.022873 0.000000 
0.000000 -0.032487 0.000000 
0.000000 0.000000 0.000000 

-0.086436 -0.001780 0.000000 
0.000000 -0.128777 0.000000 
0.000000 0.000000 0.000000 

-0.140338 -0.001194 0.000000 
0.000000 -0.172879 0.000000 
0.000000 0.000000 0.000000 

0.000000 0.000000 0.000000 
0.000000 0.000000 0.000000 
0.000000 0.000000 0.000000 

0.000000 0.000000 0.000000 
0.000000 0.000000 0.000000 
0.000000 0.000000 0.000000 

-0.000000 0.000000 0.000000 
0.000000 0.000000 0.000000 
0.000000 0.000000 0.000000 

-2541.917508 -0.047571 0.000000 
0.000000 -3084.413961 0.000000 
0.000000 0.000000 0.000000 

35.732074 -0.355814 0.000000 
0.000000 57.583055 0.000000 
0.000000 0.000000 0.000000 

-45.171490 -0.154134 0.000000 
0.000000 -51.603940 0.000000 
0.000000 0.000000 0.000000 

-36.925869 -0.135329 0.000000 
0.000000 -44.861635 0.000000 
0.000000 0.000000 0.000000 

-0.149202 -0.022515 0.000000 
0.000000 -0.183022 0.000000 
0.000000 0.000000 0.000000 

-0.167355 -0.003652 0.000000 
0.000000 -0.198279 0.000000 
0.000000 0.000000 0.000000 

-0.152754 -0.001548 0.000000 
0.000000 -0.186332 0.000000 
0.000000 0.000000 0.000000 

0.000000 -0.000000 0.000000 
0.000000 0.000000 0.000000 
0.000000 0.000000 0.000000 

-0.000000 -0.000000 0.000000 
0.000000 -0.000000 0.000000 
0.000000 0.000000 0.000000 

0.000000 0.000000 0.000000 
0.000000 0.000000 0.000000 
0.000000 0.000000 0.000000 

-2442.205369 -0.848310 0.000000 
0.000000 -3007.962693 0.000000 
0.000000 0.000000 0.000000 

106.161913 -3.421573 0.000000 
0.000000 115.360777 0.000000 
0.000000 0.000000 0.000000 

-26.832674 -0.786302 0.000000 
0.000000 -36.633553 0.000000 
0.000000 0.000000 0.000000 

-35.470163 -0.786064 0.000000 
0.000000 -43.696316 0.000000 
0.000000 0.000000 0.000000 

-0.128138 -0.004426 0.000000 
0.000000 -0.182407 0.000000 
0.000000 0.000000 0.000000 

-0.133264 -0.002182 0.000000 
0.000000 -0.173181 0.000000 
0.000000 0.000000 0.000000 

-0.157270 -0.002182 0.000000 
0.000000 -0.192822 0.000000 
0.000000 0.000000 0.000000 

0.000000 0.000000 0.000000 
0.000000 0.000000 0.000000 
0.000000 0.000000 0.000000 

0.000000 -0.000000 0.000000 
0.000000 -0.000000 0.000000 
0.000000 0.000000 0.000000 

0.000000 -0.000000 0.000000 
0.000000 0.000000 0.000000 
0.000000 0.000000 0.000000 

-2442.205369 0.848310 0.000000 
0.000000 -3007.962693 0.000000 
0.000000 0.000000 0.000000 

106.161913 3.421573 0.000000 
0.000000 115.360777 0.000000 
0.000000 0.000000 0.000000 

-26.832674 0.786302 0.000000 
0.000000 -36.633553 0.000000 
0.000000 0.000000 0.000000 

-35.470163 0.786064 0.000000 
0.000000 -43.696316 0.000000 
0.000000 0.000000 0.000000 

-0.128138 0.004426 0.000000 
0.000000 -0.182407 0.000000 
0.000000 0.000000 0.000000 

-0.133264 0.002182 0.000000 
0.000000 -0.173181 0.000000 
0.000000 0.000000 0.000000 

-0.157270 0.002182 0.000000 
0.000000 -0.192822 0.000000 
0.000000 0.000000 0.000000 

0.000000 0.000000 0.000000 
0.000000 0.000000 0.000000 
0.000000 0.000000 0.000000 

0.000000 -0.000000 0.000000 
0.000000 0.000000 0.000000 
0.000000 0.000000 0.000000 

0.000000 0.000000 0.000000 
0.000000 -0.000000 0.000000 
0.000000 0.000000 0.000000 

-2541.917508 0.047571 0.000000 
0.000000 -3084.413961 0.000000 
0.000000 0.000000 0.000000 

35.732074 0.355814 0.000000 
0.000000 57.583055 0.000000 
0.000000 0.000000 0.000000 

-45.171490 0.154134 0.000000 
0.000000 -51.603940 0.000000 
0.000000 0.000000 0.000000 

-36.925869 0.135329 0.000000 
0.000000 -44.861635 0.000000 
0.000000 0.000000 0.000000 

-0.149202 0.022515 0.000000 
0.000000 -0.183022 0.000000 
0.000000 0.000000 0.000000 

-0.167355 0.003652 0.000000 
0.000000 -0.198279 0.000000 
0.000000 0.000000 0.000000 

-0.152754 0.001548 0.000000 
0.000000 -0.186332 0.000000 
0.000000 0.000000 0.000000 

0.000000 0.000000 0.000000 
0.000000 0.000000 0.000000 
0.000000 0.000000 0.000000 

-0.000000 -0.000000 0.000000 
0.000000 -0.000000 0.000000 
0.000000 0.000000 0.000000 

0.000000 -0.000000 0.000000 
0.000000 0.000000 0.000000 
0.000000 0.000000 0.000000 

-2378.350145 -0.598205 0.000000 
0.000000 -2958.878121 0.000000 
0.000000 0.000000 0.000000 

150.203461 -2.152312 0.000000 
0.000000 151.228563 0.000000 
0.000000 0.000000 0.000000 

-15.052829 -0.409440 0.000000 
0.000000 -26.945179 0.000000 
0.000000 0.000000 0.000000 

-34.362269 -0.418786 0.000000 
0.000000 -42.734254 0.000000 
0.000000 0.000000 0.000000 

0.010888 0.022873 0.000000 
0.000000 -0.032487 0.000000 
0.000000 0.000000 0.000000 

-0.086436 0.001780 0.000000 
0.000000 -0.128777 0.000000 
0.000000 0.000000 0.000000 

-0.140338 0.001194 0.000000 
0.000000 -0.172879 0.000000 
0.000000 0.000000 0.000000 

-0.000000 0.000000 0.000000 
0.000000 -0.000000 0.000000 
0.000000 0.000000 0.000000 

-0.000000 0.000000 0.000000 
0.000000 0.000000 0.000000 
0.000000 0.000000 0.000000 

0.000000 -0.000000 0.000000 
0.000000 0.000000 0.000000 
0.000000 0.000000 0.000000 

-2378.172994 3.241535 0.000000 
0.000000 -2958.661976 0.000000 
0.000000 0.000000 0.000000 

149.898798 13.299121 0.000000 
0.000000 150.856321 0.000000 
0.000000 0.000000 0.000000 

-15.009707 3.106232 0.000000 
0.000000 -26.892521 0.000000 
0.000000 0.000000 0.000000 

-34.319255 3.094372 0.000000 
0.000000 -42.681699 0.000000 
0.000000 0.000000 0.000000 

0.026135 0.033357 0.000000 
0.000000 -0.013851 0.000000 
0.000000 0.000000 0.000000 

-0.083798 0.011581 0.000000 
0.000000 -0.125553 0.000000 
0.000000 0.000000 0.000000 

-0.137700 0.010995 0.000000 
0.000000 -0.169655 0.000000 
0.000000 0.000000 0.000000 

-0.000000 0.000000 0.000000 
0.000000 -0.000000 0.000000 
0.000000 0.000000 0.000000 

-0.000000 0.000000 0.000000 
0.000000 -0.000000 0.000000 
0.000000 0.000000 0.000000 

-0.000000 -0.000000 0.000000 
0.000000 -0.000000 0.000000 
0.000000 0.000000 0.000000 

-2404.112967 6.559944 0.000000 
0.000000 -2978.563279 0.000000 
0.000000 0.000000 0.000000 

131.969593 26.440050 0.000000 
0.000000 136.211805 0.000000 
0.000000 0.000000 0.000000 

-19.712401 6.049875 0.000000 
0.000000 -30.769933 0.000000 
0.000000 0.000000 0.000000 

-34.764976 6.078462 0.000000 
0.000000 -43.078232 0.000000 
0.000000 0.000000 0.000000 

-0.003742 0.035847 0.000000 
0.000000 -0.045122 0.000000 
0.000000 0.000000 0.000000 

-0.099578 0.017978 0.000000 
0.000000 -0.139575 0.000000 
0.000000 0.000000 0.000000 

-0.141212 0.019223 0.000000 
0.000000 -0.173639 0.000000 
0.000000 0.000000 0.000000 

-0.000000 0.000000 0.000000 
0.000000 -0.000000 0.000000 
0.000000 0.000000 0.000000 

0.000000 0.000000 0.000000 
0.000000 -0.000000 0.000000 
0.000000 0.000000 0.000000 

-0.000000 0.000000 0.000000 
0.000000 0.000000 0.000000 
0.000000 0.000000 0.000000 

TENSORS STRAIN float 
0.003203 -0.001161 0.000000 
0.000000 -0.098501 0.000000 
0.000000 0.000000 0.000000 

0.001629 -0.003815 0.000000 
0.000000 0.002241 0.000000 
0.000000 0.000000 0.000000 

0.000436 -0.000878 0.000000 
0.000000 -0.001169 0.000000 
0.000000 0.000000 0.000000 

0.000038 -0.000883 0.000000 
0.000000 -0.001169 0.000000 
0.000000 0.000000 0.000000 

0.000003 -0.000005 0.000000 
0.000000 -0.000003 0.000000 
0.000000 0.000000 0.000000 

0.000001 -0.000003 0.000000 
0.000000 -0.000005 0.000000 
0.000000 0.000000 0.000000 

0.000000 -0.000003 0.000000 
0.000000 -0.000005 0.000000 
0.000000 0.000000 0.000000 

0.000000 0.000000 0.000000 
0.000000 -0.000000 0.000000 
0.000000 0.000000 0.000000 

0.000000 -0.000000 0.000000 
0.000000 -0.000000 0.000000 
0.000000 0.000000 0.000000 

0.000000 -0.000000 0.000000 
0.000000 -0.000000 0.000000 
0.000000 0.000000 0.000000 

0.004138 -0.000573 0.000000 
0.000000 -0.098501 0.000000 
0.000000 0.000000 0.000000 

0.002099 -0.001918 0.000000 
0.000000 0.002238 0.000000 
0.000000 0.000000 0.000000 

0.000558 -0.000451 0.000000 
0.000000 -0.001166 0.000000 
0.000000 0.000000 0.000000 

0.000048 -0.000449 0.000000 
0.000000 -0.001166 0.000000 
0.000000 0.000000 0.000000 

0.000003 -0.000005 0.000000 
0.000000 -0.000003 0.000000 
0.000000 0.000000 0.000000 

0.000002 -0.000002 0.000000 
0.000000 -0.000005 0.000000 
0.000000 0.000000 0.000000 

0.000000 -0.000002 0.000000 
0.000000 -0.000005 0.000000 
0.000000 0.000000 0.000000 

-0.000000 -0.000000 0.000000 
0.000000 0.000000 0.000000 
0.000000 0.000000 0.000000 

-0.000000 -0.000000 0.000000 
0.000000 0.000000 0.000000 
0.000000 0.000000 0.000000 

-0.000000 0.000000 0.000000 
0.000000 0.000000 0.000000 
0.000000 0.000000 0.000000 

0.004138 0.000106 0.000000 
0.000000 -0.098509 0.000000 
0.000000 0.000000 0.000000 

0.002099 0.000310 0.000000 
0.000000 0.002247 0.000000 
0.000000 0.000000 0.000000 

0.000558 0.000059 0.000000 
0.000000 -0.001168 0.000000 
0.000000 0.000000 0.000000 

0.000048 0.000061 0.000000 
0.000000 -0.001168 0.000000 
0.000000 0.000000 0.000000 

0.000003 -0.000003 0.000000 
0.000000 -0.000003 0.000000 
0.000000 0.000000 0.000000 

0.000002 -0.000000 0.000000 
0.000000 -0.000005 0.000000 
0.000000 0.000000 0.000000 

0.000000 -0.000000 0.000000 
0.000000 -0.000005 0.000000 
0.000000 0.000000 0.000000 

-0.000000 0.000000 0.000000 
0.000000 0.000000 0.000000 
0.000000 0.000000 0.000000 

-0.000000 0.000000 0.000000 
0.000000 0.000000 0.000000 
0.000000 0.000000 0.000000 

-0.000000 0.000000 0.000000 
0.000000 0.000000 0.000000 
0.000000 0.000000 0.000000 

-0.001795 -0.000008 0.000000 
0.000000 -0.098514 0.000000 
0.000000 0.000000 0.000000 

-0.000906 -0.000052 0.000000 
0.000000 0.002257 0.000000 
0.000000 0.000000 0.000000 

-0.000236 -0.000022 0.000000 
0.000000 -0.001170 0.000000 
0.000000 0.000000 0.000000 

-0.000018 -0.000020 0.000000 
0.000000 -0.001170 0.000000 
0.000000 0.000000 0.000000 

0.000000 -0.000003 0.000000 
0.000000 -0.000005 0.000000 
0.000000 0.000000 0.000000 

-0.000000 -0.000001 0.000000 
0.000000 -0.000005 0.000000 
0.000000 0.000000 0.000000 

-0.000000 -0.000000 0.000000 
0.000000 -0.000005 0.000000 
0.000000 0.000000 0.000000 

-0.000000 -0.000000 0.000000 
0.000000 0.000000 0.000000 
0.000000 0.000000 0.000000 

-0.000000 -0.000000 0.000000 
0.000000 0.000000 0.000000 
0.000000 0.000000 0.000000 

0.000000 0.000000 0.000000 
0.000000 0.000000 0.000000 
0.000000 0.000000 0.000000 

0.001840 -0.000150 0.000000 
0.000000 -0.098517 0.000000 
0.000000 0.000000 0.000000 

0.000935 -0.000494 0.000000 
0.000000 0.002264 0.000000 
0.000000 0.000000 0.000000 

0.000251 -0.000114 0.000000 
0.000000 -0.001172 0.000000 
0.000000 0.000000 0.000000 

0.000022 -0.000114 0.000000 
0.000000 -0.001172 0.000000 
0.000000 0.000000 0.000000 

0.000002 -0.000001 0.000000 
0.000000 -0.000006 0.000000 
0.000000 0.000000 0.000000 

0.000001 -0.000000 0.000000 
0.000000 -0.000005 0.000000 
0.000000 0.000000 0.000000 

0.000000 -0.000000 0.000000 
0.000000 -0.000005 0.000000 
0.000000 0.000000 0.000000 
