# vtk DataFile Version 3.0 
vtk output 
ASCII 
DATASET UNSTRUCTURED_GRID 
POINTS 100 float 
0.486285 -2.920808 0.000000 
0.467108 -2.838712 0.000000 
0.457952 -2.749851 0.000000 
0.455644 -2.650094 0.000000 
0.451744 -2.552344 0.000000 
0.450945 -2.452462 0.000000 
0.450652 -2.352462 0.000000 
0.450433 -2.252568 0.000000 
0.450253 -2.152648 0.000000 
0.450174 -2.052695 0.000000 
0.367602 -2.925203 0.000000 
0.360190 -2.845012 0.000000 
0.356545 -2.753446 0.000000 
0.354294 -2.651798 0.000000 
0.351430 -2.553033 0.000000 
0.350758 -2.452818 0.000000 
0.350488 -2.352642 0.000000 
0.350294 -2.252630 0.000000 
0.350168 -2.152676 0.000000 
0.350118 -2.052707 0.000000 
0.252760 -2.926358 0.000000 
0.256547 -2.846564 0.000000 
0.255885 -2.753545 0.000000 
0.252944 -2.652232 0.000000 
0.251369 -2.553670 0.000000 
0.250792 -2.453106 0.000000 
0.250456 -2.352758 0.000000 
0.250204 -2.252660 0.000000 
0.250111 -2.152678 0.000000 
0.250078 -2.052698 0.000000 
0.153601 -2.926504 0.000000 
0.153236 -2.846519 0.000000 
0.152499 -2.752673 0.000000 
0.151706 -2.651788 0.000000 
0.151059 -2.553356 0.000000 
0.150547 -2.452927 0.000000 
0.150290 -2.352663 0.000000 
0.150133 -2.252621 0.000000 
0.150078 -2.152641 0.000000 
0.150054 -2.052663 0.000000 
0.054508 -2.926444 0.000000 
0.050401 -2.846163 0.000000 
0.049725 -2.751834 0.000000 
0.050552 -2.651293 0.000000 
0.050512 -2.552953 0.000000 
0.050206 -2.452712 0.000000 
0.050093 -2.352557 0.000000 
0.050055 -2.252581 0.000000 
0.050038 -2.152608 0.000000 
0.050026 -2.052633 0.000000 
-0.054508 -2.926444 0.000000 
-0.050401 -2.846163 0.000000 
-0.049725 -2.751834 0.000000 
-0.050552 -2.651293 0.000000 
-0.050512 -2.552953 0.000000 
-0.050206 -2.452712 0.000000 
-0.050093 -2.352557 0.000000 
-0.050055 -2.252581 0.000000 
-0.050038 -2.152608 0.000000 
-0.050026 -2.052633 0.000000 
-0.153601 -2.926504 0.000000 
-0.153236 -2.846519 0.000000 
-0.152499 -2.752673 0.000000 
-0.151706 -2.651788 0.000000 
-0.151059 -2.553356 0.000000 
-0.150547 -2.452927 0.000000 
-0.150290 -2.352663 0.000000 
-0.150133 -2.252621 0.000000 
-0.150078 -2.152641 0.000000 
-0.150054 -2.052663 0.000000 
-0.252760 -2.926358 0.000000 
-0.256547 -2.846564 0.000000 
-0.255885 -2.753545 0.000000 
-0.252944 -2.652232 0.000000 
-0.251369 -2.553670 0.000000 
-0.250792 -2.453106 0.000000 
-0.250456 -2.352758 0.000000 
-0.250204 -2.252660 0.000000 
-0.250111 -2.152678 0.000000 
-0.250078 -2.052698 0.000000 
-0.367602 -2.925203 0.000000 
-0.360190 -2.845012 0.000000 
-0.356545 -2.753446 0.000000 
-0.354294 -2.651798 0.000000 
-0.351430 -2.553033 0.000000 
-0.350758 -2.452818 0.000000 
-0.350488 -2.352642 0.000000 
-0.350294 -2.252630 0.000000 
-0.350168 -2.152676 0.000000 
-0.350118 -2.052707 0.000000 
-0.486285 -2.920808 0.000000 
-0.467108 -2.838712 0.000000 
-0.457952 -2.749851 0.000000 
-0.455644 -2.650094 0.000000 
-0.451744 -2.552344 0.000000 
-0.450945 -2.452462 0.000000 
-0.450652 -2.352462 0.000000 
-0.450433 -2.252568 0.000000 
-0.450253 -2.152648 0.000000 
-0.450174 -2.052695 0.000000 
CELLS 100 200 
1 0 
1 1 
1 2 
1 3 
1 4 
1 5 
1 6 
1 7 
1 8 
1 9 
1 10 
1 11 
1 12 
1 13 
1 14 
1 15 
1 16 
1 17 
1 18 
1 19 
1 20 
1 21 
1 22 
1 23 
1 24 
1 25 
1 26 
1 27 
1 28 
1 29 
1 30 
1 31 
1 32 
1 33 
1 34 
1 35 
1 36 
1 37 
1 38 
1 39 
1 40 
1 41 
1 42 
1 43 
1 44 
1 45 
1 46 
1 47 
1 48 
1 49 
1 50 
1 51 
1 52 
1 53 
1 54 
1 55 
1 56 
1 57 
1 58 
1 59 
1 60 
1 61 
1 62 
1 63 
1 64 
1 65 
1 66 
1 67 
1 68 
1 69 
1 70 
1 71 
1 72 
1 73 
1 74 
1 75 
1 76 
1 77 
1 78 
1 79 
1 80 
1 81 
1 82 
1 83 
1 84 
1 85 
1 86 
1 87 
1 88 
1 89 
1 90 
1 91 
1 92 
1 93 
1 94 
1 95 
1 96 
1 97 
1 98 
1 99 
CELL_TYPES 100 
1 
1 
1 
1 
1 
1 
1 
1 
1 
1 
1 
1 
1 
1 
1 
1 
1 
1 
1 
1 
1 
1 
1 
1 
1 
1 
1 
1 
1 
1 
1 
1 
1 
1 
1 
1 
1 
1 
1 
1 
1 
1 
1 
1 
1 
1 
1 
1 
1 
1 
1 
1 
1 
1 
1 
1 
1 
1 
1 
1 
1 
1 
1 
1 
1 
1 
1 
1 
1 
1 
1 
1 
1 
1 
1 
1 
1 
1 
1 
1 
1 
1 
1 
1 
1 
1 
1 
1 
1 
1 
1 
1 
1 
1 
1 
1 
1 
1 
1 
1 
POINT_DATA 100 
VECTORS X_GC float 
0.486285 -2.920808 0.000000 
0.467108 -2.838712 0.000000 
0.457952 -2.749851 0.000000 
0.455644 -2.650094 0.000000 
0.451744 -2.552344 0.000000 
0.450945 -2.452462 0.000000 
0.450652 -2.352462 0.000000 
0.450433 -2.252568 0.000000 
0.450253 -2.152648 0.000000 
0.450174 -2.052695 0.000000 
0.367602 -2.925203 0.000000 
0.360190 -2.845012 0.000000 
0.356545 -2.753446 0.000000 
0.354294 -2.651798 0.000000 
0.351430 -2.553033 0.000000 
0.350758 -2.452818 0.000000 
0.350488 -2.352642 0.000000 
0.350294 -2.252630 0.000000 
0.350168 -2.152676 0.000000 
0.350118 -2.052707 0.000000 
0.252760 -2.926358 0.000000 
0.256547 -2.846564 0.000000 
0.255885 -2.753545 0.000000 
0.252944 -2.652232 0.000000 
0.251369 -2.553670 0.000000 
0.250792 -2.453106 0.000000 
0.250456 -2.352758 0.000000 
0.250204 -2.252660 0.000000 
0.250111 -2.152678 0.000000 
0.250078 -2.052698 0.000000 
0.153601 -2.926504 0.000000 
0.153236 -2.846519 0.000000 
0.152499 -2.752673 0.000000 
0.151706 -2.651788 0.000000 
0.151059 -2.553356 0.000000 
0.150547 -2.452927 0.000000 
0.150290 -2.352663 0.000000 
0.150133 -2.252621 0.000000 
0.150078 -2.152641 0.000000 
0.150054 -2.052663 0.000000 
0.054508 -2.926444 0.000000 
0.050401 -2.846163 0.000000 
0.049725 -2.751834 0.000000 
0.050552 -2.651293 0.000000 
0.050512 -2.552953 0.000000 
0.050206 -2.452712 0.000000 
0.050093 -2.352557 0.000000 
0.050055 -2.252581 0.000000 
0.050038 -2.152608 0.000000 
0.050026 -2.052633 0.000000 
-0.054508 -2.926444 0.000000 
-0.050401 -2.846163 0.000000 
-0.049725 -2.751834 0.000000 
-0.050552 -2.651293 0.000000 
-0.050512 -2.552953 0.000000 
-0.050206 -2.452712 0.000000 
-0.050093 -2.352557 0.000000 
-0.050055 -2.252581 0.000000 
-0.050038 -2.152608 0.000000 
-0.050026 -2.052633 0.000000 
-0.153601 -2.926504 0.000000 
-0.153236 -2.846519 0.000000 
-0.152499 -2.752673 0.000000 
-0.151706 -2.651788 0.000000 
-0.151059 -2.553356 0.000000 
-0.150547 -2.452927 0.000000 
-0.150290 -2.352663 0.000000 
-0.150133 -2.252621 0.000000 
-0.150078 -2.152641 0.000000 
-0.150054 -2.052663 0.000000 
-0.252760 -2.926358 0.000000 
-0.256547 -2.846564 0.000000 
-0.255885 -2.753545 0.000000 
-0.252944 -2.652232 0.000000 
-0.251369 -2.553670 0.000000 
-0.250792 -2.453106 0.000000 
-0.250456 -2.352758 0.000000 
-0.250204 -2.252660 0.000000 
-0.250111 -2.152678 0.000000 
-0.250078 -2.052698 0.000000 
-0.367602 -2.925203 0.000000 
-0.360190 -2.845012 0.000000 
-0.356545 -2.753446 0.000000 
-0.354294 -2.651798 0.000000 
-0.351430 -2.553033 0.000000 
-0.350758 -2.452818 0.000000 
-0.350488 -2.352642 0.000000 
-0.350294 -2.252630 0.000000 
-0.350168 -2.152676 0.000000 
-0.350118 -2.052707 0.000000 
-0.486285 -2.920808 0.000000 
-0.467108 -2.838712 0.000000 
-0.457952 -2.749851 0.000000 
-0.455644 -2.650094 0.000000 
-0.451744 -2.552344 0.000000 
-0.450945 -2.452462 0.000000 
-0.450652 -2.352462 0.000000 
-0.450433 -2.252568 0.000000 
-0.450253 -2.152648 0.000000 
-0.450174 -2.052695 0.000000 
VECTORS X_EC float 
-0.321706 -0.069094 0.000000 
-0.072401 0.822610 0.000000 
0.046618 -0.377008 0.000000 
0.076629 0.276276 0.000000 
0.127324 0.956647 0.000000 
0.137713 -0.391766 0.000000 
0.141525 0.258242 0.000000 
0.144374 0.909671 0.000000 
0.146714 -0.439257 0.000000 
0.147732 0.211376 0.000000 
-0.778823 -0.009760 0.000000 
-0.682464 0.907662 0.000000 
-0.635083 -0.328480 0.000000 
-0.605818 0.299267 0.000000 
-0.568595 0.965943 0.000000 
-0.559860 -0.386953 0.000000 
-0.556338 0.260664 0.000000 
-0.553818 0.910509 0.000000 
-0.552188 -0.438880 0.000000 
-0.551533 0.211548 0.000000 
0.714115 0.005838 0.000000 
0.664885 0.928613 0.000000 
0.673493 -0.327137 0.000000 
0.711730 0.305138 0.000000 
0.732201 0.974541 0.000000 
0.739702 -0.383072 0.000000 
0.744067 0.262228 0.000000 
0.747352 0.910908 0.000000 
0.748561 -0.438849 0.000000 
0.748992 0.211418 0.000000 
0.003182 0.007807 0.000000 
0.007936 0.928006 0.000000 
0.017509 -0.338913 0.000000 
0.027817 0.299141 0.000000 
0.036232 0.970311 0.000000 
0.042889 -0.385491 0.000000 
0.046233 0.260954 0.000000 
0.048270 0.910384 0.000000 
0.048990 -0.439344 0.000000 
0.049295 0.210950 0.000000 
-0.708599 0.006991 0.000000 
-0.655219 0.923198 0.000000 
-0.646423 -0.350235 0.000000 
-0.657178 0.292455 0.000000 
-0.656652 0.964861 0.000000 
-0.652680 -0.388384 0.000000 
-0.651215 0.259524 0.000000 
-0.650716 0.909840 0.000000 
-0.650488 -0.439798 0.000000 
-0.650339 0.210550 0.000000 
0.708599 0.006991 0.000000 
0.655219 0.923198 0.000000 
0.646423 -0.350235 0.000000 
0.657178 0.292455 0.000000 
0.656652 0.964861 0.000000 
0.652680 -0.388384 0.000000 
0.651215 0.259524 0.000000 
0.650716 0.909840 0.000000 
0.650488 -0.439798 0.000000 
0.650339 0.210550 0.000000 
-0.003182 0.007807 0.000000 
-0.007936 0.928006 0.000000 
-0.017509 -0.338913 0.000000 
-0.027817 0.299141 0.000000 
-0.036232 0.970311 0.000000 
-0.042889 -0.385491 0.000000 
-0.046233 0.260954 0.000000 
-0.048270 0.910384 0.000000 
-0.048990 -0.439344 0.000000 
-0.049295 0.210950 0.000000 
-0.714115 0.005838 0.000000 
-0.664885 0.928613 0.000000 
-0.673493 -0.327137 0.000000 
-0.711730 0.305138 0.000000 
-0.732201 0.974541 0.000000 
-0.739702 -0.383072 0.000000 
-0.744067 0.262228 0.000000 
-0.747352 0.910908 0.000000 
-0.748561 -0.438849 0.000000 
-0.748992 0.211418 0.000000 
0.778823 -0.009760 0.000000 
0.682464 0.907662 0.000000 
0.635083 -0.328480 0.000000 
0.605818 0.299267 0.000000 
0.568595 0.965943 0.000000 
0.559860 -0.386953 0.000000 
0.556338 0.260664 0.000000 
0.553818 0.910509 0.000000 
0.552188 -0.438880 0.000000 
0.551533 0.211548 0.000000 
0.321706 -0.069094 0.000000 
0.072401 0.822610 0.000000 
-0.046618 -0.377008 0.000000 
-0.076629 0.276276 0.000000 
-0.127324 0.956647 0.000000 
-0.137713 -0.391766 0.000000 
-0.141525 0.258242 0.000000 
-0.144374 0.909671 0.000000 
-0.146714 -0.439257 0.000000 
-0.147732 0.211376 0.000000 
CELL_DATA 100 
SCALARS MASS float 
LOOKUP_TABLE default 
10.000000 
10.000000 
10.000000 
10.000000 
10.000000 
10.000000 
10.000000 
10.000000 
10.000000 
10.000000 
10.000000 
10.000000 
10.000000 
10.000000 
10.000000 
10.000000 
10.000000 
10.000000 
10.000000 
10.000000 
10.000000 
10.000000 
10.000000 
10.000000 
10.000000 
10.000000 
10.000000 
10.000000 
10.000000 
10.000000 
10.000000 
10.000000 
10.000000 
10.000000 
10.000000 
10.000000 
10.000000 
10.000000 
10.000000 
10.000000 
10.000000 
10.000000 
10.000000 
10.000000 
10.000000 
10.000000 
10.000000 
10.000000 
10.000000 
10.000000 
10.000000 
10.000000 
10.000000 
10.000000 
10.000000 
10.000000 
10.000000 
10.000000 
10.000000 
10.000000 
10.000000 
10.000000 
10.000000 
10.000000 
10.000000 
10.000000 
10.000000 
10.000000 
10.000000 
10.000000 
10.000000 
10.000000 
10.000000 
10.000000 
10.000000 
10.000000 
10.000000 
10.000000 
10.000000 
10.000000 
10.000000 
10.000000 
10.000000 
10.000000 
10.000000 
10.000000 
10.000000 
10.000000 
10.000000 
10.000000 
10.000000 
10.000000 
10.000000 
10.000000 
10.000000 
10.000000 
10.000000 
10.000000 
10.000000 
10.000000 
SCALARS MASS float 
LOOKUP_TABLE default 
10.000000 
10.000000 
10.000000 
10.000000 
10.000000 
10.000000 
10.000000 
10.000000 
10.000000 
10.000000 
10.000000 
10.000000 
10.000000 
10.000000 
10.000000 
10.000000 
10.000000 
10.000000 
10.000000 
10.000000 
10.000000 
10.000000 
10.000000 
10.000000 
10.000000 
10.000000 
10.000000 
10.000000 
10.000000 
10.000000 
10.000000 
10.000000 
10.000000 
10.000000 
10.000000 
10.000000 
10.000000 
10.000000 
10.000000 
10.000000 
10.000000 
10.000000 
10.000000 
10.000000 
10.000000 
10.000000 
10.000000 
10.000000 
10.000000 
10.000000 
10.000000 
10.000000 
10.000000 
10.000000 
10.000000 
10.000000 
10.000000 
10.000000 
10.000000 
10.000000 
10.000000 
10.000000 
10.000000 
10.000000 
10.000000 
10.000000 
10.000000 
10.000000 
10.000000 
10.000000 
10.000000 
10.000000 
10.000000 
10.000000 
10.000000 
10.000000 
10.000000 
10.000000 
10.000000 
10.000000 
10.000000 
10.000000 
10.000000 
10.000000 
10.000000 
10.000000 
10.000000 
10.000000 
10.000000 
10.000000 
10.000000 
10.000000 
10.000000 
10.000000 
10.000000 
10.000000 
10.000000 
10.000000 
10.000000 
10.000000 
SCALARS DENSITY float 
LOOKUP_TABLE default 
362408.968759 
636.242461 
1790.766100 
953.360240 
1004.289001 
1015.886740 
1005.180459 
1005.240318 
1004.489277 
1000.917681 
479675.312624 
704.932224 
1876.846055 
908.322650 
993.742852 
1008.019087 
1003.602356 
1004.462719 
1003.702250 
1000.662376 
591665.627324 
618.598262 
1718.509937 
918.881707 
992.580246 
1002.813982 
1001.858086 
1004.367246 
1003.422569 
1000.626473 
22108757.377245 
1267.168361 
1304.655960 
859.174519 
1015.394529 
1017.513683 
1010.998734 
1010.836804 
1006.838969 
1002.457182 
1817593.909463 
688.060243 
1545.716536 
970.416287 
1004.876897 
1000.789739 
1003.847037 
1006.979672 
1005.399760 
1001.055101 
1817593.909463 
688.060243 
1545.716536 
970.416287 
1004.876897 
1000.789739 
1003.847037 
1006.979672 
1005.399760 
1001.055101 
22108757.377244 
1267.168361 
1304.655960 
859.174519 
1015.394529 
1017.513683 
1010.998734 
1010.836804 
1006.838969 
1002.457182 
591665.627324 
618.598262 
1718.509937 
918.881707 
992.580246 
1002.813982 
1001.858086 
1004.367246 
1003.422569 
1000.626473 
479675.312624 
704.932224 
1876.846055 
908.322650 
993.742852 
1008.019087 
1003.602356 
1004.462719 
1003.702250 
1000.662376 
362408.968759 
636.242461 
1790.766100 
953.360240 
1004.289001 
1015.886740 
1005.180459 
1005.240318 
1004.489277 
1000.917681 
SCALARS ELEM_i float 
LOOKUP_TABLE default 
81 
82 
82 
83 
84 
84 
85 
86 
86 
87 
108 
109 
109 
110 
111 
111 
112 
113 
113 
114 
108 
109 
109 
110 
111 
111 
112 
113 
113 
114 
135 
136 
136 
137 
138 
138 
139 
140 
140 
141 
162 
163 
163 
164 
165 
165 
166 
167 
167 
168 
162 
163 
163 
164 
165 
165 
166 
167 
167 
168 
189 
190 
190 
191 
192 
192 
193 
194 
194 
195 
216 
217 
217 
218 
219 
219 
220 
221 
221 
222 
216 
217 
217 
218 
219 
219 
220 
221 
221 
222 
243 
244 
244 
245 
246 
246 
247 
248 
248 
249 
VECTORS VELOCITY float 
3.336369 -9.952577 0.000000 
-1.514361 -0.464142 0.000000 
2.485672 -5.773851 0.000000 
2.258165 -4.467839 0.000000 
-0.405736 -7.547112 0.000000 
0.051091 -6.996363 0.000000 
0.159618 -6.821311 0.000000 
0.069792 -6.982247 0.000000 
0.064179 -6.909761 0.000000 
0.045330 -6.919311 0.000000 
0.869544 -13.509024 0.000000 
-0.217475 -4.546756 0.000000 
1.558426 -7.284412 0.000000 
0.934953 -4.923268 0.000000 
-0.215818 -7.844616 0.000000 
0.038024 -7.191096 0.000000 
0.078050 -6.935566 0.000000 
0.027667 -7.016846 0.000000 
0.030709 -6.929779 0.000000 
0.024561 -6.931449 0.000000 
-0.005301 -12.883249 0.000000 
2.487433 -3.819993 0.000000 
0.727852 -6.749401 0.000000 
-0.340736 -5.145524 0.000000 
0.274721 -8.205220 0.000000 
0.249792 -7.323307 0.000000 
0.129382 -6.993476 0.000000 
0.047278 -7.032396 0.000000 
0.033659 -6.931478 0.000000 
0.027321 -6.928214 0.000000 
0.419443 -12.627290 0.000000 
0.214447 -3.503641 0.000000 
0.091775 -6.658804 0.000000 
0.229433 -5.329282 0.000000 
0.267950 -8.067316 0.000000 
0.097703 -7.270681 0.000000 
0.033049 -7.002590 0.000000 
0.022347 -7.038739 0.000000 
0.023221 -6.918879 0.000000 
0.016992 -6.915777 0.000000 
0.517941 -12.476390 0.000000 
-1.659783 -3.367818 0.000000 
-0.109657 -6.698663 0.000000 
0.658831 -5.452121 0.000000 
0.109394 -7.874997 0.000000 
-0.051731 -7.199689 0.000000 
-0.041440 -7.000722 0.000000 
-0.002441 -7.041766 0.000000 
0.008609 -6.907169 0.000000 
0.004647 -6.905084 0.000000 
-0.517941 -12.476390 0.000000 
1.659783 -3.367818 0.000000 
0.109657 -6.698663 0.000000 
-0.658831 -5.452121 0.000000 
-0.109394 -7.874997 0.000000 
0.051731 -7.199689 0.000000 
0.041440 -7.000722 0.000000 
0.002441 -7.041766 0.000000 
-0.008609 -6.907169 0.000000 
-0.004647 -6.905084 0.000000 
-0.419443 -12.627290 0.000000 
-0.214447 -3.503641 0.000000 
-0.091775 -6.658804 0.000000 
-0.229433 -5.329282 0.000000 
-0.267950 -8.067316 0.000000 
-0.097703 -7.270681 0.000000 
-0.033049 -7.002590 0.000000 
-0.022347 -7.038739 0.000000 
-0.023221 -6.918879 0.000000 
-0.016992 -6.915777 0.000000 
0.005301 -12.883249 0.000000 
-2.487433 -3.819993 0.000000 
-0.727852 -6.749401 0.000000 
0.340736 -5.145524 0.000000 
-0.274721 -8.205220 0.000000 
-0.249792 -7.323307 0.000000 
-0.129382 -6.993476 0.000000 
-0.047278 -7.032396 0.000000 
-0.033659 -6.931478 0.000000 
-0.027321 -6.928214 0.000000 
-0.869544 -13.509024 0.000000 
0.217475 -4.546756 0.000000 
-1.558426 -7.284412 0.000000 
-0.934953 -4.923268 0.000000 
0.215818 -7.844616 0.000000 
-0.038024 -7.191096 0.000000 
-0.078050 -6.935566 0.000000 
-0.027667 -7.016846 0.000000 
-0.030709 -6.929779 0.000000 
-0.024561 -6.931449 0.000000 
-3.336369 -9.952577 0.000000 
1.514361 -0.464142 0.000000 
-2.485672 -5.773851 0.000000 
-2.258165 -4.467839 0.000000 
0.405736 -7.547112 0.000000 
-0.051091 -6.996363 0.000000 
-0.159618 -6.821311 0.000000 
-0.069792 -6.982247 0.000000 
-0.064179 -6.909761 0.000000 
-0.045330 -6.919311 0.000000 
TENSORS STRESS float 
-32.306502 -2.018018 0.000000 
0.000000 -46.165314 0.000000 
0.000000 0.000000 0.000000 

1387.223989 -1071.279744 0.000000 
0.000000 -280.572147 0.000000 
0.000000 0.000000 0.000000 

-1307.424206 -85.988837 0.000000 
0.000000 -1691.032673 0.000000 
0.000000 0.000000 0.000000 

242.733966 -35.810643 0.000000 
0.000000 224.440914 0.000000 
0.000000 0.000000 0.000000 

22.500989 -42.029304 0.000000 
0.000000 -44.075206 0.000000 
0.000000 0.000000 0.000000 

-61.712169 -49.354351 0.000000 
0.000000 -107.191508 0.000000 
0.000000 0.000000 0.000000 

49.183476 -6.111812 0.000000 
0.000000 40.593692 0.000000 
0.000000 0.000000 0.000000 

1.429230 -8.949948 0.000000 
0.000000 -15.425978 0.000000 
0.000000 0.000000 0.000000 

-6.471227 -9.021926 0.000000 
0.000000 -17.322380 0.000000 
0.000000 0.000000 0.000000 

4.184817 -2.349068 0.000000 
0.000000 -1.291613 0.000000 
0.000000 0.000000 0.000000 

-28.333665 -0.543371 0.000000 
0.000000 -38.822173 0.000000 
0.000000 0.000000 0.000000 

28.190020 -356.565028 0.000000 
0.000000 -1136.085371 0.000000 
0.000000 0.000000 0.000000 

-1303.739808 -60.712119 0.000000 
0.000000 -1599.327472 0.000000 
0.000000 0.000000 0.000000 

669.398220 -166.539277 0.000000 
0.000000 742.154511 0.000000 
0.000000 0.000000 0.000000 

79.913308 -33.813407 0.000000 
0.000000 35.357266 0.000000 
0.000000 0.000000 0.000000 

-21.608549 -35.077030 0.000000 
0.000000 -43.832685 0.000000 
0.000000 0.000000 0.000000 

49.475230 -8.629064 0.000000 
0.000000 50.218396 0.000000 
0.000000 0.000000 0.000000 

5.428935 -7.577680 0.000000 
0.000000 -9.173854 0.000000 
0.000000 0.000000 0.000000 

0.051145 -7.611179 0.000000 
0.000000 -9.044540 0.000000 
0.000000 0.000000 0.000000 

5.660961 -2.557549 0.000000 
0.000000 0.438874 0.000000 
0.000000 0.000000 0.000000 

-24.016250 0.474471 0.000000 
0.000000 -32.765219 0.000000 
0.000000 0.000000 0.000000 

940.653616 306.669388 0.000000 
0.000000 -184.676189 0.000000 
0.000000 0.000000 0.000000 

-1175.629222 9.159347 0.000000 
0.000000 -1442.590174 0.000000 
0.000000 0.000000 0.000000 

604.087743 -175.751348 0.000000 
0.000000 662.793455 0.000000 
0.000000 0.000000 0.000000 

137.958913 -13.620989 0.000000 
0.000000 106.169231 0.000000 
0.000000 0.000000 0.000000 

46.080671 -15.804620 0.000000 
0.000000 38.788021 0.000000 
0.000000 0.000000 0.000000 

70.613354 -11.461808 0.000000 
0.000000 76.040154 0.000000 
0.000000 0.000000 0.000000 

10.809293 -4.497339 0.000000 
0.000000 -2.599097 0.000000 
0.000000 0.000000 0.000000 

5.995409 -5.200559 0.000000 
0.000000 -1.781676 0.000000 
0.000000 0.000000 0.000000 

6.572206 -1.545911 0.000000 
0.000000 1.552486 0.000000 
0.000000 0.000000 0.000000 

-0.938195 0.000755 0.000000 
0.000000 -1.121119 0.000000 
0.000000 0.000000 0.000000 

-598.073121 -55.146673 0.000000 
0.000000 -842.560363 0.000000 
0.000000 0.000000 0.000000 

-319.033230 -99.126881 0.000000 
0.000000 -822.006476 0.000000 
0.000000 0.000000 0.000000 

1117.698356 -134.422927 0.000000 
0.000000 1025.718270 0.000000 
0.000000 0.000000 0.000000 

61.991575 -52.261557 0.000000 
0.000000 33.574542 0.000000 
0.000000 0.000000 0.000000 

52.810667 -37.011732 0.000000 
0.000000 42.753303 0.000000 
0.000000 0.000000 0.000000 

62.184154 -22.705684 0.000000 
0.000000 59.798208 0.000000 
0.000000 0.000000 0.000000 

-17.546380 -7.819676 0.000000 
0.000000 -27.686234 0.000000 
0.000000 0.000000 0.000000 

-13.082430 -5.793621 0.000000 
0.000000 -18.675026 0.000000 
0.000000 0.000000 0.000000 

-6.426476 -2.874797 0.000000 
0.000000 -9.356448 0.000000 
0.000000 0.000000 0.000000 

-9.022460 -0.090952 0.000000 
0.000000 -11.687122 0.000000 
0.000000 0.000000 0.000000 

398.249286 -200.838179 0.000000 
0.000000 -195.164328 0.000000 
0.000000 0.000000 0.000000 

-1189.763459 -40.955086 0.000000 
0.000000 -1414.165769 0.000000 
0.000000 0.000000 0.000000 

185.946660 34.288048 0.000000 
0.000000 198.669837 0.000000 
0.000000 0.000000 0.000000 

249.178076 -13.295422 0.000000 
0.000000 172.591872 0.000000 
0.000000 0.000000 0.000000 

166.545311 -12.547021 0.000000 
0.000000 129.504773 0.000000 
0.000000 0.000000 0.000000 

90.188411 -6.069102 0.000000 
0.000000 72.877106 0.000000 
0.000000 0.000000 0.000000 

4.268449 -1.759771 0.000000 
0.000000 -12.050046 0.000000 
0.000000 0.000000 0.000000 

0.070732 -1.404342 0.000000 
0.000000 -9.527361 0.000000 
0.000000 0.000000 0.000000 

6.357641 -0.486042 0.000000 
0.000000 0.779074 0.000000 
0.000000 0.000000 0.000000 

-9.022460 0.090952 0.000000 
0.000000 -11.687122 0.000000 
0.000000 0.000000 0.000000 

398.249286 200.838179 0.000000 
0.000000 -195.164328 0.000000 
0.000000 0.000000 0.000000 

-1189.763459 40.955086 0.000000 
0.000000 -1414.165769 0.000000 
0.000000 0.000000 0.000000 

185.946660 -34.288048 0.000000 
0.000000 198.669837 0.000000 
0.000000 0.000000 0.000000 

249.178076 13.295422 0.000000 
0.000000 172.591872 0.000000 
0.000000 0.000000 0.000000 

166.545311 12.547021 0.000000 
0.000000 129.504773 0.000000 
0.000000 0.000000 0.000000 

90.188411 6.069102 0.000000 
0.000000 72.877106 0.000000 
0.000000 0.000000 0.000000 

4.268449 1.759771 0.000000 
0.000000 -12.050046 0.000000 
0.000000 0.000000 0.000000 

0.070732 1.404342 0.000000 
0.000000 -9.527361 0.000000 
0.000000 0.000000 0.000000 

6.357641 0.486042 0.000000 
0.000000 0.779074 0.000000 
0.000000 0.000000 0.000000 

-0.938195 -0.000755 0.000000 
0.000000 -1.121119 0.000000 
0.000000 0.000000 0.000000 

-598.073121 55.146673 0.000000 
0.000000 -842.560363 0.000000 
0.000000 0.000000 0.000000 

-319.033230 99.126881 0.000000 
0.000000 -822.006476 0.000000 
0.000000 0.000000 0.000000 

1117.698356 134.422927 0.000000 
0.000000 1025.718270 0.000000 
0.000000 0.000000 0.000000 

61.991575 52.261557 0.000000 
0.000000 33.574542 0.000000 
0.000000 0.000000 0.000000 

52.810667 37.011732 0.000000 
0.000000 42.753303 0.000000 
0.000000 0.000000 0.000000 

62.184154 22.705684 0.000000 
0.000000 59.798208 0.000000 
0.000000 0.000000 0.000000 

-17.546380 7.819676 0.000000 
0.000000 -27.686234 0.000000 
0.000000 0.000000 0.000000 

-13.082430 5.793621 0.000000 
0.000000 -18.675026 0.000000 
0.000000 0.000000 0.000000 

-6.426476 2.874797 0.000000 
0.000000 -9.356448 0.000000 
0.000000 0.000000 0.000000 

-24.016250 -0.474471 0.000000 
0.000000 -32.765219 0.000000 
0.000000 0.000000 0.000000 

940.653616 -306.669388 0.000000 
0.000000 -184.676189 0.000000 
0.000000 0.000000 0.000000 

-1175.629222 -9.159347 0.000000 
0.000000 -1442.590174 0.000000 
0.000000 0.000000 0.000000 

604.087743 175.751348 0.000000 
0.000000 662.793455 0.000000 
0.000000 0.000000 0.000000 

137.958913 13.620989 0.000000 
0.000000 106.169231 0.000000 
0.000000 0.000000 0.000000 

46.080671 15.804620 0.000000 
0.000000 38.788021 0.000000 
0.000000 0.000000 0.000000 

70.613354 11.461808 0.000000 
0.000000 76.040154 0.000000 
0.000000 0.000000 0.000000 

10.809293 4.497339 0.000000 
0.000000 -2.599097 0.000000 
0.000000 0.000000 0.000000 

5.995409 5.200559 0.000000 
0.000000 -1.781676 0.000000 
0.000000 0.000000 0.000000 

6.572206 1.545911 0.000000 
0.000000 1.552486 0.000000 
0.000000 0.000000 0.000000 

-28.333665 0.543371 0.000000 
0.000000 -38.822173 0.000000 
0.000000 0.000000 0.000000 

28.190020 356.565028 0.000000 
0.000000 -1136.085371 0.000000 
0.000000 0.000000 0.000000 

-1303.739808 60.712119 0.000000 
0.000000 -1599.327472 0.000000 
0.000000 0.000000 0.000000 

669.398220 166.539277 0.000000 
0.000000 742.154511 0.000000 
0.000000 0.000000 0.000000 

79.913308 33.813407 0.000000 
0.000000 35.357266 0.000000 
0.000000 0.000000 0.000000 

-21.608549 35.077030 0.000000 
0.000000 -43.832685 0.000000 
0.000000 0.000000 0.000000 

49.475230 8.629064 0.000000 
0.000000 50.218396 0.000000 
0.000000 0.000000 0.000000 

5.428935 7.577680 0.000000 
0.000000 -9.173854 0.000000 
0.000000 0.000000 0.000000 

0.051145 7.611179 0.000000 
0.000000 -9.044540 0.000000 
0.000000 0.000000 0.000000 

5.660961 2.557549 0.000000 
0.000000 0.438874 0.000000 
0.000000 0.000000 0.000000 

-32.306502 2.018018 0.000000 
0.000000 -46.165314 0.000000 
0.000000 0.000000 0.000000 

1387.223989 1071.279744 0.000000 
0.000000 -280.572147 0.000000 
0.000000 0.000000 0.000000 

-1307.424206 85.988837 0.000000 
0.000000 -1691.032673 0.000000 
0.000000 0.000000 0.000000 

242.733966 35.810643 0.000000 
0.000000 224.440914 0.000000 
0.000000 0.000000 0.000000 

22.500989 42.029304 0.000000 
0.000000 -44.075206 0.000000 
0.000000 0.000000 0.000000 

-61.712169 49.354351 0.000000 
0.000000 -107.191508 0.000000 
0.000000 0.000000 0.000000 

49.183476 6.111812 0.000000 
0.000000 40.593692 0.000000 
0.000000 0.000000 0.000000 

1.429230 8.949948 0.000000 
0.000000 -15.425978 0.000000 
0.000000 0.000000 0.000000 

-6.471227 9.021926 0.000000 
0.000000 -17.322380 0.000000 
0.000000 0.000000 0.000000 

4.184817 2.349068 0.000000 
0.000000 -1.291613 0.000000 
0.000000 0.000000 0.000000 

TENSORS STRAIN float 
0.157953 -0.106045 0.000000 
0.000000 -0.570317 0.000000 
0.000000 0.000000 0.000000 

0.082036 -0.098831 0.000000 
0.000000 -0.071827 0.000000 
0.000000 0.000000 0.000000 

0.010875 -0.022328 0.000000 
0.000000 -0.088733 0.000000 
0.000000 0.000000 0.000000 

0.004493 -0.004950 0.000000 
0.000000 0.001965 0.000000 
0.000000 0.000000 0.000000 

0.004690 -0.006120 0.000000 
0.000000 -0.005005 0.000000 
0.000000 0.000000 0.000000 

0.002106 -0.007270 0.000000 
0.000000 -0.004594 0.000000 
0.000000 0.000000 0.000000 

0.001280 -0.000891 0.000000 
0.000000 0.000028 0.000000 
0.000000 0.000000 0.000000 

0.001126 -0.001305 0.000000 
0.000000 -0.001330 0.000000 
0.000000 0.000000 0.000000 

0.000617 -0.001314 0.000000 
0.000000 -0.000964 0.000000 
0.000000 0.000000 0.000000 

0.000418 -0.000341 0.000000 
0.000000 -0.000376 0.000000 
0.000000 0.000000 0.000000 

0.131209 -0.037793 0.000000 
0.000000 -0.598297 0.000000 
0.000000 0.000000 0.000000 

0.053841 -0.036446 0.000000 
0.000000 -0.065165 0.000000 
0.000000 0.000000 0.000000 

0.000719 -0.016522 0.000000 
0.000000 -0.079723 0.000000 
0.000000 0.000000 0.000000 

0.004504 -0.021934 0.000000 
0.000000 0.014087 0.000000 
0.000000 0.000000 0.000000 

0.004041 -0.004872 0.000000 
0.000000 -0.002380 0.000000 
0.000000 0.000000 0.000000 

0.001146 -0.005127 0.000000 
0.000000 -0.002102 0.000000 
0.000000 0.000000 0.000000 

0.000671 -0.001256 0.000000 
0.000000 0.000779 0.000000 
0.000000 0.000000 0.000000 

0.001036 -0.001104 0.000000 
0.000000 -0.001091 0.000000 
0.000000 0.000000 0.000000 

0.000596 -0.001108 0.000000 
0.000000 -0.000727 0.000000 
0.000000 0.000000 0.000000 

0.000423 -0.000371 0.000000 
0.000000 -0.000335 0.000000 
0.000000 0.000000 0.000000 

0.131725 0.040706 0.000000 
0.000000 -0.618862 0.000000 
0.000000 0.000000 0.000000 

0.053860 0.027507 0.000000 
0.000000 -0.047079 0.000000 
0.000000 0.000000 0.000000 

0.000640 0.002282 0.000000 
0.000000 -0.065882 0.000000 
0.000000 0.000000 0.000000 

0.004529 -0.023417 0.000000 
0.000000 0.012351 0.000000 
0.000000 0.000000 0.000000 

0.004044 -0.001960 0.000000 
0.000000 -0.000531 0.000000 
0.000000 0.000000 0.000000 

0.001147 -0.002298 0.000000 
0.000000 0.000087 0.000000 
0.000000 0.000000 0.000000 

0.000671 -0.001665 0.000000 
0.000000 0.001459 0.000000 
0.000000 0.000000 0.000000 

0.001036 -0.000655 0.000000 
0.000000 -0.000917 0.000000 
0.000000 0.000000 0.000000 

0.000596 -0.000757 0.000000 
0.000000 -0.000535 0.000000 
0.000000 0.000000 0.000000 

0.000423 -0.000224 0.000000 
0.000000 -0.000305 0.000000 
0.000000 0.000000 0.000000 

-0.036877 0.002420 0.000000 
0.000000 -0.623292 0.000000 
0.000000 0.000000 0.000000 

0.009226 -0.010133 0.000000 
0.000000 -0.035696 0.000000 
0.000000 0.000000 0.000000 

0.036782 -0.018752 0.000000 
0.000000 -0.058368 0.000000 
0.000000 0.000000 0.000000 

0.019081 -0.016746 0.000000 
0.000000 0.007622 0.000000 
0.000000 0.000000 0.000000 

0.002795 -0.007695 0.000000 
0.000000 -0.001388 0.000000 
0.000000 0.000000 0.000000 

0.001447 -0.005461 0.000000 
0.000000 -0.000037 0.000000 
0.000000 0.000000 0.000000 

0.001069 -0.003329 0.000000 
0.000000 0.000719 0.000000 
0.000000 0.000000 0.000000 

0.000412 -0.001146 0.000000 
0.000000 -0.001075 0.000000 
0.000000 0.000000 0.000000 

0.000176 -0.000846 0.000000 
0.000000 -0.000640 0.000000 
0.000000 0.000000 0.000000 

0.000098 -0.000418 0.000000 
0.000000 -0.000328 0.000000 
0.000000 0.000000 0.000000 

0.078236 -0.023970 0.000000 
0.000000 -0.624039 0.000000 
0.000000 0.000000 0.000000 

0.030615 -0.020037 0.000000 
0.000000 -0.028589 0.000000 
0.000000 0.000000 0.000000 

-0.004033 -0.009179 0.000000 
0.000000 -0.054328 0.000000 
0.000000 0.000000 0.000000 

0.001811 0.004825 0.000000 
0.000000 0.003601 0.000000 
0.000000 0.000000 0.000000 

0.008652 -0.001937 0.000000 
0.000000 -0.002507 0.000000 
0.000000 0.000000 0.000000 

0.004836 -0.001821 0.000000 
0.000000 -0.000540 0.000000 