# vtk DataFile Version 3.0 
vtk output 
ASCII 
DATASET UNSTRUCTURED_GRID 
POINTS 100 float 
0.478486 -2.907536 0.000000 
0.463445 -2.815373 0.000000 
0.452190 -2.725763 0.000000 
0.451640 -2.623655 0.000000 
0.451040 -2.522799 0.000000 
0.450440 -2.423258 0.000000 
0.450269 -2.323348 0.000000 
0.450143 -2.223459 0.000000 
0.450048 -2.123584 0.000000 
0.450029 -2.023606 0.000000 
0.363298 -2.909088 0.000000 
0.357141 -2.817245 0.000000 
0.352421 -2.726978 0.000000 
0.351465 -2.624200 0.000000 
0.350757 -2.522941 0.000000 
0.350298 -2.423302 0.000000 
0.350167 -2.323370 0.000000 
0.350081 -2.223469 0.000000 
0.350028 -2.123586 0.000000 
0.350016 -2.023607 0.000000 
0.249944 -2.910062 0.000000 
0.252697 -2.818080 0.000000 
0.253420 -2.726519 0.000000 
0.251544 -2.624010 0.000000 
0.250519 -2.522950 0.000000 
0.250193 -2.423298 0.000000 
0.250089 -2.323361 0.000000 
0.250032 -2.223461 0.000000 
0.250011 -2.123582 0.000000 
0.250006 -2.023604 0.000000 
0.152237 -2.910526 0.000000 
0.151901 -2.818313 0.000000 
0.151349 -2.725655 0.000000 
0.150789 -2.623501 0.000000 
0.150408 -2.522735 0.000000 
0.150168 -2.423203 0.000000 
0.150085 -2.323308 0.000000 
0.150034 -2.223439 0.000000 
0.150011 -2.123575 0.000000 
0.150007 -2.023599 0.000000 
0.054348 -2.910803 0.000000 
0.051244 -2.818380 0.000000 
0.049520 -2.724945 0.000000 
0.050059 -2.623071 0.000000 
0.050227 -2.522539 0.000000 
0.050106 -2.423118 0.000000 
0.050061 -2.323262 0.000000 
0.050028 -2.223419 0.000000 
0.050010 -2.123568 0.000000 
0.050006 -2.023594 0.000000 
-0.054348 -2.910803 0.000000 
-0.051244 -2.818380 0.000000 
-0.049520 -2.724945 0.000000 
-0.050059 -2.623071 0.000000 
-0.050227 -2.522539 0.000000 
-0.050106 -2.423118 0.000000 
-0.050061 -2.323262 0.000000 
-0.050028 -2.223419 0.000000 
-0.050010 -2.123568 0.000000 
-0.050006 -2.023594 0.000000 
-0.152237 -2.910526 0.000000 
-0.151901 -2.818313 0.000000 
-0.151349 -2.725655 0.000000 
-0.150789 -2.623501 0.000000 
-0.150408 -2.522735 0.000000 
-0.150168 -2.423203 0.000000 
-0.150085 -2.323308 0.000000 
-0.150034 -2.223439 0.000000 
-0.150011 -2.123575 0.000000 
-0.150007 -2.023599 0.000000 
-0.249944 -2.910062 0.000000 
-0.252697 -2.818080 0.000000 
-0.253420 -2.726519 0.000000 
-0.251544 -2.624010 0.000000 
-0.250519 -2.522950 0.000000 
-0.250193 -2.423298 0.000000 
-0.250089 -2.323361 0.000000 
-0.250032 -2.223461 0.000000 
-0.250011 -2.123582 0.000000 
-0.250006 -2.023604 0.000000 
-0.363298 -2.909088 0.000000 
-0.357141 -2.817245 0.000000 
-0.352421 -2.726978 0.000000 
-0.351465 -2.624200 0.000000 
-0.350757 -2.522941 0.000000 
-0.350298 -2.423302 0.000000 
-0.350167 -2.323370 0.000000 
-0.350081 -2.223469 0.000000 
-0.350028 -2.123586 0.000000 
-0.350016 -2.023607 0.000000 
-0.478486 -2.907536 0.000000 
-0.463445 -2.815373 0.000000 
-0.452190 -2.725763 0.000000 
-0.451640 -2.623655 0.000000 
-0.451040 -2.522799 0.000000 
-0.450440 -2.423258 0.000000 
-0.450269 -2.323348 0.000000 
-0.450143 -2.223459 0.000000 
-0.450048 -2.123584 0.000000 
-0.450029 -2.023606 0.000000 
CELLS 100 200 
1 0 
1 1 
1 2 
1 3 
1 4 
1 5 
1 6 
1 7 
1 8 
1 9 
1 10 
1 11 
1 12 
1 13 
1 14 
1 15 
1 16 
1 17 
1 18 
1 19 
1 20 
1 21 
1 22 
1 23 
1 24 
1 25 
1 26 
1 27 
1 28 
1 29 
1 30 
1 31 
1 32 
1 33 
1 34 
1 35 
1 36 
1 37 
1 38 
1 39 
1 40 
1 41 
1 42 
1 43 
1 44 
1 45 
1 46 
1 47 
1 48 
1 49 
1 50 
1 51 
1 52 
1 53 
1 54 
1 55 
1 56 
1 57 
1 58 
1 59 
1 60 
1 61 
1 62 
1 63 
1 64 
1 65 
1 66 
1 67 
1 68 
1 69 
1 70 
1 71 
1 72 
1 73 
1 74 
1 75 
1 76 
1 77 
1 78 
1 79 
1 80 
1 81 
1 82 
1 83 
1 84 
1 85 
1 86 
1 87 
1 88 
1 89 
1 90 
1 91 
1 92 
1 93 
1 94 
1 95 
1 96 
1 97 
1 98 
1 99 
CELL_TYPES 100 
1 
1 
1 
1 
1 
1 
1 
1 
1 
1 
1 
1 
1 
1 
1 
1 
1 
1 
1 
1 
1 
1 
1 
1 
1 
1 
1 
1 
1 
1 
1 
1 
1 
1 
1 
1 
1 
1 
1 
1 
1 
1 
1 
1 
1 
1 
1 
1 
1 
1 
1 
1 
1 
1 
1 
1 
1 
1 
1 
1 
1 
1 
1 
1 
1 
1 
1 
1 
1 
1 
1 
1 
1 
1 
1 
1 
1 
1 
1 
1 
1 
1 
1 
1 
1 
1 
1 
1 
1 
1 
1 
1 
1 
1 
1 
1 
1 
1 
1 
1 
POINT_DATA 100 
VECTORS X_GC float 
0.478486 -2.907536 0.000000 
0.463445 -2.815373 0.000000 
0.452190 -2.725763 0.000000 
0.451640 -2.623655 0.000000 
0.451040 -2.522799 0.000000 
0.450440 -2.423258 0.000000 
0.450269 -2.323348 0.000000 
0.450143 -2.223459 0.000000 
0.450048 -2.123584 0.000000 
0.450029 -2.023606 0.000000 
0.363298 -2.909088 0.000000 
0.357141 -2.817245 0.000000 
0.352421 -2.726978 0.000000 
0.351465 -2.624200 0.000000 
0.350757 -2.522941 0.000000 
0.350298 -2.423302 0.000000 
0.350167 -2.323370 0.000000 
0.350081 -2.223469 0.000000 
0.350028 -2.123586 0.000000 
0.350016 -2.023607 0.000000 
0.249944 -2.910062 0.000000 
0.252697 -2.818080 0.000000 
0.253420 -2.726519 0.000000 
0.251544 -2.624010 0.000000 
0.250519 -2.522950 0.000000 
0.250193 -2.423298 0.000000 
0.250089 -2.323361 0.000000 
0.250032 -2.223461 0.000000 
0.250011 -2.123582 0.000000 
0.250006 -2.023604 0.000000 
0.152237 -2.910526 0.000000 
0.151901 -2.818313 0.000000 
0.151349 -2.725655 0.000000 
0.150789 -2.623501 0.000000 
0.150408 -2.522735 0.000000 
0.150168 -2.423203 0.000000 
0.150085 -2.323308 0.000000 
0.150034 -2.223439 0.000000 
0.150011 -2.123575 0.000000 
0.150007 -2.023599 0.000000 
0.054348 -2.910803 0.000000 
0.051244 -2.818380 0.000000 
0.049520 -2.724945 0.000000 
0.050059 -2.623071 0.000000 
0.050227 -2.522539 0.000000 
0.050106 -2.423118 0.000000 
0.050061 -2.323262 0.000000 
0.050028 -2.223419 0.000000 
0.050010 -2.123568 0.000000 
0.050006 -2.023594 0.000000 
-0.054348 -2.910803 0.000000 
-0.051244 -2.818380 0.000000 
-0.049520 -2.724945 0.000000 
-0.050059 -2.623071 0.000000 
-0.050227 -2.522539 0.000000 
-0.050106 -2.423118 0.000000 
-0.050061 -2.323262 0.000000 
-0.050028 -2.223419 0.000000 
-0.050010 -2.123568 0.000000 
-0.050006 -2.023594 0.000000 
-0.152237 -2.910526 0.000000 
-0.151901 -2.818313 0.000000 
-0.151349 -2.725655 0.000000 
-0.150789 -2.623501 0.000000 
-0.150408 -2.522735 0.000000 
-0.150168 -2.423203 0.000000 
-0.150085 -2.323308 0.000000 
-0.150034 -2.223439 0.000000 
-0.150011 -2.123575 0.000000 
-0.150007 -2.023599 0.000000 
-0.249944 -2.910062 0.000000 
-0.252697 -2.818080 0.000000 
-0.253420 -2.726519 0.000000 
-0.251544 -2.624010 0.000000 
-0.250519 -2.522950 0.000000 
-0.250193 -2.423298 0.000000 
-0.250089 -2.323361 0.000000 
-0.250032 -2.223461 0.000000 
-0.250011 -2.123582 0.000000 
-0.250006 -2.023604 0.000000 
-0.363298 -2.909088 0.000000 
-0.357141 -2.817245 0.000000 
-0.352421 -2.726978 0.000000 
-0.351465 -2.624200 0.000000 
-0.350757 -2.522941 0.000000 
-0.350298 -2.423302 0.000000 
-0.350167 -2.323370 0.000000 
-0.350081 -2.223469 0.000000 
-0.350028 -2.123586 0.000000 
-0.350016 -2.023607 0.000000 
-0.478486 -2.907536 0.000000 
-0.463445 -2.815373 0.000000 
-0.452190 -2.725763 0.000000 
-0.451640 -2.623655 0.000000 
-0.451040 -2.522799 0.000000 
-0.450440 -2.423258 0.000000 
-0.450269 -2.323348 0.000000 
-0.450143 -2.223459 0.000000 
-0.450048 -2.123584 0.000000 
-0.450029 -2.023606 0.000000 
VECTORS X_EC float 
-0.220312 -0.248266 0.000000 
-0.024784 0.507529 0.000000 
0.121524 -0.702201 0.000000 
0.128681 -0.080659 0.000000 
0.136478 0.557782 0.000000 
0.144284 -0.786017 0.000000 
0.146497 -0.134809 0.000000 
0.148146 0.516703 0.000000 
0.149376 -0.831619 0.000000 
0.149623 -0.181317 0.000000 
-0.722872 -0.227317 0.000000 
-0.642836 0.532803 0.000000 
-0.581476 -0.685791 0.000000 
-0.569042 -0.073306 0.000000 
-0.559836 0.559707 0.000000 
-0.553868 -0.785418 0.000000 
-0.552169 -0.134502 0.000000 
-0.551057 0.516827 0.000000 
-0.550358 -0.831591 0.000000 
-0.550213 -0.181304 0.000000 
0.750724 -0.214163 0.000000 
0.714941 0.544079 0.000000 
0.705538 -0.691988 0.000000 
0.729933 -0.075869 0.000000 
0.743253 0.559823 0.000000 
0.747485 -0.785481 0.000000 
0.748839 -0.134630 0.000000 
0.749588 0.516728 0.000000 
0.749863 -0.831638 0.000000 
0.749925 -0.181343 0.000000 
0.020921 -0.207905 0.000000 
0.025287 0.547230 0.000000 
0.032465 -0.703653 0.000000 
0.039742 -0.082742 0.000000 
0.044698 0.556926 0.000000 
0.047816 -0.786761 0.000000 
0.048899 -0.135341 0.000000 
0.049564 0.516421 0.000000 
0.049855 -0.831744 0.000000 
0.049915 -0.181416 0.000000 
-0.706523 -0.204156 0.000000 
-0.666167 0.548124 0.000000 
-0.643756 -0.713236 0.000000 
-0.650761 -0.088535 0.000000 
-0.652949 0.554275 0.000000 
-0.651380 -0.787909 0.000000 
-0.650795 -0.135963 0.000000 
-0.650370 0.516161 0.000000 
-0.650124 -0.831832 0.000000 
-0.650077 -0.181476 0.000000 
0.706523 -0.204156 0.000000 
0.666167 0.548124 0.000000 
0.643756 -0.713236 0.000000 
0.650761 -0.088535 0.000000 
0.652949 0.554275 0.000000 
0.651380 -0.787909 0.000000 
0.650795 -0.135963 0.000000 
0.650370 0.516161 0.000000 
0.650124 -0.831832 0.000000 
0.650077 -0.181476 0.000000 
-0.020921 -0.207905 0.000000 
-0.025287 0.547230 0.000000 
-0.032465 -0.703653 0.000000 
-0.039742 -0.082742 0.000000 
-0.044698 0.556926 0.000000 
-0.047816 -0.786761 0.000000 
-0.048899 -0.135341 0.000000 
-0.049564 0.516421 0.000000 
-0.049855 -0.831744 0.000000 
-0.049915 -0.181416 0.000000 
-0.750724 -0.214163 0.000000 
-0.714941 0.544079 0.000000 
-0.705538 -0.691988 0.000000 
-0.729933 -0.075869 0.000000 
-0.743253 0.559823 0.000000 
-0.747485 -0.785481 0.000000 
-0.748839 -0.134630 0.000000 
-0.749588 0.516728 0.000000 
-0.749863 -0.831638 0.000000 
-0.749925 -0.181343 0.000000 
0.722872 -0.227317 0.000000 
0.642836 0.532803 0.000000 
0.581476 -0.685791 0.000000 
0.569042 -0.073306 0.000000 
0.559836 0.559707 0.000000 
0.553868 -0.785418 0.000000 
0.552169 -0.134502 0.000000 
0.551057 0.516827 0.000000 
0.550358 -0.831591 0.000000 
0.550213 -0.181304 0.000000 
0.220312 -0.248266 0.000000 
0.024784 0.507529 0.000000 
-0.121524 -0.702201 0.000000 
-0.128681 -0.080659 0.000000 
-0.136478 0.557782 0.000000 
-0.144284 -0.786017 0.000000 
-0.146497 -0.134809 0.000000 
-0.148146 0.516703 0.000000 
-0.149376 -0.831619 0.000000 
-0.149623 -0.181317 0.000000 
CELL_DATA 100 
SCALARS MASS float 
LOOKUP_TABLE default 
10.000000 
10.000000 
10.000000 
10.000000 
10.000000 
10.000000 
10.000000 
10.000000 
10.000000 
10.000000 
10.000000 
10.000000 
10.000000 
10.000000 
10.000000 
10.000000 
10.000000 
10.000000 
10.000000 
10.000000 
10.000000 
10.000000 
10.000000 
10.000000 
10.000000 
10.000000 
10.000000 
10.000000 
10.000000 
10.000000 
10.000000 
10.000000 
10.000000 
10.000000 
10.000000 
10.000000 
10.000000 
10.000000 
10.000000 
10.000000 
10.000000 
10.000000 
10.000000 
10.000000 
10.000000 
10.000000 
10.000000 
10.000000 
10.000000 
10.000000 
10.000000 
10.000000 
10.000000 
10.000000 
10.000000 
10.000000 
10.000000 
10.000000 
10.000000 
10.000000 
10.000000 
10.000000 
10.000000 
10.000000 
10.000000 
10.000000 
10.000000 
10.000000 
10.000000 
10.000000 
10.000000 
10.000000 
10.000000 
10.000000 
10.000000 
10.000000 
10.000000 
10.000000 
10.000000 
10.000000 
10.000000 
10.000000 
10.000000 
10.000000 
10.000000 
10.000000 
10.000000 
10.000000 
10.000000 
10.000000 
10.000000 
10.000000 
10.000000 
10.000000 
10.000000 
10.000000 
10.000000 
10.000000 
10.000000 
10.000000 
SCALARS MASS float 
LOOKUP_TABLE default 
10.000000 
10.000000 
10.000000 
10.000000 
10.000000 
10.000000 
10.000000 
10.000000 
10.000000 
10.000000 
10.000000 
10.000000 
10.000000 
10.000000 
10.000000 
10.000000 
10.000000 
10.000000 
10.000000 
10.000000 
10.000000 
10.000000 
10.000000 
10.000000 
10.000000 
10.000000 
10.000000 
10.000000 
10.000000 
10.000000 
10.000000 
10.000000 
10.000000 
10.000000 
10.000000 
10.000000 
10.000000 
10.000000 
10.000000 
10.000000 
10.000000 
10.000000 
10.000000 
10.000000 
10.000000 
10.000000 
10.000000 
10.000000 
10.000000 
10.000000 
10.000000 
10.000000 
10.000000 
10.000000 
10.000000 
10.000000 
10.000000 
10.000000 
10.000000 
10.000000 
10.000000 
10.000000 
10.000000 
10.000000 
10.000000 
10.000000 
10.000000 
10.000000 
10.000000 
10.000000 
10.000000 
10.000000 
10.000000 
10.000000 
10.000000 
10.000000 
10.000000 
10.000000 
10.000000 
10.000000 
10.000000 
10.000000 
10.000000 
10.000000 
10.000000 
10.000000 
10.000000 
10.000000 
10.000000 
10.000000 
10.000000 
10.000000 
10.000000 
10.000000 
10.000000 
10.000000 
10.000000 
10.000000 
10.000000 
10.000000 
SCALARS DENSITY float 
LOOKUP_TABLE default 
22908.799862 
691.089869 
1145.044582 
1023.614460 
1002.927568 
1006.237462 
1007.017857 
1001.843520 
1000.932394 
1000.505263 
21646.630201 
690.002912 
1163.402957 
1016.479849 
1001.162225 
1004.813241 
1006.390086 
1001.696231 
1000.866512 
1000.472178 
22685.280897 
664.822278 
1146.012085 
1019.704267 
1003.589265 
1005.285433 
1006.469701 
1001.814897 
1000.910278 
1000.491258 
102341.844428 
1031.087669 
1113.481899 
1013.434550 
1013.862795 
1013.287139 
1010.129754 
1003.357069 
1001.451539 
1000.749778 
37231.884528 
728.868528 
1120.745502 
1031.935662 
1015.236330 
1009.275626 
1008.220242 
1002.560743 
1001.246842 
1000.630410 
37231.884528 
728.868528 
1120.745502 
1031.935662 
1015.236330 
1009.275626 
1008.220242 
1002.560743 
1001.246842 
1000.630410 
102341.844428 
1031.087669 
1113.481899 
1013.434550 
1013.862795 
1013.287139 
1010.129754 
1003.357069 
1001.451539 
1000.749778 
22685.280897 
664.822278 
1146.012085 
1019.704267 
1003.589265 
1005.285433 
1006.469701 
1001.814897 
1000.910278 
1000.491258 
21646.630201 
690.002912 
1163.402957 
1016.479849 
1001.162225 
1004.813241 
1006.390086 
1001.696231 
1000.866512 
1000.472178 
22908.799862 
691.089869 
1145.044582 
1023.614460 
1002.927568 
1006.237462 
1007.017857 
1001.843520 
1000.932394 
1000.505263 
SCALARS ELEM_i float 
LOOKUP_TABLE default 
81 
82 
82 
83 
84 
84 
85 
86 
86 
87 
108 
109 
109 
110 
111 
111 
112 
113 
113 
114 
108 
109 
109 
110 
111 
111 
112 
113 
113 
114 
135 
136 
136 
137 
138 
138 
139 
140 
140 
141 
162 
163 
163 
164 
165 
165 
166 
167 
167 
168 
162 
163 
163 
164 
165 
165 
166 
167 
167 
168 
189 
190 
190 
191 
192 
192 
193 
194 
194 
195 
216 
217 
217 
218 
219 
219 
220 
221 
221 
222 
216 
217 
217 
218 
219 
219 
220 
221 
221 
222 
243 
244 
244 
245 
246 
246 
247 
248 
248 
249 
VECTORS VELOCITY float 
5.136939 -8.725771 0.000000 
0.114038 0.096667 0.000000 
0.110413 -9.561718 0.000000 
0.621411 -7.010908 0.000000 
0.210906 -6.678054 0.000000 
0.096903 -6.960380 0.000000 
0.101983 -6.870946 0.000000 
0.065364 -6.890314 0.000000 
0.021336 -6.938491 0.000000 
0.014657 -6.940897 0.000000 
1.198464 -10.380501 0.000000 
-0.018735 -1.488565 0.000000 
0.631849 -10.253122 0.000000 
0.444040 -7.315020 0.000000 
0.102827 -6.777913 0.000000 
0.059259 -6.990733 0.000000 
0.047025 -6.890933 0.000000 
0.025238 -6.900805 0.000000 
0.008862 -6.940851 0.000000 
0.006104 -6.942228 0.000000 
-0.595502 -10.565171 0.000000 
1.672389 -1.581840 0.000000 
1.541145 -9.781166 0.000000 
0.384378 -7.221879 0.000000 
0.062208 -6.853896 0.000000 
0.080785 -6.988542 0.000000 
0.030846 -6.885290 0.000000 
0.005059 -6.898425 0.000000 
0.002751 -6.938828 0.000000 
0.001321 -6.940398 0.000000 
0.584759 -10.703421 0.000000 
0.424501 -1.636324 0.000000 
0.181367 -9.405111 0.000000 
0.158876 -7.098804 0.000000 
0.140079 -6.829900 0.000000 
0.073650 -6.940699 0.000000 
0.036856 -6.859777 0.000000 
0.013504 -6.891017 0.000000 
0.005596 -6.935079 0.000000 
0.003505 -6.937370 0.000000 
1.257742 -10.795199 0.000000 
-0.721162 -1.670527 0.000000 
-0.776395 -9.151324 0.000000 
-0.021319 -7.003708 0.000000 
0.141450 -6.794650 0.000000 
0.041242 -6.897689 0.000000 
0.029334 -6.837671 0.000000 
0.016030 -6.884727 0.000000 
0.006003 -6.932038 0.000000 
0.004104 -6.934948 0.000000 
-1.257742 -10.795199 0.000000 
0.721162 -1.670527 0.000000 
0.776395 -9.151324 0.000000 
0.021319 -7.003708 0.000000 
-0.141450 -6.794650 0.000000 
-0.041242 -6.897689 0.000000 
-0.029334 -6.837671 0.000000 
-0.016030 -6.884727 0.000000 
-0.006003 -6.932038 0.000000 
-0.004104 -6.934948 0.000000 
-0.584759 -10.703421 0.000000 
-0.424501 -1.636324 0.000000 
-0.181367 -9.405111 0.000000 
-0.158876 -7.098804 0.000000 
-0.140079 -6.829900 0.000000 
-0.073650 -6.940699 0.000000 
-0.036856 -6.859777 0.000000 
-0.013504 -6.891017 0.000000 
-0.005596 -6.935079 0.000000 
-0.003505 -6.937370 0.000000 
0.595502 -10.565171 0.000000 
-1.672389 -1.581840 0.000000 
-1.541145 -9.781166 0.000000 
-0.384378 -7.221879 0.000000 
-0.062208 -6.853896 0.000000 
-0.080785 -6.988542 0.000000 
-0.030846 -6.885290 0.000000 
-0.005059 -6.898425 0.000000 
-0.002751 -6.938828 0.000000 
-0.001321 -6.940398 0.000000 
-1.198464 -10.380501 0.000000 
0.018735 -1.488565 0.000000 
-0.631849 -10.253122 0.000000 
-0.444040 -7.315020 0.000000 
-0.102827 -6.777913 0.000000 
-0.059259 -6.990733 0.000000 
-0.047025 -6.890933 0.000000 
-0.025238 -6.900805 0.000000 
-0.008862 -6.940851 0.000000 
-0.006104 -6.942228 0.000000 
-5.136939 -8.725771 0.000000 
-0.114038 0.096667 0.000000 
-0.110413 -9.561718 0.000000 
-0.621411 -7.010908 0.000000 
-0.210906 -6.678054 0.000000 
-0.096903 -6.960380 0.000000 
-0.101983 -6.870946 0.000000 
-0.065364 -6.890314 0.000000 
-0.021336 -6.938491 0.000000 
-0.014657 -6.940897 0.000000 
TENSORS STRESS float 
-389.482818 -20.109103 0.000000 
0.000000 -552.539534 0.000000 
0.000000 0.000000 0.000000 

1968.267159 -1217.166041 0.000000 
0.000000 1029.551177 0.000000 
0.000000 0.000000 0.000000 

-1210.194384 -246.823766 0.000000 
0.000000 -1533.803182 0.000000 
0.000000 0.000000 0.000000 

314.614761 1.989031 0.000000 
0.000000 363.619560 0.000000 
0.000000 0.000000 0.000000 

-2.080041 -28.159684 0.000000 
0.000000 -34.196643 0.000000 
0.000000 0.000000 0.000000 

-24.944926 -22.300246 0.000000 
0.000000 -47.851222 0.000000 
0.000000 0.000000 0.000000 

-22.218590 -9.896730 0.000000 
0.000000 -36.738110 0.000000 
0.000000 0.000000 0.000000 

-16.788283 -4.147045 0.000000 
0.000000 -25.432467 0.000000 
0.000000 0.000000 0.000000 

-13.363338 -2.625933 0.000000 
0.000000 -18.048844 0.000000 
0.000000 0.000000 0.000000 

-3.425597 -0.832561 0.000000 
0.000000 -5.151743 0.000000 
0.000000 0.000000 0.000000 

-422.487455 -7.832840 0.000000 
0.000000 -596.119288 0.000000 
0.000000 0.000000 0.000000 

1524.333556 -524.188453 0.000000 
0.000000 648.128755 0.000000 
0.000000 0.000000 0.000000 

-1396.417696 -151.846925 0.000000 
0.000000 -1658.310709 0.000000 
0.000000 0.000000 0.000000 

355.873338 -55.158518 0.000000 
0.000000 453.408301 0.000000 
0.000000 0.000000 0.000000 

14.475023 -33.987000 0.000000 
0.000000 -14.264009 0.000000 
0.000000 0.000000 0.000000 

-11.286955 -19.907009 0.000000 
0.000000 -31.960774 0.000000 
0.000000 0.000000 0.000000 

-17.156822 -7.973699 0.000000 
0.000000 -31.050619 0.000000 
0.000000 0.000000 0.000000 

-15.067415 -3.404483 0.000000 
0.000000 -23.840482 0.000000 
0.000000 0.000000 0.000000 

-12.436001 -1.978900 0.000000 
0.000000 -17.147316 0.000000 
0.000000 0.000000 0.000000 

-2.943148 -0.674563 0.000000 
0.000000 -4.704988 0.000000 
0.000000 0.000000 0.000000 

-415.683758 5.632789 0.000000 
0.000000 -584.270253 0.000000 
0.000000 0.000000 0.000000 

2071.454687 181.092300 0.000000 
0.000000 1268.204666 0.000000 
0.000000 0.000000 0.000000 

-1245.346971 -5.683164 0.000000 
0.000000 -1471.886979 0.000000 
0.000000 0.000000 0.000000 

325.638124 -88.077856 0.000000 
0.000000 416.213258 0.000000 
0.000000 0.000000 0.000000 

0.340015 -27.709660 0.000000 
0.000000 -31.458976 0.000000 
0.000000 0.000000 0.000000 

-14.751882 -14.237564 0.000000 
0.000000 -36.186518 0.000000 
0.000000 0.000000 0.000000 

-16.334167 -4.518679 0.000000 
0.000000 -30.044129 0.000000 
0.000000 0.000000 0.000000 

-16.235656 -1.779807 0.000000 
0.000000 -25.267536 0.000000 
0.000000 0.000000 0.000000 

-13.043249 -1.025293 0.000000 
0.000000 -17.889391 0.000000 
0.000000 0.000000 0.000000 

-3.066145 -0.327839 0.000000 
0.000000 -4.855290 0.000000 
0.000000 0.000000 0.000000 

-151.476776 0.217873 0.000000 
0.000000 -178.583629 0.000000 
0.000000 0.000000 0.000000 

-927.016708 -22.579161 0.000000 
0.000000 -923.380847 0.000000 
0.000000 0.000000 0.000000 

-493.499391 -70.148746 0.000000 
0.000000 -811.825244 0.000000 
0.000000 0.000000 0.000000 

576.526117 -70.400387 0.000000 
0.000000 588.250990 0.000000 
0.000000 0.000000 0.000000 

-64.623620 -29.880332 0.000000 
0.000000 -102.404121 0.000000 
0.000000 0.000000 0.000000 

-82.497926 -13.465293 0.000000 
0.000000 -100.342294 0.000000 
0.000000 0.000000 0.000000 

-50.394235 -6.515620 0.000000 
0.000000 -60.856015 0.000000 
0.000000 0.000000 0.000000 

-34.839120 -2.599167 0.000000 
0.000000 -42.062369 0.000000 
0.000000 0.000000 0.000000 

-20.655122 -1.146358 0.000000 
0.000000 -25.041923 0.000000 
0.000000 0.000000 0.000000 

-6.611956 -0.439123 0.000000 
0.000000 -7.961750 0.000000 
0.000000 0.000000 0.000000 

-306.898532 -2.121313 0.000000 
0.000000 -402.178346 0.000000 
0.000000 0.000000 0.000000 

1485.654758 -181.012377 0.000000 
0.000000 1095.025438 0.000000 
0.000000 0.000000 0.000000 

-864.471895 -51.185593 0.000000 
0.000000 -1073.646237 0.000000 
0.000000 0.000000 0.000000 

266.667409 5.533075 0.000000 
0.000000 304.137399 0.000000 
0.000000 0.000000 0.000000 

-65.349881 -3.534578 0.000000 
0.000000 -118.372928 0.000000 
0.000000 0.000000 0.000000 

-43.062626 -2.798237 0.000000 
0.000000 -76.079196 0.000000 
0.000000 0.000000 0.000000 

-25.030973 -2.500727 0.000000 
0.000000 -42.925241 0.000000 
0.000000 0.000000 0.000000 

-23.890707 -0.853406 0.000000 
0.000000 -34.475371 0.000000 
0.000000 0.000000 0.000000 

-18.098336 -0.495238 0.000000 
0.000000 -23.749333 0.000000 
0.000000 0.000000 0.000000 

-4.446756 -0.137698 0.000000 
0.000000 -6.368243 0.000000 
0.000000 0.000000 0.000000 

-306.898532 2.121313 0.000000 
0.000000 -402.178346 0.000000 
0.000000 0.000000 0.000000 

1485.654758 181.012377 0.000000 
0.000000 1095.025438 0.000000 
0.000000 0.000000 0.000000 

-864.471895 51.185593 0.000000 
0.000000 -1073.646237 0.000000 
0.000000 0.000000 0.000000 

266.667409 -5.533075 0.000000 
0.000000 304.137399 0.000000 
0.000000 0.000000 0.000000 

-65.349881 3.534578 0.000000 
0.000000 -118.372928 0.000000 
0.000000 0.000000 0.000000 

-43.062626 2.798237 0.000000 
0.000000 -76.079196 0.000000 
0.000000 0.000000 0.000000 

-25.030973 2.500727 0.000000 
0.000000 -42.925241 0.000000 
0.000000 0.000000 0.000000 

-23.890707 0.853406 0.000000 
0.000000 -34.475371 0.000000 
0.000000 0.000000 0.000000 

-18.098336 0.495238 0.000000 
0.000000 -23.749333 0.000000 
0.000000 0.000000 0.000000 

-4.446756 0.137698 0.000000 
0.000000 -6.368243 0.000000 
0.000000 0.000000 0.000000 

-151.476776 -0.217873 0.000000 
0.000000 -178.583629 0.000000 
0.000000 0.000000 0.000000 

-927.016708 22.579161 0.000000 
0.000000 -923.380847 0.000000 
0.000000 0.000000 0.000000 

-493.499391 70.148746 0.000000 
0.000000 -811.825244 0.000000 
0.000000 0.000000 0.000000 

576.526117 70.400387 0.000000 
0.000000 588.250990 0.000000 
0.000000 0.000000 0.000000 

-64.623620 29.880332 0.000000 
0.000000 -102.404121 0.000000 
0.000000 0.000000 0.000000 

-82.497926 13.465293 0.000000 
0.000000 -100.342294 0.000000 
0.000000 0.000000 0.000000 

-50.394235 6.515620 0.000000 
0.000000 -60.856015 0.000000 
0.000000 0.000000 0.000000 

-34.839120 2.599167 0.000000 
0.000000 -42.062369 0.000000 
0.000000 0.000000 0.000000 

-20.655122 1.146358 0.000000 
0.000000 -25.041923 0.000000 
0.000000 0.000000 0.000000 

-6.611956 0.439123 0.000000 
0.000000 -7.961750 0.000000 
0.000000 0.000000 0.000000 

-415.683758 -5.632789 0.000000 
0.000000 -584.270253 0.000000 
0.000000 0.000000 0.000000 

2071.454687 -181.092300 0.000000 
0.000000 1268.204666 0.000000 
0.000000 0.000000 0.000000 

-1245.346971 5.683164 0.000000 
0.000000 -1471.886979 0.000000 
0.000000 0.000000 0.000000 

325.638124 88.077856 0.000000 
0.000000 416.213258 0.000000 
0.000000 0.000000 0.000000 

0.340015 27.709660 0.000000 
0.000000 -31.458976 0.000000 
0.000000 0.000000 0.000000 

-14.751882 14.237564 0.000000 
0.000000 -36.186518 0.000000 
0.000000 0.000000 0.000000 

-16.334167 4.518679 0.000000 
0.000000 -30.044129 0.000000 
0.000000 0.000000 0.000000 

-16.235656 1.779807 0.000000 
0.000000 -25.267536 0.000000 
0.000000 0.000000 0.000000 

-13.043249 1.025293 0.000000 
0.000000 -17.889391 0.000000 
0.000000 0.000000 0.000000 

-3.066145 0.327839 0.000000 
0.000000 -4.855290 0.000000 
0.000000 0.000000 0.000000 

-422.487455 7.832840 0.000000 
0.000000 -596.119288 0.000000 
0.000000 0.000000 0.000000 

1524.333556 524.188453 0.000000 
0.000000 648.128755 0.000000 
0.000000 0.000000 0.000000 

-1396.417696 151.846925 0.000000 
0.000000 -1658.310709 0.000000 
0.000000 0.000000 0.000000 

355.873338 55.158518 0.000000 
0.000000 453.408301 0.000000 
0.000000 0.000000 0.000000 

14.475023 33.987000 0.000000 
0.000000 -14.264009 0.000000 
0.000000 0.000000 0.000000 

-11.286955 19.907009 0.000000 
0.000000 -31.960774 0.000000 
0.000000 0.000000 0.000000 

-17.156822 7.973699 0.000000 
0.000000 -31.050619 0.000000 
0.000000 0.000000 0.000000 

-15.067415 3.404483 0.000000 
0.000000 -23.840482 0.000000 
0.000000 0.000000 0.000000 

-12.436001 1.978900 0.000000 
0.000000 -17.147316 0.000000 
0.000000 0.000000 0.000000 

-2.943148 0.674563 0.000000 
0.000000 -4.704988 0.000000 
0.000000 0.000000 0.000000 

-389.482818 20.109103 0.000000 
0.000000 -552.539534 0.000000 
0.000000 0.000000 0.000000 

1968.267159 1217.166041 0.000000 
0.000000 1029.551177 0.000000 
0.000000 0.000000 0.000000 

-1210.194384 246.823766 0.000000 
0.000000 -1533.803182 0.000000 
0.000000 0.000000 0.000000 

314.614761 -1.989031 0.000000 
0.000000 363.619560 0.000000 
0.000000 0.000000 0.000000 

-2.080041 28.159684 0.000000 
0.000000 -34.196643 0.000000 
0.000000 0.000000 0.000000 

-24.944926 22.300246 0.000000 
0.000000 -47.851222 0.000000 
0.000000 0.000000 0.000000 

-22.218590 9.896730 0.000000 
0.000000 -36.738110 0.000000 
0.000000 0.000000 0.000000 

-16.788283 4.147045 0.000000 
0.000000 -25.432467 0.000000 
0.000000 0.000000 0.000000 

-13.363338 2.625933 0.000000 
0.000000 -18.048844 0.000000 
0.000000 0.000000 0.000000 

-3.425597 0.832561 0.000000 
0.000000 -5.151743 0.000000 
0.000000 0.000000 0.000000 

TENSORS STRAIN float 
0.114360 -0.066798 0.000000 
0.000000 -0.427278 0.000000 
0.000000 0.000000 0.000000 

0.062054 -0.121970 0.000000 
0.000000 -0.032013 0.000000 
0.000000 0.000000 0.000000 

0.004085 -0.040981 0.000000 
0.000000 -0.049644 0.000000 
0.000000 0.000000 0.000000 

0.001397 0.000295 0.000000 
0.000000 0.008670 0.000000 
0.000000 0.000000 0.000000 

0.002071 -0.004095 0.000000 
0.000000 -0.002599 0.000000 
0.000000 0.000000 0.000000 

0.001140 -0.003254 0.000000 
0.000000 -0.002202 0.000000 
0.000000 0.000000 0.000000 

0.000630 -0.001445 0.000000 
0.000000 -0.001490 0.000000 
0.000000 0.000000 0.000000 

0.000321 -0.000602 0.000000 
0.000000 -0.000935 0.000000 
0.000000 0.000000 0.000000 

0.000112 -0.000381 0.000000 
0.000000 -0.000568 0.000000 
0.000000 0.000000 0.000000 

0.000063 -0.000121 0.000000 
0.000000 -0.000187 0.000000 
0.000000 0.000000 0.000000 

0.112636 -0.024585 0.000000 
0.000000 -0.432353 0.000000 
0.000000 0.000000 0.000000 

0.054700 -0.052445 0.000000 
0.000000 -0.032965 0.000000 
0.000000 0.000000 0.000000 

-0.003676 -0.025616 0.000000 
0.000000 -0.047855 0.000000 
0.000000 0.000000 0.000000 

-0.001224 -0.008130 0.000000 
0.000000 0.013152 0.000000 
0.000000 0.000000 0.000000 

0.002088 -0.004934 0.000000 
0.000000 -0.002084 0.000000 
0.000000 0.000000 0.000000 

0.001191 -0.002900 0.000000 
0.000000 -0.001821 0.000000 
0.000000 0.000000 0.000000 

0.000662 -0.001164 0.000000 
0.000000 -0.001365 0.000000 
0.000000 0.000000 0.000000 

0.000355 -0.000494 0.000000 
0.000000 -0.000920 0.000000 
0.000000 0.000000 0.000000 

0.000127 -0.000287 0.000000 
0.000000 -0.000557 0.000000 
0.000000 0.000000 0.000000 

0.000072 -0.000098 0.000000 
0.000000 -0.000183 0.000000 
0.000000 0.000000 0.000000 

0.112811 0.018528 0.000000 
0.000000 -0.441732 0.000000 
0.000000 0.000000 0.000000 

0.054813 0.017457 0.000000 
0.000000 -0.022619 0.000000 
0.000000 0.000000 0.000000 

-0.003754 -0.000944 0.000000 
0.000000 -0.041399 0.000000 
0.000000 0.000000 0.000000 

-0.001212 -0.013023 0.000000 
0.000000 0.012180 0.000000 
0.000000 0.000000 0.000000 

0.002087 -0.004032 0.000000 
0.000000 -0.002540 0.000000 
0.000000 0.000000 0.000000 

0.001191 -0.002075 0.000000 
0.000000 -0.001933 0.000000 
0.000000 0.000000 0.000000 

0.000662 -0.000659 0.000000 
0.000000 -0.001339 0.000000 
0.000000 0.000000 0.000000 

0.000355 -0.000259 0.000000 
0.000000 -0.000957 0.000000 
0.000000 0.000000 0.000000 

0.000127 -0.000149 0.000000 
0.000000 -0.000576 0.000000 
0.000000 0.000000 0.000000 

0.000072 -0.000048 0.000000 
0.000000 -0.000187 0.000000 
0.000000 0.000000 0.000000 

-0.043771 0.003233 0.000000 
0.000000 -0.446025 0.000000 
0.000000 0.000000 0.000000 

-0.014104 -0.003376 0.000000 
0.000000 -0.013561 0.000000 
0.000000 0.000000 0.000000 

0.015160 -0.011326 0.000000 
0.000000 -0.036235 0.000000 
0.000000 0.000000 0.000000 

0.007697 -0.010345 0.000000 
0.000000 0.009420 0.000000 
0.000000 0.000000 0.000000 

0.001549 -0.004393 0.000000 
0.000000 -0.004005 0.000000 
0.000000 0.000000 0.000000 

-0.000032 -0.001978 0.000000 
0.000000 -0.002654 0.000000 
0.000000 0.000000 0.000000 

-0.000049 -0.000954 0.000000 
0.000000 -0.001581 0.000000 
0.000000 0.000000 0.000000 

-0.000034 -0.000378 0.000000 
0.000000 -0.001085 0.000000 
0.000000 0.000000 0.000000 

-0.000013 -0.000166 0.000000 
0.000000 -0.000650 0.000000 
0.000000 0.000000 0.000000 

-0.000008 -0.000064 0.000000 
0.000000 -0.000204 0.000000 
0.000000 0.000000 0.000000 

0.065788 -0.011452 0.000000 
0.000000 -0.448592 0.000000 
0.000000 0.000000 0.000000 

0.034279 -0.019130 0.000000 
0.000000 -0.007005 0.000000 
0.000000 0.000000 0.000000 

0.001248 -0.008318 0.000000 
0.000000 -0.032744 0.000000 
0.000000 0.000000 0.000000 

0.001467 0.000828 0.000000 
0.000000 0.007074 0.000000 
0.000000 0.000000 0.000000 
