# vtk DataFile Version 3.0 
vtk output 
ASCII 
DATASET UNSTRUCTURED_GRID 
POINTS 100 float 
0.450320 -2.860640 0.000000 
0.450111 -2.760561 0.000000 
0.450000 -2.660665 0.000000 
0.450000 -2.560665 0.000000 
0.450000 -2.460665 0.000000 
0.450000 -2.360665 0.000000 
0.450000 -2.260665 0.000000 
0.450000 -2.160665 0.000000 
0.450000 -2.060665 0.000000 
0.450000 -1.960665 0.000000 
0.350088 -2.860640 0.000000 
0.350031 -2.760561 0.000000 
0.350000 -2.660665 0.000000 
0.350000 -2.560665 0.000000 
0.350000 -2.460665 0.000000 
0.350000 -2.360665 0.000000 
0.350000 -2.260665 0.000000 
0.350000 -2.160665 0.000000 
0.350000 -2.060665 0.000000 
0.350000 -1.960665 0.000000 
0.249892 -2.860640 0.000000 
0.249962 -2.760561 0.000000 
0.250000 -2.660665 0.000000 
0.250000 -2.560665 0.000000 
0.250000 -2.460665 0.000000 
0.250000 -2.360665 0.000000 
0.250000 -2.260665 0.000000 
0.250000 -2.160665 0.000000 
0.250000 -2.060665 0.000000 
0.250000 -1.960665 0.000000 
0.150010 -2.860640 0.000000 
0.150003 -2.760561 0.000000 
0.150000 -2.660665 0.000000 
0.150000 -2.560665 0.000000 
0.150000 -2.460665 0.000000 
0.150000 -2.360665 0.000000 
0.150000 -2.260665 0.000000 
0.150000 -2.160665 0.000000 
0.150000 -2.060665 0.000000 
0.150000 -1.960665 0.000000 
0.050098 -2.860640 0.000000 
0.050034 -2.760561 0.000000 
0.050000 -2.660665 0.000000 
0.050000 -2.560665 0.000000 
0.050000 -2.460665 0.000000 
0.050000 -2.360665 0.000000 
0.050000 -2.260665 0.000000 
0.050000 -2.160665 0.000000 
0.050000 -2.060665 0.000000 
0.050000 -1.960665 0.000000 
-0.050098 -2.860640 0.000000 
-0.050034 -2.760561 0.000000 
-0.050000 -2.660665 0.000000 
-0.050000 -2.560665 0.000000 
-0.050000 -2.460665 0.000000 
-0.050000 -2.360665 0.000000 
-0.050000 -2.260665 0.000000 
-0.050000 -2.160665 0.000000 
-0.050000 -2.060665 0.000000 
-0.050000 -1.960665 0.000000 
-0.150010 -2.860640 0.000000 
-0.150003 -2.760561 0.000000 
-0.150000 -2.660665 0.000000 
-0.150000 -2.560665 0.000000 
-0.150000 -2.460665 0.000000 
-0.150000 -2.360665 0.000000 
-0.150000 -2.260665 0.000000 
-0.150000 -2.160665 0.000000 
-0.150000 -2.060665 0.000000 
-0.150000 -1.960665 0.000000 
-0.249892 -2.860640 0.000000 
-0.249962 -2.760561 0.000000 
-0.250000 -2.660665 0.000000 
-0.250000 -2.560665 0.000000 
-0.250000 -2.460665 0.000000 
-0.250000 -2.360665 0.000000 
-0.250000 -2.260665 0.000000 
-0.250000 -2.160665 0.000000 
-0.250000 -2.060665 0.000000 
-0.250000 -1.960665 0.000000 
-0.350088 -2.860640 0.000000 
-0.350031 -2.760561 0.000000 
-0.350000 -2.660665 0.000000 
-0.350000 -2.560665 0.000000 
-0.350000 -2.460665 0.000000 
-0.350000 -2.360665 0.000000 
-0.350000 -2.260665 0.000000 
-0.350000 -2.160665 0.000000 
-0.350000 -2.060665 0.000000 
-0.350000 -1.960665 0.000000 
-0.450320 -2.860640 0.000000 
-0.450111 -2.760561 0.000000 
-0.450000 -2.660665 0.000000 
-0.450000 -2.560665 0.000000 
-0.450000 -2.460665 0.000000 
-0.450000 -2.360665 0.000000 
-0.450000 -2.260665 0.000000 
-0.450000 -2.160665 0.000000 
-0.450000 -2.060665 0.000000 
-0.450000 -1.960665 0.000000 
CELLS 100 200 
1 0 
1 1 
1 2 
1 3 
1 4 
1 5 
1 6 
1 7 
1 8 
1 9 
1 10 
1 11 
1 12 
1 13 
1 14 
1 15 
1 16 
1 17 
1 18 
1 19 
1 20 
1 21 
1 22 
1 23 
1 24 
1 25 
1 26 
1 27 
1 28 
1 29 
1 30 
1 31 
1 32 
1 33 
1 34 
1 35 
1 36 
1 37 
1 38 
1 39 
1 40 
1 41 
1 42 
1 43 
1 44 
1 45 
1 46 
1 47 
1 48 
1 49 
1 50 
1 51 
1 52 
1 53 
1 54 
1 55 
1 56 
1 57 
1 58 
1 59 
1 60 
1 61 
1 62 
1 63 
1 64 
1 65 
1 66 
1 67 
1 68 
1 69 
1 70 
1 71 
1 72 
1 73 
1 74 
1 75 
1 76 
1 77 
1 78 
1 79 
1 80 
1 81 
1 82 
1 83 
1 84 
1 85 
1 86 
1 87 
1 88 
1 89 
1 90 
1 91 
1 92 
1 93 
1 94 
1 95 
1 96 
1 97 
1 98 
1 99 
CELL_TYPES 100 
1 
1 
1 
1 
1 
1 
1 
1 
1 
1 
1 
1 
1 
1 
1 
1 
1 
1 
1 
1 
1 
1 
1 
1 
1 
1 
1 
1 
1 
1 
1 
1 
1 
1 
1 
1 
1 
1 
1 
1 
1 
1 
1 
1 
1 
1 
1 
1 
1 
1 
1 
1 
1 
1 
1 
1 
1 
1 
1 
1 
1 
1 
1 
1 
1 
1 
1 
1 
1 
1 
1 
1 
1 
1 
1 
1 
1 
1 
1 
1 
1 
1 
1 
1 
1 
1 
1 
1 
1 
1 
1 
1 
1 
1 
1 
1 
1 
1 
1 
1 
POINT_DATA 100 
VECTORS X_GC float 
0.450320 -2.860640 0.000000 
0.450111 -2.760561 0.000000 
0.450000 -2.660665 0.000000 
0.450000 -2.560665 0.000000 
0.450000 -2.460665 0.000000 
0.450000 -2.360665 0.000000 
0.450000 -2.260665 0.000000 
0.450000 -2.160665 0.000000 
0.450000 -2.060665 0.000000 
0.450000 -1.960665 0.000000 
0.350088 -2.860640 0.000000 
0.350031 -2.760561 0.000000 
0.350000 -2.660665 0.000000 
0.350000 -2.560665 0.000000 
0.350000 -2.460665 0.000000 
0.350000 -2.360665 0.000000 
0.350000 -2.260665 0.000000 
0.350000 -2.160665 0.000000 
0.350000 -2.060665 0.000000 
0.350000 -1.960665 0.000000 
0.249892 -2.860640 0.000000 
0.249962 -2.760561 0.000000 
0.250000 -2.660665 0.000000 
0.250000 -2.560665 0.000000 
0.250000 -2.460665 0.000000 
0.250000 -2.360665 0.000000 
0.250000 -2.260665 0.000000 
0.250000 -2.160665 0.000000 
0.250000 -2.060665 0.000000 
0.250000 -1.960665 0.000000 
0.150010 -2.860640 0.000000 
0.150003 -2.760561 0.000000 
0.150000 -2.660665 0.000000 
0.150000 -2.560665 0.000000 
0.150000 -2.460665 0.000000 
0.150000 -2.360665 0.000000 
0.150000 -2.260665 0.000000 
0.150000 -2.160665 0.000000 
0.150000 -2.060665 0.000000 
0.150000 -1.960665 0.000000 
0.050098 -2.860640 0.000000 
0.050034 -2.760561 0.000000 
0.050000 -2.660665 0.000000 
0.050000 -2.560665 0.000000 
0.050000 -2.460665 0.000000 
0.050000 -2.360665 0.000000 
0.050000 -2.260665 0.000000 
0.050000 -2.160665 0.000000 
0.050000 -2.060665 0.000000 
0.050000 -1.960665 0.000000 
-0.050098 -2.860640 0.000000 
-0.050034 -2.760561 0.000000 
-0.050000 -2.660665 0.000000 
-0.050000 -2.560665 0.000000 
-0.050000 -2.460665 0.000000 
-0.050000 -2.360665 0.000000 
-0.050000 -2.260665 0.000000 
-0.050000 -2.160665 0.000000 
-0.050000 -2.060665 0.000000 
-0.050000 -1.960665 0.000000 
-0.150010 -2.860640 0.000000 
-0.150003 -2.760561 0.000000 
-0.150000 -2.660665 0.000000 
-0.150000 -2.560665 0.000000 
-0.150000 -2.460665 0.000000 
-0.150000 -2.360665 0.000000 
-0.150000 -2.260665 0.000000 
-0.150000 -2.160665 0.000000 
-0.150000 -2.060665 0.000000 
-0.150000 -1.960665 0.000000 
-0.249892 -2.860640 0.000000 
-0.249962 -2.760561 0.000000 
-0.250000 -2.660665 0.000000 
-0.250000 -2.560665 0.000000 
-0.250000 -2.460665 0.000000 
-0.250000 -2.360665 0.000000 
-0.250000 -2.260665 0.000000 
-0.250000 -2.160665 0.000000 
-0.250000 -2.060665 0.000000 
-0.250000 -1.960665 0.000000 
-0.350088 -2.860640 0.000000 
-0.350031 -2.760561 0.000000 
-0.350000 -2.660665 0.000000 
-0.350000 -2.560665 0.000000 
-0.350000 -2.460665 0.000000 
-0.350000 -2.360665 0.000000 
-0.350000 -2.260665 0.000000 
-0.350000 -2.160665 0.000000 
-0.350000 -2.060665 0.000000 
-0.350000 -1.960665 0.000000 
-0.450320 -2.860640 0.000000 
-0.450111 -2.760561 0.000000 
-0.450000 -2.660665 0.000000 
-0.450000 -2.560665 0.000000 
-0.450000 -2.460665 0.000000 
-0.450000 -2.360665 0.000000 
-0.450000 -2.260665 0.000000 
-0.450000 -2.160665 0.000000 
-0.450000 -2.060665 0.000000 
-0.450000 -1.960665 0.000000 
VECTORS X_EC float 
0.145843 -0.881361 0.000000 
0.148551 -0.232433 0.000000 
0.150000 0.418980 0.000000 
0.150000 -0.931020 0.000000 
0.150000 -0.281020 0.000000 
0.150000 0.368980 0.000000 
0.150000 -0.981020 0.000000 
0.150000 -0.331020 0.000000 
0.150000 0.318980 0.000000 
0.150000 0.968980 0.000000 
-0.551144 -0.881361 0.000000 
-0.550399 -0.232433 0.000000 
-0.550000 0.418980 0.000000 
-0.550000 -0.931020 0.000000 
-0.550000 -0.281020 0.000000 
-0.550000 0.368980 0.000000 
-0.550000 -0.981020 0.000000 
-0.550000 -0.331020 0.000000 
-0.550000 0.318980 0.000000 
-0.550000 0.968980 0.000000 
0.751408 -0.881361 0.000000 
0.750491 -0.232433 0.000000 
0.750000 0.418980 0.000000 
0.750000 -0.931020 0.000000 
0.750000 -0.281020 0.000000 
0.750000 0.368980 0.000000 
0.750000 -0.981020 0.000000 
0.750000 -0.331020 0.000000 
0.750000 0.318980 0.000000 
0.750000 0.968980 0.000000 
0.049872 -0.881361 0.000000 
0.049956 -0.232433 0.000000 
0.050000 0.418980 0.000000 
0.050000 -0.931020 0.000000 
0.050000 -0.281020 0.000000 
0.050000 0.368980 0.000000 
0.050000 -0.981020 0.000000 
0.050000 -0.331020 0.000000 
0.050000 0.318980 0.000000 
0.050000 0.968980 0.000000 
-0.651275 -0.881361 0.000000 
-0.650444 -0.232433 0.000000 
-0.650000 0.418980 0.000000 
-0.650000 -0.931020 0.000000 
-0.650000 -0.281020 0.000000 
-0.650000 0.368980 0.000000 
-0.650000 -0.981020 0.000000 
-0.650000 -0.331020 0.000000 
-0.650000 0.318980 0.000000 
-0.650000 0.968980 0.000000 
0.651275 -0.881361 0.000000 
0.650444 -0.232433 0.000000 
0.650000 0.418980 0.000000 
0.650000 -0.931020 0.000000 
0.650000 -0.281020 0.000000 
0.650000 0.368980 0.000000 
0.650000 -0.981020 0.000000 
0.650000 -0.331020 0.000000 
0.650000 0.318980 0.000000 
0.650000 0.968980 0.000000 
-0.049872 -0.881361 0.000000 
-0.049956 -0.232433 0.000000 
-0.050000 0.418980 0.000000 
-0.050000 -0.931020 0.000000 
-0.050000 -0.281020 0.000000 
-0.050000 0.368980 0.000000 
-0.050000 -0.981020 0.000000 
-0.050000 -0.331020 0.000000 
-0.050000 0.318980 0.000000 
-0.050000 0.968980 0.000000 
-0.751408 -0.881361 0.000000 
-0.750491 -0.232433 0.000000 
-0.750000 0.418980 0.000000 
-0.750000 -0.931020 0.000000 
-0.750000 -0.281020 0.000000 
-0.750000 0.368980 0.000000 
-0.750000 -0.981020 0.000000 
-0.750000 -0.331020 0.000000 
-0.750000 0.318980 0.000000 
-0.750000 0.968980 0.000000 
0.551144 -0.881361 0.000000 
0.550399 -0.232433 0.000000 
0.550000 0.418980 0.000000 
0.550000 -0.931020 0.000000 
0.550000 -0.281020 0.000000 
0.550000 0.368980 0.000000 
0.550000 -0.981020 0.000000 
0.550000 -0.331020 0.000000 
0.550000 0.318980 0.000000 
0.550000 0.968980 0.000000 
-0.145843 -0.881361 0.000000 
-0.148551 -0.232433 0.000000 
-0.150000 0.418980 0.000000 
-0.150000 -0.931020 0.000000 
-0.150000 -0.281020 0.000000 
-0.150000 0.368980 0.000000 
-0.150000 -0.981020 0.000000 
-0.150000 -0.331020 0.000000 
-0.150000 0.318980 0.000000 
-0.150000 0.968980 0.000000 
CELL_DATA 100 
SCALARS MASS float 
LOOKUP_TABLE default 
10.000000 
10.000000 
10.000000 
10.000000 
10.000000 
10.000000 
10.000000 
10.000000 
10.000000 
10.000000 
10.000000 
10.000000 
10.000000 
10.000000 
10.000000 
10.000000 
10.000000 
10.000000 
10.000000 
10.000000 
10.000000 
10.000000 
10.000000 
10.000000 
10.000000 
10.000000 
10.000000 
10.000000 
10.000000 
10.000000 
10.000000 
10.000000 
10.000000 
10.000000 
10.000000 
10.000000 
10.000000 
10.000000 
10.000000 
10.000000 
10.000000 
10.000000 
10.000000 
10.000000 
10.000000 
10.000000 
10.000000 
10.000000 
10.000000 
10.000000 
10.000000 
10.000000 
10.000000 
10.000000 
10.000000 
10.000000 
10.000000 
10.000000 
10.000000 
10.000000 
10.000000 
10.000000 
10.000000 
10.000000 
10.000000 
10.000000 
10.000000 
10.000000 
10.000000 
10.000000 
10.000000 
10.000000 
10.000000 
10.000000 
10.000000 
10.000000 
10.000000 
10.000000 
10.000000 
10.000000 
10.000000 
10.000000 
10.000000 
10.000000 
10.000000 
10.000000 
10.000000 
10.000000 
10.000000 
10.000000 
10.000000 
10.000000 
10.000000 
10.000000 
10.000000 
10.000000 
10.000000 
10.000000 
10.000000 
10.000000 
SCALARS MASS float 
LOOKUP_TABLE default 
10.000000 
10.000000 
10.000000 
10.000000 
10.000000 
10.000000 
10.000000 
10.000000 
10.000000 
10.000000 
10.000000 
10.000000 
10.000000 
10.000000 
10.000000 
10.000000 
10.000000 
10.000000 
10.000000 
10.000000 
10.000000 
10.000000 
10.000000 
10.000000 
10.000000 
10.000000 
10.000000 
10.000000 
10.000000 
10.000000 
10.000000 
10.000000 
10.000000 
10.000000 
10.000000 
10.000000 
10.000000 
10.000000 
10.000000 
10.000000 
10.000000 
10.000000 
10.000000 
10.000000 
10.000000 
10.000000 
10.000000 
10.000000 
10.000000 
10.000000 
10.000000 
10.000000 
10.000000 
10.000000 
10.000000 
10.000000 
10.000000 
10.000000 
10.000000 
10.000000 
10.000000 
10.000000 
10.000000 
10.000000 
10.000000 
10.000000 
10.000000 
10.000000 
10.000000 
10.000000 
10.000000 
10.000000 
10.000000 
10.000000 
10.000000 
10.000000 
10.000000 
10.000000 
10.000000 
10.000000 
10.000000 
10.000000 
10.000000 
10.000000 
10.000000 
10.000000 
10.000000 
10.000000 
10.000000 
10.000000 
10.000000 
10.000000 
10.000000 
10.000000 
10.000000 
10.000000 
10.000000 
10.000000 
10.000000 
10.000000 
SCALARS DENSITY float 
LOOKUP_TABLE default 
1033.534659 
1000.000000 
1000.000000 
1000.000000 
1000.000000 
1000.000000 
1000.000000 
1000.000000 
1000.000000 
1000.000000 
1033.534659 
1000.000000 
1000.000000 
1000.000000 
1000.000000 
1000.000000 
1000.000000 
1000.000000 
1000.000000 
1000.000000 
1033.534659 
1000.000000 
1000.000000 
1000.000000 
1000.000000 
1000.000000 
1000.000000 
1000.000000 
1000.000000 
1000.000000 
1033.534659 
1000.000000 
1000.000000 
1000.000000 
1000.000000 
1000.000000 
1000.000000 
1000.000000 
1000.000000 
1000.000000 
1033.534659 
1000.000000 
1000.000000 
1000.000000 
1000.000000 
1000.000000 
1000.000000 
1000.000000 
1000.000000 
1000.000000 
1033.534659 
1000.000000 
1000.000000 
1000.000000 
1000.000000 
1000.000000 
1000.000000 
1000.000000 
1000.000000 
1000.000000 
1033.534659 
1000.000000 
1000.000000 
1000.000000 
1000.000000 
1000.000000 
1000.000000 
1000.000000 
1000.000000 
1000.000000 
1033.534659 
1000.000000 
1000.000000 
1000.000000 
1000.000000 
1000.000000 
1000.000000 
1000.000000 
1000.000000 
1000.000000 
1033.534659 
1000.000000 
1000.000000 
1000.000000 
1000.000000 
1000.000000 
1000.000000 
1000.000000 
1000.000000 
1000.000000 
1033.534659 
1000.000000 
1000.000000 
1000.000000 
1000.000000 
1000.000000 
1000.000000 
1000.000000 
1000.000000 
1000.000000 
SCALARS ELEM_i float 
LOOKUP_TABLE default 
81 
82 
83 
83 
84 
85 
85 
86 
87 
88 
108 
109 
110 
110 
111 
112 
112 
113 
114 
115 
108 
109 
110 
110 
111 
112 
112 
113 
114 
115 
135 
136 
137 
137 
138 
139 
139 
140 
141 
142 
162 
163 
164 
164 
165 
166 
166 
167 
168 
169 
162 
163 
164 
164 
165 
166 
166 
167 
168 
169 
189 
190 
191 
191 
192 
193 
193 
194 
195 
196 
216 
217 
218 
218 
219 
220 
220 
221 
222 
223 
216 
217 
218 
218 
219 
220 
220 
221 
222 
223 
243 
244 
245 
245 
246 
247 
247 
248 
249 
250 
VECTORS VELOCITY float 
0.456854 -7.023346 0.000000 
0.159261 -6.724388 0.000000 
-0.000000 -6.873867 0.000000 
-0.000000 -6.873867 0.000000 
-0.000000 -6.873867 0.000000 
0.000000 -6.873867 0.000000 
0.000000 -6.873867 0.000000 
-0.000000 -6.873867 0.000000 
-0.000000 -6.873867 0.000000 
-0.000000 -6.873867 0.000000 
0.125754 -7.023346 0.000000 
0.043838 -6.724388 0.000000 
-0.000000 -6.873867 0.000000 
-0.000000 -6.873867 0.000000 
-0.000000 -6.873867 0.000000 
-0.000000 -6.873867 0.000000 
0.000000 -6.873867 0.000000 
0.000000 -6.873867 0.000000 
0.000000 -6.873867 0.000000 
0.000000 -6.873867 0.000000 
-0.154761 -7.023346 0.000000 
-0.053950 -6.724388 0.000000 
-0.000000 -6.873867 0.000000 
-0.000000 -6.873867 0.000000 
-0.000000 -6.873867 0.000000 
0.000000 -6.873867 0.000000 
-0.000000 -6.873867 0.000000 
-0.000000 -6.873867 0.000000 
0.000000 -6.873867 0.000000 
0.000000 -6.873867 0.000000 
0.014028 -7.023346 0.000000 
0.004890 -6.724388 0.000000 
0.000000 -6.873867 0.000000 
0.000000 -6.873867 0.000000 
0.000000 -6.873867 0.000000 
-0.000000 -6.873867 0.000000 
-0.000000 -6.873867 0.000000 
-0.000000 -6.873867 0.000000 
0.000000 -6.873867 0.000000 
0.000000 -6.873867 0.000000 
0.140107 -7.023346 0.000000 
0.048842 -6.724388 0.000000 
0.000000 -6.873867 0.000000 
0.000000 -6.873867 0.000000 
0.000000 -6.873867 0.000000 
-0.000000 -6.873867 0.000000 
-0.000000 -6.873867 0.000000 
-0.000000 -6.873867 0.000000 
0.000000 -6.873867 0.000000 
-0.000000 -6.873867 0.000000 
-0.140107 -7.023346 0.000000 
-0.048842 -6.724388 0.000000 
-0.000000 -6.873867 0.000000 
-0.000000 -6.873867 0.000000 
0.000000 -6.873867 0.000000 
0.000000 -6.873867 0.000000 
-0.000000 -6.873867 0.000000 
0.000000 -6.873867 0.000000 
0.000000 -6.873867 0.000000 
-0.000000 -6.873867 0.000000 
-0.014028 -7.023346 0.000000 
-0.004890 -6.724388 0.000000 
-0.000000 -6.873867 0.000000 
-0.000000 -6.873867 0.000000 
0.000000 -6.873867 0.000000 
0.000000 -6.873867 0.000000 
-0.000000 -6.873867 0.000000 
0.000000 -6.873867 0.000000 
0.000000 -6.873867 0.000000 
-0.000000 -6.873867 0.000000 
0.154761 -7.023346 0.000000 
0.053950 -6.724388 0.000000 
0.000000 -6.873867 0.000000 
-0.000000 -6.873867 0.000000 
0.000000 -6.873867 0.000000 
0.000000 -6.873867 0.000000 
0.000000 -6.873867 0.000000 
0.000000 -6.873867 0.000000 
-0.000000 -6.873867 0.000000 
-0.000000 -6.873867 0.000000 
-0.125754 -7.023346 0.000000 
-0.043838 -6.724388 0.000000 
0.000000 -6.873867 0.000000 
0.000000 -6.873867 0.000000 
0.000000 -6.873867 0.000000 
0.000000 -6.873867 0.000000 
0.000000 -6.873867 0.000000 
0.000000 -6.873867 0.000000 
0.000000 -6.873867 0.000000 
0.000000 -6.873867 0.000000 
-0.456854 -7.023346 0.000000 
-0.159261 -6.724388 0.000000 
0.000000 -6.873867 0.000000 
-0.000000 -6.873867 0.000000 
0.000000 -6.873867 0.000000 
0.000000 -6.873867 0.000000 
-0.000000 -6.873867 0.000000 
0.000000 -6.873867 0.000000 
0.000000 -6.873867 0.000000 
0.000000 -6.873867 0.000000 
TENSORS STRESS float 
-974.290171 -0.000000 0.000000 
0.000000 -1190.799098 0.000000 
0.000000 0.000000 0.000000 

-0.000000 -0.000000 0.000000 
0.000000 0.000000 0.000000 
0.000000 0.000000 0.000000 

0.000000 -0.000000 0.000000 
0.000000 0.000000 0.000000 
0.000000 0.000000 0.000000 

-0.000000 -0.000000 0.000000 
0.000000 -0.000000 0.000000 
0.000000 0.000000 0.000000 

0.000000 -0.000000 0.000000 
0.000000 0.000000 0.000000 
0.000000 0.000000 0.000000 

0.000000 0.000000 0.000000 
0.000000 -0.000000 0.000000 
0.000000 0.000000 0.000000 

0.000000 0.000000 0.000000 
0.000000 0.000000 0.000000 
0.000000 0.000000 0.000000 

-0.000000 0.000000 0.000000 
0.000000 -0.000000 0.000000 
0.000000 0.000000 0.000000 

-0.000000 -0.000000 0.000000 
0.000000 -0.000000 0.000000 
0.000000 0.000000 0.000000 

0.000000 -0.000000 0.000000 
0.000000 -0.000000 0.000000 
0.000000 0.000000 0.000000 

-974.290171 0.000000 0.000000 
0.000000 -1190.799098 0.000000 
0.000000 0.000000 0.000000 

-0.000000 -0.000000 0.000000 
0.000000 -0.000000 0.000000 
0.000000 0.000000 0.000000 

0.000000 0.000000 0.000000 
0.000000 0.000000 0.000000 
0.000000 0.000000 0.000000 

-0.000000 0.000000 0.000000 
0.000000 -0.000000 0.000000 
0.000000 0.000000 0.000000 

0.000000 -0.000000 0.000000 
0.000000 -0.000000 0.000000 
0.000000 0.000000 0.000000 

0.000000 0.000000 0.000000 
0.000000 0.000000 0.000000 
0.000000 0.000000 0.000000 

0.000000 -0.000000 0.000000 
0.000000 0.000000 0.000000 
0.000000 0.000000 0.000000 

-0.000000 -0.000000 0.000000 
0.000000 -0.000000 0.000000 
0.000000 0.000000 0.000000 

-0.000000 -0.000000 0.000000 
0.000000 -0.000000 0.000000 
0.000000 0.000000 0.000000 

-0.000000 0.000000 0.000000 
0.000000 -0.000000 0.000000 
0.000000 0.000000 0.000000 

-974.290171 -0.000000 0.000000 
0.000000 -1190.799098 0.000000 
0.000000 0.000000 0.000000 

0.000000 -0.000000 0.000000 
0.000000 0.000000 0.000000 
0.000000 0.000000 0.000000 

-0.000000 0.000000 0.000000 
0.000000 -0.000000 0.000000 
0.000000 0.000000 0.000000 

0.000000 0.000000 0.000000 
0.000000 0.000000 0.000000 
0.000000 0.000000 0.000000 

0.000000 -0.000000 0.000000 
0.000000 -0.000000 0.000000 
0.000000 0.000000 0.000000 

0.000000 0.000000 0.000000 
0.000000 0.000000 0.000000 
0.000000 0.000000 0.000000 

0.000000 -0.000000 0.000000 
0.000000 0.000000 0.000000 
0.000000 0.000000 0.000000 

0.000000 0.000000 0.000000 
0.000000 0.000000 0.000000 
0.000000 0.000000 0.000000 

0.000000 -0.000000 0.000000 
0.000000 0.000000 0.000000 
0.000000 0.000000 0.000000 

-0.000000 0.000000 0.000000 
0.000000 -0.000000 0.000000 
0.000000 0.000000 0.000000 

-974.290171 -0.000000 0.000000 
0.000000 -1190.799098 0.000000 
0.000000 0.000000 0.000000 

0.000000 0.000000 0.000000 
0.000000 0.000000 0.000000 
0.000000 0.000000 0.000000 

0.000000 0.000000 0.000000 
0.000000 0.000000 0.000000 
0.000000 0.000000 0.000000 

0.000000 0.000000 0.000000 
0.000000 0.000000 0.000000 
0.000000 0.000000 0.000000 

-0.000000 0.000000 0.000000 
0.000000 -0.000000 0.000000 
0.000000 0.000000 0.000000 

0.000000 0.000000 0.000000 
0.000000 0.000000 0.000000 
0.000000 0.000000 0.000000 

-0.000000 0.000000 0.000000 
0.000000 -0.000000 0.000000 
0.000000 0.000000 0.000000 

0.000000 -0.000000 0.000000 
0.000000 0.000000 0.000000 
0.000000 0.000000 0.000000 

-0.000000 -0.000000 0.000000 
0.000000 -0.000000 0.000000 
0.000000 0.000000 0.000000 

0.000000 0.000000 0.000000 
0.000000 0.000000 0.000000 
0.000000 0.000000 0.000000 

-974.290171 -0.000000 0.000000 
0.000000 -1190.799098 0.000000 
0.000000 0.000000 0.000000 

-0.000000 0.000000 0.000000 
0.000000 -0.000000 0.000000 
0.000000 0.000000 0.000000 

0.000000 0.000000 0.000000 
0.000000 0.000000 0.000000 
0.000000 0.000000 0.000000 

-0.000000 -0.000000 0.000000 
0.000000 -0.000000 0.000000 
0.000000 0.000000 0.000000 

-0.000000 0.000000 0.000000 
0.000000 -0.000000 0.000000 
0.000000 0.000000 0.000000 

-0.000000 0.000000 0.000000 
0.000000 -0.000000 0.000000 
0.000000 0.000000 0.000000 

0.000000 0.000000 0.000000 
0.000000 0.000000 0.000000 
0.000000 0.000000 0.000000 

0.000000 0.000000 0.000000 
0.000000 0.000000 0.000000 
0.000000 0.000000 0.000000 

0.000000 -0.000000 0.000000 
0.000000 -0.000000 0.000000 
0.000000 0.000000 0.000000 

0.000000 -0.000000 0.000000 
0.000000 -0.000000 0.000000 
0.000000 0.000000 0.000000 

-974.290171 -0.000000 0.000000 
0.000000 -1190.799098 0.000000 
0.000000 0.000000 0.000000 

0.000000 0.000000 0.000000 
0.000000 0.000000 0.000000 
0.000000 0.000000 0.000000 

0.000000 0.000000 0.000000 
0.000000 0.000000 0.000000 
0.000000 0.000000 0.000000 

0.000000 0.000000 0.000000 
0.000000 -0.000000 0.000000 
0.000000 0.000000 0.000000 

-0.000000 -0.000000 0.000000 
0.000000 -0.000000 0.000000 
0.000000 0.000000 0.000000 

-0.000000 -0.000000 0.000000 
0.000000 -0.000000 0.000000 
0.000000 0.000000 0.000000 

0.000000 -0.000000 0.000000 
0.000000 0.000000 0.000000 
0.000000 0.000000 0.000000 

0.000000 0.000000 0.000000 
0.000000 0.000000 0.000000 
0.000000 0.000000 0.000000 

0.000000 -0.000000 0.000000 
0.000000 0.000000 0.000000 
0.000000 0.000000 0.000000 

-0.000000 0.000000 0.000000 
0.000000 -0.000000 0.000000 
0.000000 0.000000 0.000000 

-974.290171 -0.000000 0.000000 
0.000000 -1190.799098 0.000000 
0.000000 0.000000 0.000000 

0.000000 -0.000000 0.000000 
0.000000 0.000000 0.000000 
0.000000 0.000000 0.000000 

-0.000000 -0.000000 0.000000 
0.000000 -0.000000 0.000000 
0.000000 0.000000 0.000000 

0.000000 0.000000 0.000000 
0.000000 0.000000 0.000000 
0.000000 0.000000 0.000000 

-0.000000 -0.000000 0.000000 
0.000000 -0.000000 0.000000 
0.000000 0.000000 0.000000 

-0.000000 -0.000000 0.000000 
0.000000 -0.000000 0.000000 
0.000000 0.000000 0.000000 

-0.000000 -0.000000 0.000000 
0.000000 0.000000 0.000000 
0.000000 0.000000 0.000000 

0.000000 0.000000 0.000000 
0.000000 0.000000 0.000000 
0.000000 0.000000 0.000000 

-0.000000 -0.000000 0.000000 
0.000000 -0.000000 0.000000 
0.000000 0.000000 0.000000 

0.000000 -0.000000 0.000000 
0.000000 0.000000 0.000000 
0.000000 0.000000 0.000000 

-974.290171 0.000000 0.000000 
0.000000 -1190.799098 0.000000 
0.000000 0.000000 0.000000 

-0.000000 -0.000000 0.000000 
0.000000 -0.000000 0.000000 
0.000000 0.000000 0.000000 

-0.000000 0.000000 0.000000 
0.000000 -0.000000 0.000000 
0.000000 0.000000 0.000000 

0.000000 0.000000 0.000000 
0.000000 0.000000 0.000000 
0.000000 0.000000 0.000000 

0.000000 -0.000000 0.000000 
0.000000 0.000000 0.000000 
0.000000 0.000000 0.000000 

-0.000000 -0.000000 0.000000 
0.000000 -0.000000 0.000000 
0.000000 0.000000 0.000000 

0.000000 -0.000000 0.000000 
0.000000 0.000000 0.000000 
0.000000 0.000000 0.000000 

-0.000000 0.000000 0.000000 
0.000000 0.000000 0.000000 
0.000000 0.000000 0.000000 

-0.000000 0.000000 0.000000 
0.000000 0.000000 0.000000 
0.000000 0.000000 0.000000 

0.000000 -0.000000 0.000000 
0.000000 0.000000 0.000000 
0.000000 0.000000 0.000000 

-974.290171 0.000000 0.000000 
0.000000 -1190.799098 0.000000 
0.000000 0.000000 0.000000 

-0.000000 0.000000 0.000000 
0.000000 0.000000 0.000000 
0.000000 0.000000 0.000000 

0.000000 -0.000000 0.000000 
0.000000 0.000000 0.000000 
0.000000 0.000000 0.000000 

0.000000 -0.000000 0.000000 
0.000000 0.000000 0.000000 
0.000000 0.000000 0.000000 

-0.000000 0.000000 0.000000 
0.000000 -0.000000 0.000000 
0.000000 0.000000 0.000000 

0.000000 -0.000000 0.000000 
0.000000 0.000000 0.000000 
0.000000 0.000000 0.000000 

-0.000000 0.000000 0.000000 
0.000000 -0.000000 0.000000 
0.000000 0.000000 0.000000 

-0.000000 0.000000 0.000000 
0.000000 -0.000000 0.000000 
0.000000 0.000000 0.000000 

-0.000000 0.000000 0.000000 
0.000000 0.000000 0.000000 
0.000000 0.000000 0.000000 

-0.000000 -0.000000 0.000000 
0.000000 -0.000000 0.000000 
0.000000 0.000000 0.000000 

-974.290171 0.000000 0.000000 
0.000000 -1190.799098 0.000000 
0.000000 0.000000 0.000000 

0.000000 0.000000 0.000000 
0.000000 0.000000 0.000000 
0.000000 0.000000 0.000000 

0.000000 0.000000 0.000000 
0.000000 -0.000000 0.000000 
0.000000 0.000000 0.000000 

-0.000000 0.000000 0.000000 
0.000000 -0.000000 0.000000 
0.000000 0.000000 0.000000 

0.000000 -0.000000 0.000000 
0.000000 0.000000 0.000000 
0.000000 0.000000 0.000000 

-0.000000 -0.000000 0.000000 
0.000000 -0.000000 0.000000 
0.000000 0.000000 0.000000 

0.000000 -0.000000 0.000000 
0.000000 0.000000 0.000000 
0.000000 0.000000 0.000000 

-0.000000 0.000000 0.000000 
0.000000 -0.000000 0.000000 
0.000000 0.000000 0.000000 

0.000000 0.000000 0.000000 
0.000000 0.000000 0.000000 
0.000000 0.000000 0.000000 

0.000000 0.000000 0.000000 
0.000000 0.000000 0.000000 
0.000000 0.000000 0.000000 

TENSORS STRAIN float 
-0.000000 -0.000000 0.000000 
0.000000 -0.032447 0.000000 
0.000000 0.000000 0.000000 

-0.000000 -0.000000 0.000000 
0.000000 0.000000 0.000000 
0.000000 0.000000 0.000000 

0.000000 -0.000000 0.000000 
0.000000 0.000000 0.000000 
0.000000 0.000000 0.000000 

0.000000 -0.000000 0.000000 
0.000000 -0.000000 0.000000 
0.000000 0.000000 0.000000 

0.000000 -0.000000 0.000000 
0.000000 0.000000 0.000000 
0.000000 0.000000 0.000000 

0.000000 0.000000 0.000000 
0.000000 -0.000000 0.000000 
0.000000 0.000000 0.000000 

-0.000000 0.000000 0.000000 
0.000000 0.000000 0.000000 
0.000000 0.000000 0.000000 

0.000000 0.000000 0.000000 
0.000000 -0.000000 0.000000 
0.000000 0.000000 0.000000 

0.000000 -0.000000 0.000000 
0.000000 -0.000000 0.000000 
0.000000 0.000000 0.000000 

0.000000 -0.000000 0.000000 
0.000000 -0.000000 0.000000 
0.000000 0.000000 0.000000 

-0.000000 0.000000 0.000000 
0.000000 -0.032447 0.000000 
0.000000 0.000000 0.000000 

0.000000 -0.000000 0.000000 
0.000000 -0.000000 0.000000 
0.000000 0.000000 0.000000 

0.000000 0.000000 0.000000 
0.000000 0.000000 0.000000 
0.000000 0.000000 0.000000 

0.000000 0.000000 0.000000 
0.000000 -0.000000 0.000000 
0.000000 0.000000 0.000000 

0.000000 -0.000000 0.000000 
0.000000 -0.000000 0.000000 
0.000000 0.000000 0.000000 

-0.000000 0.000000 0.000000 
0.000000 0.000000 0.000000 
0.000000 0.000000 0.000000 

0.000000 -0.000000 0.000000 
0.000000 0.000000 0.000000 
0.000000 0.000000 0.000000 

-0.000000 -0.000000 0.000000 
0.000000 0.000000 0.000000 
0.000000 0.000000 0.000000 

-0.000000 -0.000000 0.000000 
0.000000 0.000000 0.000000 
0.000000 0.000000 0.000000 

-0.000000 0.000000 0.000000 
0.000000 0.000000 0.000000 
0.000000 0.000000 0.000000 

-0.000000 -0.000000 0.000000 
0.000000 -0.032447 0.000000 
0.000000 0.000000 0.000000 

0.000000 -0.000000 0.000000 
0.000000 0.000000 0.000000 
0.000000 0.000000 0.000000 

0.000000 0.000000 0.000000 
0.000000 -0.000000 0.000000 
0.000000 0.000000 0.000000 

0.000000 0.000000 0.000000 
0.000000 0.000000 0.000000 
0.000000 0.000000 0.000000 

0.000000 -0.000000 0.000000 
0.000000 -0.000000 0.000000 
0.000000 0.000000 0.000000 

-0.000000 0.000000 0.000000 
0.000000 0.000000 0.000000 
0.000000 0.000000 0.000000 

0.000000 -0.000000 0.000000 
0.000000 -0.000000 0.000000 
0.000000 0.000000 0.000000 

-0.000000 0.000000 0.000000 
0.000000 0.000000 0.000000 
0.000000 0.000000 0.000000 

-0.000000 -0.000000 0.000000 
0.000000 0.000000 0.000000 
0.000000 0.000000 0.000000 

-0.000000 0.000000 0.000000 
0.000000 0.000000 0.000000 
0.000000 0.000000 0.000000 

-0.000000 -0.000000 0.000000 
0.000000 -0.032447 0.000000 
0.000000 0.000000 0.000000 

-0.000000 0.000000 0.000000 
0.000000 0.000000 0.000000 
0.000000 0.000000 0.000000 

0.000000 0.000000 0.000000 
0.000000 0.000000 0.000000 
0.000000 0.000000 0.000000 

0.000000 0.000000 0.000000 
0.000000 -0.000000 0.000000 
0.000000 0.000000 0.000000 

-0.000000 0.000000 0.000000 
0.000000 -0.000000 0.000000 
0.000000 0.000000 0.000000 

0.000000 0.000000 0.000000 
0.000000 0.000000 0.000000 
0.000000 0.000000 0.000000 

-0.000000 0.000000 0.000000 
0.000000 0.000000 0.000000 
0.000000 0.000000 0.000000 

-0.000000 -0.000000 0.000000 
0.000000 0.000000 0.000000 
0.000000 0.000000 0.000000 

-0.000000 -0.000000 0.000000 
0.000000 -0.000000 0.000000 
0.000000 0.000000 0.000000 

0.000000 0.000000 0.000000 
0.000000 -0.000000 0.000000 
0.000000 0.000000 0.000000 

-0.000000 -0.000000 0.000000 
0.000000 -0.032447 0.000000 
0.000000 0.000000 0.000000 

-0.000000 0.000000 0.000000 
0.000000 0.000000 0.000000 
0.000000 0.000000 0.000000 

0.000000 0.000000 0.000000 
0.000000 0.000000 0.000000 
0.000000 0.000000 0.000000 

0.000000 -0.000000 0.000000 
0.000000 -0.000000 0.000000 
0.000000 0.000000 0.000000 

-0.000000 0.000000 0.000000 
0.000000 -0.000000 0.000000 
0.000000 0.000000 0.000000 

-0.000000 0.000000 0.000000 
0.000000 -0.000000 0.000000 
0.000000 0.000000 0.000000 

0.000000 0.000000 0.000000 
0.000000 0.000000 0.000000 
0.000000 0.000000 0.000000 

0.000000 0.000000 0.000000 
0.000000 0.000000 0.000000 
0.000000 0.000000 0.000000 

0.000000 -0.000000 0.000000 
0.000000 -0.000000 0.000000 