# vtk DataFile Version 3.0 
vtk output 
ASCII 
DATASET UNSTRUCTURED_GRID 
POINTS 100 float 
0.476720 -2.905225 0.000000 
0.462635 -2.811525 0.000000 
0.451632 -2.720885 0.000000 
0.451340 -2.618682 0.000000 
0.450917 -2.517917 0.000000 
0.450354 -2.418440 0.000000 
0.450210 -2.318528 0.000000 
0.450106 -2.218628 0.000000 
0.450030 -2.118735 0.000000 
0.450018 -2.018749 0.000000 
0.362407 -2.906407 0.000000 
0.356601 -2.812933 0.000000 
0.351930 -2.721833 0.000000 
0.351177 -2.619097 0.000000 
0.350633 -2.518025 0.000000 
0.350230 -2.418469 0.000000 
0.350125 -2.318543 0.000000 
0.350058 -2.218634 0.000000 
0.350017 -2.118736 0.000000 
0.350010 -2.018750 0.000000 
0.249506 -2.907281 0.000000 
0.252065 -2.813615 0.000000 
0.252932 -2.721379 0.000000 
0.251263 -2.618902 0.000000 
0.250396 -2.518004 0.000000 
0.250132 -2.418461 0.000000 
0.250058 -2.318534 0.000000 
0.250020 -2.218627 0.000000 
0.250006 -2.118734 0.000000 
0.250003 -2.018748 0.000000 
0.151972 -2.907755 0.000000 
0.151651 -2.813834 0.000000 
0.151151 -2.720590 0.000000 
0.150651 -2.618450 0.000000 
0.150321 -2.517815 0.000000 
0.150120 -2.418390 0.000000 
0.150060 -2.318494 0.000000 
0.150024 -2.218610 0.000000 
0.150007 -2.118729 0.000000 
0.150004 -2.018745 0.000000 
0.054223 -2.908057 0.000000 
0.051329 -2.813916 0.000000 
0.049564 -2.719949 0.000000 
0.050052 -2.618075 0.000000 
0.050192 -2.517648 0.000000 
0.050083 -2.418328 0.000000 
0.050048 -2.318460 0.000000 
0.050022 -2.218595 0.000000 
0.050006 -2.118725 0.000000 
0.050004 -2.018742 0.000000 
-0.054223 -2.908057 0.000000 
-0.051329 -2.813916 0.000000 
-0.049564 -2.719949 0.000000 
-0.050052 -2.618075 0.000000 
-0.050192 -2.517648 0.000000 
-0.050083 -2.418328 0.000000 
-0.050048 -2.318460 0.000000 
-0.050022 -2.218595 0.000000 
-0.050006 -2.118725 0.000000 
-0.050004 -2.018742 0.000000 
-0.151972 -2.907755 0.000000 
-0.151651 -2.813834 0.000000 
-0.151151 -2.720590 0.000000 
-0.150651 -2.618450 0.000000 
-0.150321 -2.517815 0.000000 
-0.150120 -2.418390 0.000000 
-0.150060 -2.318494 0.000000 
-0.150024 -2.218610 0.000000 
-0.150007 -2.118729 0.000000 
-0.150004 -2.018745 0.000000 
-0.249506 -2.907281 0.000000 
-0.252065 -2.813615 0.000000 
-0.252932 -2.721379 0.000000 
-0.251263 -2.618902 0.000000 
-0.250396 -2.518004 0.000000 
-0.250132 -2.418461 0.000000 
-0.250058 -2.318534 0.000000 
-0.250020 -2.218627 0.000000 
-0.250006 -2.118734 0.000000 
-0.250003 -2.018748 0.000000 
-0.362407 -2.906407 0.000000 
-0.356601 -2.812933 0.000000 
-0.351930 -2.721833 0.000000 
-0.351177 -2.619097 0.000000 
-0.350633 -2.518025 0.000000 
-0.350230 -2.418469 0.000000 
-0.350125 -2.318543 0.000000 
-0.350058 -2.218634 0.000000 
-0.350017 -2.118736 0.000000 
-0.350010 -2.018750 0.000000 
-0.476720 -2.905225 0.000000 
-0.462635 -2.811525 0.000000 
-0.451632 -2.720885 0.000000 
-0.451340 -2.618682 0.000000 
-0.450917 -2.517917 0.000000 
-0.450354 -2.418440 0.000000 
-0.450210 -2.318528 0.000000 
-0.450106 -2.218628 0.000000 
-0.450030 -2.118735 0.000000 
-0.450018 -2.018749 0.000000 
CELLS 100 200 
1 0 
1 1 
1 2 
1 3 
1 4 
1 5 
1 6 
1 7 
1 8 
1 9 
1 10 
1 11 
1 12 
1 13 
1 14 
1 15 
1 16 
1 17 
1 18 
1 19 
1 20 
1 21 
1 22 
1 23 
1 24 
1 25 
1 26 
1 27 
1 28 
1 29 
1 30 
1 31 
1 32 
1 33 
1 34 
1 35 
1 36 
1 37 
1 38 
1 39 
1 40 
1 41 
1 42 
1 43 
1 44 
1 45 
1 46 
1 47 
1 48 
1 49 
1 50 
1 51 
1 52 
1 53 
1 54 
1 55 
1 56 
1 57 
1 58 
1 59 
1 60 
1 61 
1 62 
1 63 
1 64 
1 65 
1 66 
1 67 
1 68 
1 69 
1 70 
1 71 
1 72 
1 73 
1 74 
1 75 
1 76 
1 77 
1 78 
1 79 
1 80 
1 81 
1 82 
1 83 
1 84 
1 85 
1 86 
1 87 
1 88 
1 89 
1 90 
1 91 
1 92 
1 93 
1 94 
1 95 
1 96 
1 97 
1 98 
1 99 
CELL_TYPES 100 
1 
1 
1 
1 
1 
1 
1 
1 
1 
1 
1 
1 
1 
1 
1 
1 
1 
1 
1 
1 
1 
1 
1 
1 
1 
1 
1 
1 
1 
1 
1 
1 
1 
1 
1 
1 
1 
1 
1 
1 
1 
1 
1 
1 
1 
1 
1 
1 
1 
1 
1 
1 
1 
1 
1 
1 
1 
1 
1 
1 
1 
1 
1 
1 
1 
1 
1 
1 
1 
1 
1 
1 
1 
1 
1 
1 
1 
1 
1 
1 
1 
1 
1 
1 
1 
1 
1 
1 
1 
1 
1 
1 
1 
1 
1 
1 
1 
1 
1 
1 
POINT_DATA 100 
VECTORS X_GC float 
0.476720 -2.905225 0.000000 
0.462635 -2.811525 0.000000 
0.451632 -2.720885 0.000000 
0.451340 -2.618682 0.000000 
0.450917 -2.517917 0.000000 
0.450354 -2.418440 0.000000 
0.450210 -2.318528 0.000000 
0.450106 -2.218628 0.000000 
0.450030 -2.118735 0.000000 
0.450018 -2.018749 0.000000 
0.362407 -2.906407 0.000000 
0.356601 -2.812933 0.000000 
0.351930 -2.721833 0.000000 
0.351177 -2.619097 0.000000 
0.350633 -2.518025 0.000000 
0.350230 -2.418469 0.000000 
0.350125 -2.318543 0.000000 
0.350058 -2.218634 0.000000 
0.350017 -2.118736 0.000000 
0.350010 -2.018750 0.000000 
0.249506 -2.907281 0.000000 
0.252065 -2.813615 0.000000 
0.252932 -2.721379 0.000000 
0.251263 -2.618902 0.000000 
0.250396 -2.518004 0.000000 
0.250132 -2.418461 0.000000 
0.250058 -2.318534 0.000000 
0.250020 -2.218627 0.000000 
0.250006 -2.118734 0.000000 
0.250003 -2.018748 0.000000 
0.151972 -2.907755 0.000000 
0.151651 -2.813834 0.000000 
0.151151 -2.720590 0.000000 
0.150651 -2.618450 0.000000 
0.150321 -2.517815 0.000000 
0.150120 -2.418390 0.000000 
0.150060 -2.318494 0.000000 
0.150024 -2.218610 0.000000 
0.150007 -2.118729 0.000000 
0.150004 -2.018745 0.000000 
0.054223 -2.908057 0.000000 
0.051329 -2.813916 0.000000 
0.049564 -2.719949 0.000000 
0.050052 -2.618075 0.000000 
0.050192 -2.517648 0.000000 
0.050083 -2.418328 0.000000 
0.050048 -2.318460 0.000000 
0.050022 -2.218595 0.000000 
0.050006 -2.118725 0.000000 
0.050004 -2.018742 0.000000 
-0.054223 -2.908057 0.000000 
-0.051329 -2.813916 0.000000 
-0.049564 -2.719949 0.000000 
-0.050052 -2.618075 0.000000 
-0.050192 -2.517648 0.000000 
-0.050083 -2.418328 0.000000 
-0.050048 -2.318460 0.000000 
-0.050022 -2.218595 0.000000 
-0.050006 -2.118725 0.000000 
-0.050004 -2.018742 0.000000 
-0.151972 -2.907755 0.000000 
-0.151651 -2.813834 0.000000 
-0.151151 -2.720590 0.000000 
-0.150651 -2.618450 0.000000 
-0.150321 -2.517815 0.000000 
-0.150120 -2.418390 0.000000 
-0.150060 -2.318494 0.000000 
-0.150024 -2.218610 0.000000 
-0.150007 -2.118729 0.000000 
-0.150004 -2.018745 0.000000 
-0.249506 -2.907281 0.000000 
-0.252065 -2.813615 0.000000 
-0.252932 -2.721379 0.000000 
-0.251263 -2.618902 0.000000 
-0.250396 -2.518004 0.000000 
-0.250132 -2.418461 0.000000 
-0.250058 -2.318534 0.000000 
-0.250020 -2.218627 0.000000 
-0.250006 -2.118734 0.000000 
-0.250003 -2.018748 0.000000 
-0.362407 -2.906407 0.000000 
-0.356601 -2.812933 0.000000 
-0.351930 -2.721833 0.000000 
-0.351177 -2.619097 0.000000 
-0.350633 -2.518025 0.000000 
-0.350230 -2.418469 0.000000 
-0.350125 -2.318543 0.000000 
-0.350058 -2.218634 0.000000 
-0.350017 -2.118736 0.000000 
-0.350010 -2.018750 0.000000 
-0.476720 -2.905225 0.000000 
-0.462635 -2.811525 0.000000 
-0.451632 -2.720885 0.000000 
-0.451340 -2.618682 0.000000 
-0.450917 -2.517917 0.000000 
-0.450354 -2.418440 0.000000 
-0.450210 -2.318528 0.000000 
-0.450106 -2.218628 0.000000 
-0.450030 -2.118735 0.000000 
-0.450018 -2.018749 0.000000 
VECTORS X_EC float 
-0.197364 -0.279467 0.000000 
-0.014259 0.455582 0.000000 
0.128782 -0.768049 0.000000 
0.132578 -0.147790 0.000000 
0.138082 0.491875 0.000000 
0.145398 -0.851065 0.000000 
0.147271 -0.199873 0.000000 
0.148627 0.451472 0.000000 
0.149608 -0.897076 0.000000 
0.149761 -0.246883 0.000000 
-0.711297 -0.263510 0.000000 
-0.635813 0.474594 0.000000 
-0.575096 -0.755250 0.000000 
-0.565296 -0.142193 0.000000 
-0.558235 0.493336 0.000000 
-0.552986 -0.850665 0.000000 
-0.551630 -0.199665 0.000000 
-0.550760 0.451557 0.000000 
-0.550224 -0.897061 0.000000 
-0.550133 -0.246876 0.000000 
0.756416 -0.251701 0.000000 
0.723159 0.483803 0.000000 
0.711879 -0.761381 0.000000 
0.733582 -0.144824 0.000000 
0.744857 0.493049 0.000000 
0.748286 -0.850780 0.000000 
0.749242 -0.199794 0.000000 
0.749743 0.451467 0.000000 
0.749918 -0.897092 0.000000 
0.749958 -0.246902 0.000000 
0.024369 -0.245313 0.000000 
0.028541 0.486758 0.000000 
0.035043 -0.772039 0.000000 
0.041539 -0.150922 0.000000 
0.045825 0.490502 0.000000 
0.048437 -0.851732 0.000000 
0.049221 -0.200327 0.000000 
0.049694 0.451229 0.000000 
0.049913 -0.897158 0.000000 
0.049948 -0.246949 0.000000 
-0.704893 -0.241233 0.000000 
-0.667280 0.487868 0.000000 
-0.644335 -0.780689 0.000000 
-0.650679 -0.155993 0.000000 
-0.652498 0.488243 0.000000 
-0.651073 -0.852574 0.000000 
-0.650618 -0.200787 0.000000 
-0.650285 0.451030 0.000000 
-0.650075 -0.897213 0.000000 
-0.650049 -0.246987 0.000000 
0.704893 -0.241233 0.000000 
0.667280 0.487868 0.000000 
0.644335 -0.780689 0.000000 
0.650679 -0.155993 0.000000 
0.652498 0.488243 0.000000 
0.651073 -0.852574 0.000000 
0.650618 -0.200787 0.000000 
0.650285 0.451030 0.000000 
0.650075 -0.897213 0.000000 
0.650049 -0.246987 0.000000 
-0.024369 -0.245313 0.000000 
-0.028541 0.486758 0.000000 
-0.035043 -0.772039 0.000000 
-0.041539 -0.150922 0.000000 
-0.045825 0.490502 0.000000 
-0.048437 -0.851732 0.000000 
-0.049221 -0.200327 0.000000 
-0.049694 0.451229 0.000000 
-0.049913 -0.897158 0.000000 
-0.049948 -0.246949 0.000000 
-0.756416 -0.251701 0.000000 
-0.723159 0.483803 0.000000 
-0.711879 -0.761381 0.000000 
-0.733582 -0.144824 0.000000 
-0.744857 0.493049 0.000000 
-0.748286 -0.850780 0.000000 
-0.749242 -0.199794 0.000000 
-0.749743 0.451467 0.000000 
-0.749918 -0.897092 0.000000 
-0.749958 -0.246902 0.000000 
0.711297 -0.263510 0.000000 
0.635813 0.474594 0.000000 
0.575096 -0.755250 0.000000 
0.565296 -0.142193 0.000000 
0.558235 0.493336 0.000000 
0.552986 -0.850665 0.000000 
0.551630 -0.199665 0.000000 
0.550760 0.451557 0.000000 
0.550224 -0.897061 0.000000 
0.550133 -0.246876 0.000000 
0.197364 -0.279467 0.000000 
0.014259 0.455582 0.000000 
-0.128782 -0.768049 0.000000 
-0.132578 -0.147790 0.000000 
-0.138082 0.491875 0.000000 
-0.145398 -0.851065 0.000000 
-0.147271 -0.199873 0.000000 
-0.148627 0.451472 0.000000 
-0.149608 -0.897076 0.000000 
-0.149761 -0.246883 0.000000 
CELL_DATA 100 
SCALARS MASS float 
LOOKUP_TABLE default 
10.000000 
10.000000 
10.000000 
10.000000 
10.000000 
10.000000 
10.000000 
10.000000 
10.000000 
10.000000 
10.000000 
10.000000 
10.000000 
10.000000 
10.000000 
10.000000 
10.000000 
10.000000 
10.000000 
10.000000 
10.000000 
10.000000 
10.000000 
10.000000 
10.000000 
10.000000 
10.000000 
10.000000 
10.000000 
10.000000 
10.000000 
10.000000 
10.000000 
10.000000 
10.000000 
10.000000 
10.000000 
10.000000 
10.000000 
10.000000 
10.000000 
10.000000 
10.000000 
10.000000 
10.000000 
10.000000 
10.000000 
10.000000 
10.000000 
10.000000 
10.000000 
10.000000 
10.000000 
10.000000 
10.000000 
10.000000 
10.000000 
10.000000 
10.000000 
10.000000 
10.000000 
10.000000 
10.000000 
10.000000 
10.000000 
10.000000 
10.000000 
10.000000 
10.000000 
10.000000 
10.000000 
10.000000 
10.000000 
10.000000 
10.000000 
10.000000 
10.000000 
10.000000 
10.000000 
10.000000 
10.000000 
10.000000 
10.000000 
10.000000 
10.000000 
10.000000 
10.000000 
10.000000 
10.000000 
10.000000 
10.000000 
10.000000 
10.000000 
10.000000 
10.000000 
10.000000 
10.000000 
10.000000 
10.000000 
10.000000 
SCALARS MASS float 
LOOKUP_TABLE default 
10.000000 
10.000000 
10.000000 
10.000000 
10.000000 
10.000000 
10.000000 
10.000000 
10.000000 
10.000000 
10.000000 
10.000000 
10.000000 
10.000000 
10.000000 
10.000000 
10.000000 
10.000000 
10.000000 
10.000000 
10.000000 
10.000000 
10.000000 
10.000000 
10.000000 
10.000000 
10.000000 
10.000000 
10.000000 
10.000000 
10.000000 
10.000000 
10.000000 
10.000000 
10.000000 
10.000000 
10.000000 
10.000000 
10.000000 
10.000000 
10.000000 
10.000000 
10.000000 
10.000000 
10.000000 
10.000000 
10.000000 
10.000000 
10.000000 
10.000000 
10.000000 
10.000000 
10.000000 
10.000000 
10.000000 
10.000000 
10.000000 
10.000000 
10.000000 
10.000000 
10.000000 
10.000000 
10.000000 
10.000000 
10.000000 
10.000000 
10.000000 
10.000000 
10.000000 
10.000000 
10.000000 
10.000000 
10.000000 
10.000000 
10.000000 
10.000000 
10.000000 
10.000000 
10.000000 
10.000000 
10.000000 
10.000000 
10.000000 
10.000000 
10.000000 
10.000000 
10.000000 
10.000000 
10.000000 
10.000000 
10.000000 
10.000000 
10.000000 
10.000000 
10.000000 
10.000000 
10.000000 
10.000000 
10.000000 
10.000000 
SCALARS DENSITY float 
LOOKUP_TABLE default 
15740.207479 
711.850587 
1092.877503 
1033.918810 
1002.398472 
1005.168709 
1006.150944 
1001.229060 
1000.476068 
1000.380766 
14725.848593 
705.000523 
1103.451336 
1028.604388 
1001.165291 
1004.180098 
1005.682116 
1001.130151 
1000.436810 
1000.361175 
15223.605512 
686.225606 
1094.266485 
1030.889200 
1003.134796 
1004.538998 
1005.788486 
1001.210914 
1000.460937 
1000.376284 
52215.283536 
1002.562762 
1090.015154 
1030.780666 
1011.373279 
1010.565035 
1008.483778 
1002.234498 
1000.787007 
1000.538143 
22979.374225 
748.747805 
1085.446514 
1040.749415 
1012.490552 
1007.515872 
1007.218610 
1001.710095 
1000.638536 
1000.473394 
22979.374225 
748.747805 
1085.446514 
1040.749415 
1012.490552 
1007.515872 
1007.218610 
1001.710095 
1000.638536 
1000.473394 
52215.283536 
1002.562762 
1090.015154 
1030.780666 
1011.373279 
1010.565035 
1008.483778 
1002.234498 
1000.787007 
1000.538143 
15223.605512 
686.225606 
1094.266485 
1030.889200 
1003.134796 
1004.538998 
1005.788486 
1001.210914 
1000.460937 
1000.376284 
14725.848593 
705.000523 
1103.451336 
1028.604388 
1001.165291 
1004.180098 
1005.682116 
1001.130151 
1000.436810 
1000.361175 
15740.207479 
711.850587 
1092.877503 
1033.918810 
1002.398472 
1005.168709 
1006.150944 
1001.229060 
1000.476068 
1000.380766 
SCALARS ELEM_i float 
LOOKUP_TABLE default 
81 
82 
82 
83 
84 
84 
85 
86 
86 
87 
108 
109 
109 
110 
111 
111 
112 
113 
113 
114 
108 
109 
109 
110 
111 
111 
112 
113 
113 
114 
135 
136 
136 
137 
138 
138 
139 
140 
140 
141 
162 
163 
163 
164 
165 
165 
166 
167 
167 
168 
162 
163 
163 
164 
165 
165 
166 
167 
167 
168 
189 
190 
190 
191 
192 
192 
193 
194 
194 
195 
216 
217 
217 
218 
219 
219 
220 
221 
221 
222 
216 
217 
217 
218 
219 
219 
220 
221 
221 
222 
243 
244 
244 
245 
246 
246 
247 
248 
248 
249 
VECTORS VELOCITY float 
5.559745 -8.642309 0.000000 
0.493255 -0.169165 0.000000 
-0.284586 -9.941450 0.000000 
0.447956 -7.103213 0.000000 
0.276932 -6.574741 0.000000 
0.083577 -6.963859 0.000000 
0.085973 -6.873287 0.000000 
0.054303 -6.887239 0.000000 
0.012468 -6.943361 0.000000 
0.009764 -6.941296 0.000000 
1.356954 -9.969154 0.000000 
0.103620 -1.408689 0.000000 
0.425083 -10.500723 0.000000 
0.349483 -7.357327 0.000000 
0.124182 -6.659268 0.000000 
0.046957 -6.984366 0.000000 
0.037856 -6.887430 0.000000 
0.020900 -6.894863 0.000000 
0.005146 -6.944706 0.000000 
0.004010 -6.942087 0.000000 
-0.792471 -10.227112 0.000000 
1.398691 -1.534878 0.000000 
1.555208 -10.056461 0.000000 
0.402057 -7.247495 0.000000 
0.037296 -6.700619 0.000000 
0.056338 -6.979735 0.000000 
0.018955 -6.881358 0.000000 
0.002249 -6.891683 0.000000 
0.001776 -6.943509 0.000000 
0.000638 -6.940798 0.000000 
0.609001 -10.434603 0.000000 
0.453341 -1.616890 0.000000 
0.220049 -9.660011 0.000000 
0.160384 -7.101282 0.000000 
0.116180 -6.671103 0.000000 
0.056318 -6.943730 0.000000 
0.028422 -6.860932 0.000000 
0.010710 -6.884320 0.000000 
0.003289 -6.941440 0.000000 
0.002232 -6.938778 0.000000 
1.460136 -10.580847 0.000000 
-0.459219 -1.670807 0.000000 
-0.770426 -9.380772 0.000000 
-0.043361 -6.988247 0.000000 
0.131850 -6.637035 0.000000 
0.035550 -6.911904 0.000000 
0.026192 -6.843505 0.000000 
0.014050 -6.878211 0.000000 
0.003409 -6.939776 0.000000 
0.002769 -6.937175 0.000000 
-1.460136 -10.580847 0.000000 
0.459219 -1.670807 0.000000 
0.770426 -9.380772 0.000000 
0.043361 -6.988247 0.000000 
-0.131850 -6.637035 0.000000 
-0.035550 -6.911904 0.000000 
-0.026192 -6.843505 0.000000 
-0.014050 -6.878211 0.000000 
-0.003409 -6.939776 0.000000 
-0.002769 -6.937175 0.000000 
-0.609001 -10.434603 0.000000 
-0.453341 -1.616890 0.000000 
-0.220049 -9.660011 0.000000 
-0.160384 -7.101282 0.000000 
-0.116180 -6.671103 0.000000 
-0.056318 -6.943730 0.000000 
-0.028422 -6.860932 0.000000 
-0.010710 -6.884320 0.000000 
-0.003289 -6.941440 0.000000 
-0.002232 -6.938778 0.000000 
0.792471 -10.227112 0.000000 
-1.398691 -1.534878 0.000000 
-1.555208 -10.056461 0.000000 
-0.402057 -7.247495 0.000000 
-0.037296 -6.700619 0.000000 
-0.056338 -6.979735 0.000000 
-0.018955 -6.881358 0.000000 
-0.002249 -6.891683 0.000000 
-0.001776 -6.943509 0.000000 
-0.000638 -6.940798 0.000000 
-1.356954 -9.969154 0.000000 
-0.103620 -1.408689 0.000000 
-0.425083 -10.500723 0.000000 
-0.349483 -7.357327 0.000000 
-0.124182 -6.659268 0.000000 
-0.046957 -6.984366 0.000000 
-0.037856 -6.887430 0.000000 
-0.020900 -6.894863 0.000000 
-0.005146 -6.944706 0.000000 
-0.004010 -6.942087 0.000000 
-5.559745 -8.642309 0.000000 
-0.493255 -0.169165 0.000000 
0.284586 -9.941450 0.000000 
-0.447956 -7.103213 0.000000 
-0.276932 -6.574741 0.000000 
-0.083577 -6.963859 0.000000 
-0.085973 -6.873287 0.000000 
-0.054303 -6.887239 0.000000 
-0.012468 -6.943361 0.000000 
-0.009764 -6.941296 0.000000 
TENSORS STRESS float 
-544.300519 -25.597187 0.000000 
0.000000 -766.785594 0.000000 
0.000000 0.000000 0.000000 

2153.057356 -1120.279382 0.000000 
0.000000 1407.443666 0.000000 
0.000000 0.000000 0.000000 

-923.442319 -224.603923 0.000000 
0.000000 -1188.093682 0.000000 
0.000000 0.000000 0.000000 

211.947643 -10.338034 0.000000 
0.000000 234.018653 0.000000 
0.000000 0.000000 0.000000 

-10.402986 -23.989228 0.000000 
0.000000 -39.641078 0.000000 
0.000000 0.000000 0.000000 

-28.493446 -16.652206 0.000000 
0.000000 -49.420605 0.000000 
0.000000 0.000000 0.000000 

-27.665293 -8.879635 0.000000 
0.000000 -41.324830 0.000000 
0.000000 0.000000 0.000000 

-13.381725 -3.079864 0.000000 
0.000000 -19.850840 0.000000 
0.000000 0.000000 0.000000 

-7.880588 -1.459382 0.000000 
0.000000 -10.762608 0.000000 
0.000000 0.000000 0.000000 

-3.216480 -0.622957 0.000000 
0.000000 -4.534661 0.000000 
0.000000 0.000000 0.000000 

-583.123132 -10.227711 0.000000 
0.000000 -823.481352 0.000000 
0.000000 0.000000 0.000000 

1909.976539 -499.333240 0.000000 
0.000000 1183.759003 0.000000 
0.000000 0.000000 0.000000 

-1094.214411 -142.101623 0.000000 
0.000000 -1307.552896 0.000000 
0.000000 0.000000 0.000000 

236.980041 -48.443683 0.000000 
0.000000 297.199213 0.000000 
0.000000 0.000000 0.000000 

0.853525 -28.917201 0.000000 
0.000000 -26.001757 0.000000 
0.000000 0.000000 0.000000 

-18.338915 -14.631313 0.000000 
0.000000 -38.337834 0.000000 
0.000000 0.000000 0.000000 

-23.143641 -6.772469 0.000000 
0.000000 -36.487262 0.000000 
0.000000 0.000000 0.000000 

-12.073912 -2.487169 0.000000 
0.000000 -18.684535 0.000000 
0.000000 0.000000 0.000000 

-7.308203 -1.103750 0.000000 
0.000000 -10.239700 0.000000 
0.000000 0.000000 0.000000 

-2.904264 -0.482555 0.000000 
0.000000 -4.251095 0.000000 
0.000000 0.000000 0.000000 

-579.053050 6.813668 0.000000 
0.000000 -815.011611 0.000000 
0.000000 0.000000 0.000000 

2349.497710 151.374984 0.000000 
0.000000 1687.492030 0.000000 
0.000000 0.000000 0.000000 

-973.194372 -10.335779 0.000000 
0.000000 -1158.523018 0.000000 
0.000000 0.000000 0.000000 

213.526859 -69.473869 0.000000 
0.000000 268.387187 0.000000 
0.000000 0.000000 0.000000 

-14.335306 -23.860922 0.000000 
0.000000 -44.509475 0.000000 
0.000000 0.000000 0.000000 

-22.883750 -10.156918 0.000000 
0.000000 -43.886535 0.000000 
0.000000 0.000000 0.000000 

-22.992354 -3.350093 0.000000 
0.000000 -36.301269 0.000000 
0.000000 0.000000 0.000000 

-13.046682 -1.249049 0.000000 
0.000000 -19.873063 0.000000 
0.000000 0.000000 0.000000 

-7.719105 -0.537287 0.000000 
0.000000 -10.741869 0.000000 
0.000000 0.000000 0.000000 

-3.035826 -0.218160 0.000000 
0.000000 -4.411879 0.000000 
0.000000 0.000000 0.000000 

-279.324278 0.373740 0.000000 
0.000000 -328.924303 0.000000 
0.000000 0.000000 0.000000 

-757.722374 -19.890885 0.000000 
0.000000 -685.083369 0.000000 
0.000000 0.000000 0.000000 

-400.891877 -60.842063 0.000000 
0.000000 -648.821379 0.000000 
0.000000 0.000000 0.000000 

372.791927 -57.369563 0.000000 
0.000000 372.204181 0.000000 
0.000000 0.000000 0.000000 

-76.829321 -24.975419 0.000000 
0.000000 -111.798181 0.000000 
0.000000 0.000000 0.000000 

-83.722606 -9.761227 0.000000 
0.000000 -100.713314 0.000000 
0.000000 0.000000 0.000000 

-51.447407 -4.713294 0.000000 
0.000000 -61.873152 0.000000 
0.000000 0.000000 0.000000 

-26.977806 -1.829515 0.000000 
0.000000 -32.441680 0.000000 
0.000000 0.000000 0.000000 

-12.667688 -0.645228 0.000000 
0.000000 -15.303548 0.000000 
0.000000 0.000000 0.000000 

-5.420891 -0.286763 0.000000 
0.000000 -6.531268 0.000000 
0.000000 0.000000 0.000000 

-467.239942 -2.879626 0.000000 
0.000000 -611.661681 0.000000 
0.000000 0.000000 0.000000 

1655.700632 -162.527440 0.000000 
0.000000 1360.956708 0.000000 
0.000000 0.000000 0.000000 

-653.069802 -43.738725 0.000000 
0.000000 -827.332400 0.000000 
0.000000 0.000000 0.000000 

169.783146 1.218416 0.000000 
0.000000 183.205814 0.000000 
0.000000 0.000000 0.000000 

-80.551535 -2.974074 0.000000 
0.000000 -128.614514 0.000000 
0.000000 0.000000 0.000000 

-52.001347 -2.231472 0.000000 
0.000000 -81.080178 0.000000 
0.000000 0.000000 0.000000 

-32.309283 -1.939872 0.000000 
0.000000 -48.368353 0.000000 
0.000000 0.000000 0.000000 

-19.010576 -0.628277 0.000000 
0.000000 -26.928314 0.000000 
0.000000 0.000000 0.000000 

-10.720945 -0.269516 0.000000 
0.000000 -14.148003 0.000000 
0.000000 0.000000 0.000000 

-4.125167 -0.101650 0.000000 
0.000000 -5.614285 0.000000 
0.000000 0.000000 0.000000 

-467.239942 2.879626 0.000000 
0.000000 -611.661681 0.000000 
0.000000 0.000000 0.000000 

1655.700632 162.527440 0.000000 
0.000000 1360.956708 0.000000 
0.000000 0.000000 0.000000 

-653.069802 43.738725 0.000000 
0.000000 -827.332400 0.000000 
0.000000 0.000000 0.000000 

169.783146 -1.218416 0.000000 
0.000000 183.205814 0.000000 
0.000000 0.000000 0.000000 

-80.551535 2.974074 0.000000 
0.000000 -128.614514 0.000000 
0.000000 0.000000 0.000000 

-52.001347 2.231472 0.000000 
0.000000 -81.080178 0.000000 
0.000000 0.000000 0.000000 

-32.309283 1.939872 0.000000 
0.000000 -48.368353 0.000000 
0.000000 0.000000 0.000000 

-19.010576 0.628277 0.000000 
0.000000 -26.928314 0.000000 
0.000000 0.000000 0.000000 

-10.720945 0.269516 0.000000 
0.000000 -14.148003 0.000000 
0.000000 0.000000 0.000000 

-4.125167 0.101650 0.000000 
0.000000 -5.614285 0.000000 
0.000000 0.000000 0.000000 

-279.324278 -0.373740 0.000000 
0.000000 -328.924303 0.000000 
0.000000 0.000000 0.000000 

-757.722374 19.890885 0.000000 
0.000000 -685.083369 0.000000 
0.000000 0.000000 0.000000 

-400.891877 60.842063 0.000000 
0.000000 -648.821379 0.000000 
0.000000 0.000000 0.000000 

372.791927 57.369563 0.000000 
0.000000 372.204181 0.000000 
0.000000 0.000000 0.000000 

-76.829321 24.975419 0.000000 
0.000000 -111.798181 0.000000 
0.000000 0.000000 0.000000 

-83.722606 9.761227 0.000000 
0.000000 -100.713314 0.000000 
0.000000 0.000000 0.000000 

-51.447407 4.713294 0.000000 
0.000000 -61.873152 0.000000 
0.000000 0.000000 0.000000 

-26.977806 1.829515 0.000000 
0.000000 -32.441680 0.000000 
0.000000 0.000000 0.000000 

-12.667688 0.645228 0.000000 
0.000000 -15.303548 0.000000 
0.000000 0.000000 0.000000 

-5.420891 0.286763 0.000000 
0.000000 -6.531268 0.000000 
0.000000 0.000000 0.000000 

-579.053050 -6.813668 0.000000 
0.000000 -815.011611 0.000000 
0.000000 0.000000 0.000000 

2349.497710 -151.374984 0.000000 
0.000000 1687.492030 0.000000 
0.000000 0.000000 0.000000 

-973.194372 10.335779 0.000000 
0.000000 -1158.523018 0.000000 
0.000000 0.000000 0.000000 

213.526859 69.473869 0.000000 
0.000000 268.387187 0.000000 
0.000000 0.000000 0.000000 

-14.335306 23.860922 0.000000 
0.000000 -44.509475 0.000000 
0.000000 0.000000 0.000000 

-22.883750 10.156918 0.000000 
0.000000 -43.886535 0.000000 
0.000000 0.000000 0.000000 

-22.992354 3.350093 0.000000 
0.000000 -36.301269 0.000000 
0.000000 0.000000 0.000000 

-13.046682 1.249049 0.000000 
0.000000 -19.873063 0.000000 
0.000000 0.000000 0.000000 

-7.719105 0.537287 0.000000 
0.000000 -10.741869 0.000000 
0.000000 0.000000 0.000000 

-3.035826 0.218160 0.000000 
0.000000 -4.411879 0.000000 
0.000000 0.000000 0.000000 

-583.123132 10.227711 0.000000 
0.000000 -823.481352 0.000000 
0.000000 0.000000 0.000000 

1909.976539 499.333240 0.000000 
0.000000 1183.759003 0.000000 
0.000000 0.000000 0.000000 

-1094.214411 142.101623 0.000000 
0.000000 -1307.552896 0.000000 
0.000000 0.000000 0.000000 

236.980041 48.443683 0.000000 
0.000000 297.199213 0.000000 
0.000000 0.000000 0.000000 

0.853525 28.917201 0.000000 
0.000000 -26.001757 0.000000 
0.000000 0.000000 0.000000 

-18.338915 14.631313 0.000000 
0.000000 -38.337834 0.000000 
0.000000 0.000000 0.000000 

-23.143641 6.772469 0.000000 
0.000000 -36.487262 0.000000 
0.000000 0.000000 0.000000 

-12.073912 2.487169 0.000000 
0.000000 -18.684535 0.000000 
0.000000 0.000000 0.000000 

-7.308203 1.103750 0.000000 
0.000000 -10.239700 0.000000 
0.000000 0.000000 0.000000 

-2.904264 0.482555 0.000000 
0.000000 -4.251095 0.000000 
0.000000 0.000000 0.000000 

-544.300519 25.597187 0.000000 
0.000000 -766.785594 0.000000 
0.000000 0.000000 0.000000 

2153.057356 1120.279382 0.000000 
0.000000 1407.443666 0.000000 
0.000000 0.000000 0.000000 

-923.442319 224.603923 0.000000 
0.000000 -1188.093682 0.000000 
0.000000 0.000000 0.000000 

211.947643 10.338034 0.000000 
0.000000 234.018653 0.000000 
0.000000 0.000000 0.000000 

-10.402986 23.989228 0.000000 
0.000000 -39.641078 0.000000 
0.000000 0.000000 0.000000 

-28.493446 16.652206 0.000000 
0.000000 -49.420605 0.000000 
0.000000 0.000000 0.000000 

-27.665293 8.879635 0.000000 
0.000000 -41.324830 0.000000 
0.000000 0.000000 0.000000 

-13.381725 3.079864 0.000000 
0.000000 -19.850840 0.000000 
0.000000 0.000000 0.000000 

-7.880588 1.459382 0.000000 
0.000000 -10.762608 0.000000 
0.000000 0.000000 0.000000 

-3.216480 0.622957 0.000000 
0.000000 -4.534661 0.000000 
0.000000 0.000000 0.000000 

TENSORS STRAIN float 
0.104276 -0.058421 0.000000 
0.000000 -0.403509 0.000000 
0.000000 0.000000 0.000000 

0.056856 -0.115633 0.000000 
0.000000 -0.020105 0.000000 
0.000000 0.000000 0.000000 

0.004239 -0.035592 0.000000 
0.000000 -0.037700 0.000000 
0.000000 0.000000 0.000000 

0.001689 -0.001550 0.000000 
0.000000 0.004997 0.000000 
0.000000 0.000000 0.000000 

0.001761 -0.003487 0.000000 
0.000000 -0.002489 0.000000 
0.000000 0.000000 0.000000 

0.000957 -0.002427 0.000000 
0.000000 -0.002093 0.000000 
0.000000 0.000000 0.000000 

0.000493 -0.001295 0.000000 
0.000000 -0.001500 0.000000 
0.000000 0.000000 0.000000 

0.000228 -0.000447 0.000000 
0.000000 -0.000711 0.000000 
0.000000 0.000000 0.000000 

0.000074 -0.000212 0.000000 
0.000000 -0.000344 0.000000 
0.000000 0.000000 0.000000 

0.000039 -0.000090 0.000000 
0.000000 -0.000152 0.000000 
0.000000 0.000000 0.000000 

0.106440 -0.021839 0.000000 
0.000000 -0.406785 0.000000 
0.000000 0.000000 0.000000 

0.052932 -0.051044 0.000000 
0.000000 -0.021306 0.000000 
0.000000 0.000000 0.000000 

-0.002147 -0.022736 0.000000 
0.000000 -0.036281 0.000000 
0.000000 0.000000 0.000000 

-0.000507 -0.007225 0.000000 
0.000000 0.008474 0.000000 
0.000000 0.000000 0.000000 

0.001767 -0.004198 0.000000 
0.000000 -0.002132 0.000000 
0.000000 0.000000 0.000000 

0.001043 -0.002130 0.000000 
0.000000 -0.001869 0.000000 
0.000000 0.000000 0.000000 

0.000538 -0.000988 0.000000 
0.000000 -0.001408 0.000000 
0.000000 0.000000 0.000000 

0.000257 -0.000361 0.000000 
0.000000 -0.000703 0.000000 
0.000000 0.000000 0.000000 

0.000085 -0.000160 0.000000 
0.000000 -0.000340 0.000000 
0.000000 0.000000 0.000000 

0.000046 -0.000070 0.000000 
0.000000 -0.000150 0.000000 
0.000000 0.000000 0.000000 

0.106566 0.015041 0.000000 
0.000000 -0.414295 0.000000 
0.000000 0.000000 0.000000 

0.053020 0.015062 0.000000 
0.000000 -0.012851 0.000000 
0.000000 0.000000 0.000000 

-0.002209 -0.001640 0.000000 
0.000000 -0.031615 0.000000 
0.000000 0.000000 0.000000 

-0.000498 -0.010385 0.000000 
0.000000 0.007702 0.000000 
0.000000 0.000000 0.000000 

0.001767 -0.003471 0.000000 
0.000000 -0.002622 0.000000 
0.000000 0.000000 0.000000 

0.001043 -0.001479 0.000000 
0.000000 -0.002016 0.000000 
0.000000 0.000000 0.000000 

0.000538 -0.000489 0.000000 
0.000000 -0.001403 0.000000 
0.000000 0.000000 0.000000 

0.000257 -0.000181 0.000000 
0.000000 -0.000734 0.000000 
0.000000 0.000000 0.000000 

0.000085 -0.000078 0.000000 
0.000000 -0.000353 0.000000 
0.000000 0.000000 0.000000 

0.000046 -0.000032 0.000000 
0.000000 -0.000154 0.000000 
0.000000 0.000000 0.000000 

-0.042493 0.002830 0.000000 
0.000000 -0.418025 0.000000 
0.000000 0.000000 0.000000 

-0.015767 -0.002892 0.000000 
0.000000 -0.005207 0.000000 
0.000000 0.000000 0.000000 

0.011297 -0.009616 0.000000 
0.000000 -0.027888 0.000000 
0.000000 0.000000 0.000000 

0.005611 -0.008575 0.000000 
0.000000 0.005524 0.000000 
0.000000 0.000000 0.000000 

0.001181 -0.003663 0.000000 
0.000000 -0.003947 0.000000 
0.000000 0.000000 0.000000 

-0.000106 -0.001430 0.000000 
0.000000 -0.002596 0.000000 
0.000000 0.000000 0.000000 

-0.000066 -0.000689 0.000000 
0.000000 -0.001591 0.000000 
0.000000 0.000000 0.000000 

-0.000035 -0.000266 0.000000 
0.000000 -0.000829 0.000000 
0.000000 0.000000 0.000000 

-0.000012 -0.000094 0.000000 
0.000000 -0.000394 0.000000 
0.000000 0.000000 0.000000 

-0.000006 -0.000042 0.000000 
0.000000 -0.000167 0.000000 
0.000000 0.000000 0.000000 

0.060862 -0.009595 0.000000 
0.000000 -0.420353 0.000000 
0.000000 0.000000 0.000000 

0.032376 -0.017645 0.000000 
0.000000 0.000376 0.000000 
0.000000 0.000000 0.000000 

0.002064 -0.006884 0.000000 
0.000000 -0.025364 0.000000 
0.000000 0.000000 0.000000 

0.001651 0.000184 0.000000 
0.000000 0.003676 0.000000 
0.000000 0.000000 0.000000 
