# vtk DataFile Version 3.0 
vtk output 
ASCII 
DATASET UNSTRUCTURED_GRID 
POINTS 100 float 
0.450000 -0.760622 0.000000 
0.450000 -0.660622 0.000000 
0.450000 -0.560622 0.000000 
0.450000 -0.460622 0.000000 
0.450000 -0.360622 0.000000 
0.450000 -0.260622 0.000000 
0.450000 -0.160622 0.000000 
0.450000 -0.060622 0.000000 
0.450000 0.039378 0.000000 
0.450000 0.139378 0.000000 
0.350000 -0.760622 0.000000 
0.350000 -0.660622 0.000000 
0.350000 -0.560622 0.000000 
0.350000 -0.460622 0.000000 
0.350000 -0.360622 0.000000 
0.350000 -0.260622 0.000000 
0.350000 -0.160622 0.000000 
0.350000 -0.060622 0.000000 
0.350000 0.039378 0.000000 
0.350000 0.139378 0.000000 
0.250000 -0.760622 0.000000 
0.250000 -0.660622 0.000000 
0.250000 -0.560622 0.000000 
0.250000 -0.460622 0.000000 
0.250000 -0.360622 0.000000 
0.250000 -0.260622 0.000000 
0.250000 -0.160622 0.000000 
0.250000 -0.060622 0.000000 
0.250000 0.039378 0.000000 
0.250000 0.139378 0.000000 
0.150000 -0.760622 0.000000 
0.150000 -0.660622 0.000000 
0.150000 -0.560622 0.000000 
0.150000 -0.460622 0.000000 
0.150000 -0.360622 0.000000 
0.150000 -0.260622 0.000000 
0.150000 -0.160622 0.000000 
0.150000 -0.060622 0.000000 
0.150000 0.039378 0.000000 
0.150000 0.139378 0.000000 
0.050000 -0.760622 0.000000 
0.050000 -0.660622 0.000000 
0.050000 -0.560622 0.000000 
0.050000 -0.460622 0.000000 
0.050000 -0.360622 0.000000 
0.050000 -0.260622 0.000000 
0.050000 -0.160622 0.000000 
0.050000 -0.060622 0.000000 
0.050000 0.039378 0.000000 
0.050000 0.139378 0.000000 
-0.050000 -0.760622 0.000000 
-0.050000 -0.660622 0.000000 
-0.050000 -0.560622 0.000000 
-0.050000 -0.460622 0.000000 
-0.050000 -0.360622 0.000000 
-0.050000 -0.260622 0.000000 
-0.050000 -0.160622 0.000000 
-0.050000 -0.060622 0.000000 
-0.050000 0.039378 0.000000 
-0.050000 0.139378 0.000000 
-0.150000 -0.760622 0.000000 
-0.150000 -0.660622 0.000000 
-0.150000 -0.560622 0.000000 
-0.150000 -0.460622 0.000000 
-0.150000 -0.360622 0.000000 
-0.150000 -0.260622 0.000000 
-0.150000 -0.160622 0.000000 
-0.150000 -0.060622 0.000000 
-0.150000 0.039378 0.000000 
-0.150000 0.139378 0.000000 
-0.250000 -0.760622 0.000000 
-0.250000 -0.660622 0.000000 
-0.250000 -0.560622 0.000000 
-0.250000 -0.460622 0.000000 
-0.250000 -0.360622 0.000000 
-0.250000 -0.260622 0.000000 
-0.250000 -0.160622 0.000000 
-0.250000 -0.060622 0.000000 
-0.250000 0.039378 0.000000 
-0.250000 0.139378 0.000000 
-0.350000 -0.760622 0.000000 
-0.350000 -0.660622 0.000000 
-0.350000 -0.560622 0.000000 
-0.350000 -0.460622 0.000000 
-0.350000 -0.360622 0.000000 
-0.350000 -0.260622 0.000000 
-0.350000 -0.160622 0.000000 
-0.350000 -0.060622 0.000000 
-0.350000 0.039378 0.000000 
-0.350000 0.139378 0.000000 
-0.450000 -0.760622 0.000000 
-0.450000 -0.660622 0.000000 
-0.450000 -0.560622 0.000000 
-0.450000 -0.460622 0.000000 
-0.450000 -0.360622 0.000000 
-0.450000 -0.260622 0.000000 
-0.450000 -0.160622 0.000000 
-0.450000 -0.060622 0.000000 
-0.450000 0.039378 0.000000 
-0.450000 0.139378 0.000000 
CELLS 100 200 
1 0 
1 1 
1 2 
1 3 
1 4 
1 5 
1 6 
1 7 
1 8 
1 9 
1 10 
1 11 
1 12 
1 13 
1 14 
1 15 
1 16 
1 17 
1 18 
1 19 
1 20 
1 21 
1 22 
1 23 
1 24 
1 25 
1 26 
1 27 
1 28 
1 29 
1 30 
1 31 
1 32 
1 33 
1 34 
1 35 
1 36 
1 37 
1 38 
1 39 
1 40 
1 41 
1 42 
1 43 
1 44 
1 45 
1 46 
1 47 
1 48 
1 49 
1 50 
1 51 
1 52 
1 53 
1 54 
1 55 
1 56 
1 57 
1 58 
1 59 
1 60 
1 61 
1 62 
1 63 
1 64 
1 65 
1 66 
1 67 
1 68 
1 69 
1 70 
1 71 
1 72 
1 73 
1 74 
1 75 
1 76 
1 77 
1 78 
1 79 
1 80 
1 81 
1 82 
1 83 
1 84 
1 85 
1 86 
1 87 
1 88 
1 89 
1 90 
1 91 
1 92 
1 93 
1 94 
1 95 
1 96 
1 97 
1 98 
1 99 
CELL_TYPES 100 
1 
1 
1 
1 
1 
1 
1 
1 
1 
1 
1 
1 
1 
1 
1 
1 
1 
1 
1 
1 
1 
1 
1 
1 
1 
1 
1 
1 
1 
1 
1 
1 
1 
1 
1 
1 
1 
1 
1 
1 
1 
1 
1 
1 
1 
1 
1 
1 
1 
1 
1 
1 
1 
1 
1 
1 
1 
1 
1 
1 
1 
1 
1 
1 
1 
1 
1 
1 
1 
1 
1 
1 
1 
1 
1 
1 
1 
1 
1 
1 
1 
1 
1 
1 
1 
1 
1 
1 
1 
1 
1 
1 
1 
1 
1 
1 
1 
1 
1 
1 
POINT_DATA 100 
VECTORS X_GC float 
0.450000 -0.760622 0.000000 
0.450000 -0.660622 0.000000 
0.450000 -0.560622 0.000000 
0.450000 -0.460622 0.000000 
0.450000 -0.360622 0.000000 
0.450000 -0.260622 0.000000 
0.450000 -0.160622 0.000000 
0.450000 -0.060622 0.000000 
0.450000 0.039378 0.000000 
0.450000 0.139378 0.000000 
0.350000 -0.760622 0.000000 
0.350000 -0.660622 0.000000 
0.350000 -0.560622 0.000000 
0.350000 -0.460622 0.000000 
0.350000 -0.360622 0.000000 
0.350000 -0.260622 0.000000 
0.350000 -0.160622 0.000000 
0.350000 -0.060622 0.000000 
0.350000 0.039378 0.000000 
0.350000 0.139378 0.000000 
0.250000 -0.760622 0.000000 
0.250000 -0.660622 0.000000 
0.250000 -0.560622 0.000000 
0.250000 -0.460622 0.000000 
0.250000 -0.360622 0.000000 
0.250000 -0.260622 0.000000 
0.250000 -0.160622 0.000000 
0.250000 -0.060622 0.000000 
0.250000 0.039378 0.000000 
0.250000 0.139378 0.000000 
0.150000 -0.760622 0.000000 
0.150000 -0.660622 0.000000 
0.150000 -0.560622 0.000000 
0.150000 -0.460622 0.000000 
0.150000 -0.360622 0.000000 
0.150000 -0.260622 0.000000 
0.150000 -0.160622 0.000000 
0.150000 -0.060622 0.000000 
0.150000 0.039378 0.000000 
0.150000 0.139378 0.000000 
0.050000 -0.760622 0.000000 
0.050000 -0.660622 0.000000 
0.050000 -0.560622 0.000000 
0.050000 -0.460622 0.000000 
0.050000 -0.360622 0.000000 
0.050000 -0.260622 0.000000 
0.050000 -0.160622 0.000000 
0.050000 -0.060622 0.000000 
0.050000 0.039378 0.000000 
0.050000 0.139378 0.000000 
-0.050000 -0.760622 0.000000 
-0.050000 -0.660622 0.000000 
-0.050000 -0.560622 0.000000 
-0.050000 -0.460622 0.000000 
-0.050000 -0.360622 0.000000 
-0.050000 -0.260622 0.000000 
-0.050000 -0.160622 0.000000 
-0.050000 -0.060622 0.000000 
-0.050000 0.039378 0.000000 
-0.050000 0.139378 0.000000 
-0.150000 -0.760622 0.000000 
-0.150000 -0.660622 0.000000 
-0.150000 -0.560622 0.000000 
-0.150000 -0.460622 0.000000 
-0.150000 -0.360622 0.000000 
-0.150000 -0.260622 0.000000 
-0.150000 -0.160622 0.000000 
-0.150000 -0.060622 0.000000 
-0.150000 0.039378 0.000000 
-0.150000 0.139378 0.000000 
-0.250000 -0.760622 0.000000 
-0.250000 -0.660622 0.000000 
-0.250000 -0.560622 0.000000 
-0.250000 -0.460622 0.000000 
-0.250000 -0.360622 0.000000 
-0.250000 -0.260622 0.000000 
-0.250000 -0.160622 0.000000 
-0.250000 -0.060622 0.000000 
-0.250000 0.039378 0.000000 
-0.250000 0.139378 0.000000 
-0.350000 -0.760622 0.000000 
-0.350000 -0.660622 0.000000 
-0.350000 -0.560622 0.000000 
-0.350000 -0.460622 0.000000 
-0.350000 -0.360622 0.000000 
-0.350000 -0.260622 0.000000 
-0.350000 -0.160622 0.000000 
-0.350000 -0.060622 0.000000 
-0.350000 0.039378 0.000000 
-0.350000 0.139378 0.000000 
-0.450000 -0.760622 0.000000 
-0.450000 -0.660622 0.000000 
-0.450000 -0.560622 0.000000 
-0.450000 -0.460622 0.000000 
-0.450000 -0.360622 0.000000 
-0.450000 -0.260622 0.000000 
-0.450000 -0.160622 0.000000 
-0.450000 -0.060622 0.000000 
-0.450000 0.039378 0.000000 
-0.450000 0.139378 0.000000 
VECTORS X_EC float 
0.150000 0.768395 0.000000 
0.150000 -0.581605 0.000000 
0.150000 0.068395 0.000000 
0.150000 0.718395 0.000000 
0.150000 -0.631605 0.000000 
0.150000 0.018395 0.000000 
0.150000 0.668395 0.000000 
0.150000 -0.681605 0.000000 
0.150000 -0.031605 0.000000 
0.150000 0.618395 0.000000 
-0.550000 0.768395 0.000000 
-0.550000 -0.581605 0.000000 
-0.550000 0.068395 0.000000 
-0.550000 0.718395 0.000000 
-0.550000 -0.631605 0.000000 
-0.550000 0.018395 0.000000 
-0.550000 0.668395 0.000000 
-0.550000 -0.681605 0.000000 
-0.550000 -0.031605 0.000000 
-0.550000 0.618395 0.000000 
0.750000 0.768395 0.000000 
0.750000 -0.581605 0.000000 
0.750000 0.068395 0.000000 
0.750000 0.718395 0.000000 
0.750000 -0.631605 0.000000 
0.750000 0.018395 0.000000 
0.750000 0.668395 0.000000 
0.750000 -0.681605 0.000000 
0.750000 -0.031605 0.000000 
0.750000 0.618395 0.000000 
0.050000 0.768395 0.000000 
0.050000 -0.581605 0.000000 
0.050000 0.068395 0.000000 
0.050000 0.718395 0.000000 
0.050000 -0.631605 0.000000 
0.050000 0.018395 0.000000 
0.050000 0.668395 0.000000 
0.050000 -0.681605 0.000000 
0.050000 -0.031605 0.000000 
0.050000 0.618395 0.000000 
-0.650000 0.768395 0.000000 
-0.650000 -0.581605 0.000000 
-0.650000 0.068395 0.000000 
-0.650000 0.718395 0.000000 
-0.650000 -0.631605 0.000000 
-0.650000 0.018395 0.000000 
-0.650000 0.668395 0.000000 
-0.650000 -0.681605 0.000000 
-0.650000 -0.031605 0.000000 
-0.650000 0.618395 0.000000 
0.650000 0.768395 0.000000 
0.650000 -0.581605 0.000000 
0.650000 0.068395 0.000000 
0.650000 0.718395 0.000000 
0.650000 -0.631605 0.000000 
0.650000 0.018395 0.000000 
0.650000 0.668395 0.000000 
0.650000 -0.681605 0.000000 
0.650000 -0.031605 0.000000 
0.650000 0.618395 0.000000 
-0.050000 0.768395 0.000000 
-0.050000 -0.581605 0.000000 
-0.050000 0.068395 0.000000 
-0.050000 0.718395 0.000000 
-0.050000 -0.631605 0.000000 
-0.050000 0.018395 0.000000 
-0.050000 0.668395 0.000000 
-0.050000 -0.681605 0.000000 
-0.050000 -0.031605 0.000000 
-0.050000 0.618395 0.000000 
-0.750000 0.768395 0.000000 
-0.750000 -0.581605 0.000000 
-0.750000 0.068395 0.000000 
-0.750000 0.718395 0.000000 
-0.750000 -0.631605 0.000000 
-0.750000 0.018395 0.000000 
-0.750000 0.668395 0.000000 
-0.750000 -0.681605 0.000000 
-0.750000 -0.031605 0.000000 
-0.750000 0.618395 0.000000 
0.550000 0.768395 0.000000 
0.550000 -0.581605 0.000000 
0.550000 0.068395 0.000000 
0.550000 0.718395 0.000000 
0.550000 -0.631605 0.000000 
0.550000 0.018395 0.000000 
0.550000 0.668395 0.000000 
0.550000 -0.681605 0.000000 
0.550000 -0.031605 0.000000 
0.550000 0.618395 0.000000 
-0.150000 0.768395 0.000000 
-0.150000 -0.581605 0.000000 
-0.150000 0.068395 0.000000 
-0.150000 0.718395 0.000000 
-0.150000 -0.631605 0.000000 
-0.150000 0.018395 0.000000 
-0.150000 0.668395 0.000000 
-0.150000 -0.681605 0.000000 
-0.150000 -0.031605 0.000000 
-0.150000 0.618395 0.000000 
CELL_DATA 100 
SCALARS MASS float 
LOOKUP_TABLE default 
10.000000 
10.000000 
10.000000 
10.000000 
10.000000 
10.000000 
10.000000 
10.000000 
10.000000 
10.000000 
10.000000 
10.000000 
10.000000 
10.000000 
10.000000 
10.000000 
10.000000 
10.000000 
10.000000 
10.000000 
10.000000 
10.000000 
10.000000 
10.000000 
10.000000 
10.000000 
10.000000 
10.000000 
10.000000 
10.000000 
10.000000 
10.000000 
10.000000 
10.000000 
10.000000 
10.000000 
10.000000 
10.000000 
10.000000 
10.000000 
10.000000 
10.000000 
10.000000 
10.000000 
10.000000 
10.000000 
10.000000 
10.000000 
10.000000 
10.000000 
10.000000 
10.000000 
10.000000 
10.000000 
10.000000 
10.000000 
10.000000 
10.000000 
10.000000 
10.000000 
10.000000 
10.000000 
10.000000 
10.000000 
10.000000 
10.000000 
10.000000 
10.000000 
10.000000 
10.000000 
10.000000 
10.000000 
10.000000 
10.000000 
10.000000 
10.000000 
10.000000 
10.000000 
10.000000 
10.000000 
10.000000 
10.000000 
10.000000 
10.000000 
10.000000 
10.000000 
10.000000 
10.000000 
10.000000 
10.000000 
10.000000 
10.000000 
10.000000 
10.000000 
10.000000 
10.000000 
10.000000 
10.000000 
10.000000 
10.000000 
SCALARS MASS float 
LOOKUP_TABLE default 
10.000000 
10.000000 
10.000000 
10.000000 
10.000000 
10.000000 
10.000000 
10.000000 
10.000000 
10.000000 
10.000000 
10.000000 
10.000000 
10.000000 
10.000000 
10.000000 
10.000000 
10.000000 
10.000000 
10.000000 
10.000000 
10.000000 
10.000000 
10.000000 
10.000000 
10.000000 
10.000000 
10.000000 
10.000000 
10.000000 
10.000000 
10.000000 
10.000000 
10.000000 
10.000000 
10.000000 
10.000000 
10.000000 
10.000000 
10.000000 
10.000000 
10.000000 
10.000000 
10.000000 
10.000000 
10.000000 
10.000000 
10.000000 
10.000000 
10.000000 
10.000000 
10.000000 
10.000000 
10.000000 
10.000000 
10.000000 
10.000000 
10.000000 
10.000000 
10.000000 
10.000000 
10.000000 
10.000000 
10.000000 
10.000000 
10.000000 
10.000000 
10.000000 
10.000000 
10.000000 
10.000000 
10.000000 
10.000000 
10.000000 
10.000000 
10.000000 
10.000000 
10.000000 
10.000000 
10.000000 
10.000000 
10.000000 
10.000000 
10.000000 
10.000000 
10.000000 
10.000000 
10.000000 
10.000000 
10.000000 
10.000000 
10.000000 
10.000000 
10.000000 
10.000000 
10.000000 
10.000000 
10.000000 
10.000000 
10.000000 
SCALARS DENSITY float 
LOOKUP_TABLE default 
1000.000000 
1000.000000 
1000.000000 
1000.000000 
1000.000000 
1000.000000 
1000.000000 
1000.000000 
1000.000000 
1000.000000 
1000.000000 
1000.000000 
1000.000000 
1000.000000 
1000.000000 
1000.000000 
1000.000000 
1000.000000 
1000.000000 
1000.000000 
1000.000000 
1000.000000 
1000.000000 
1000.000000 
1000.000000 
1000.000000 
1000.000000 
1000.000000 
1000.000000 
1000.000000 
1000.000000 
1000.000000 
1000.000000 
1000.000000 
1000.000000 
1000.000000 
1000.000000 
1000.000000 
1000.000000 
1000.000000 
1000.000000 
1000.000000 
1000.000000 
1000.000000 
1000.000000 
1000.000000 
1000.000000 
1000.000000 
1000.000000 
1000.000000 
1000.000000 
1000.000000 
1000.000000 
1000.000000 
1000.000000 
1000.000000 
1000.000000 
1000.000000 
1000.000000 
1000.000000 
1000.000000 
1000.000000 
1000.000000 
1000.000000 
1000.000000 
1000.000000 
1000.000000 
1000.000000 
1000.000000 
1000.000000 
1000.000000 
1000.000000 
1000.000000 
1000.000000 
1000.000000 
1000.000000 
1000.000000 
1000.000000 
1000.000000 
1000.000000 
1000.000000 
1000.000000 
1000.000000 
1000.000000 
1000.000000 
1000.000000 
1000.000000 
1000.000000 
1000.000000 
1000.000000 
1000.000000 
1000.000000 
1000.000000 
1000.000000 
1000.000000 
1000.000000 
1000.000000 
1000.000000 
1000.000000 
1000.000000 
SCALARS ELEM_i float 
LOOKUP_TABLE default 
96 
96 
97 
98 
98 
99 
100 
100 
101 
102 
123 
123 
124 
125 
125 
126 
127 
127 
128 
129 
123 
123 
124 
125 
125 
126 
127 
127 
128 
129 
150 
150 
151 
152 
152 
153 
154 
154 
155 
156 
177 
177 
178 
179 
179 
180 
181 
181 
182 
183 
177 
177 
178 
179 
179 
180 
181 
181 
182 
183 
204 
204 
205 
206 
206 
207 
208 
208 
209 
210 
231 
231 
232 
233 
233 
234 
235 
235 
236 
237 
231 
231 
232 
233 
233 
234 
235 
235 
236 
237 
258 
258 
259 
260 
260 
261 
262 
262 
263 
264 
VECTORS VELOCITY float 
-0.000000 -2.465253 0.000000 
-0.000000 -2.465253 0.000000 
-0.000000 -2.465253 0.000000 
-0.000000 -2.465253 0.000000 
-0.000000 -2.465253 0.000000 
0.000000 -2.465253 0.000000 
-0.000000 -2.465253 0.000000 
0.000000 -2.465253 0.000000 
0.000000 -2.465253 0.000000 
0.000000 -2.465253 0.000000 
0.000000 -2.465253 0.000000 
0.000000 -2.465253 0.000000 
0.000000 -2.465253 0.000000 
0.000000 -2.465253 0.000000 
-0.000000 -2.465253 0.000000 
-0.000000 -2.465253 0.000000 
-0.000000 -2.465253 0.000000 
0.000000 -2.465253 0.000000 
0.000000 -2.465253 0.000000 
0.000000 -2.465253 0.000000 
0.000000 -2.465253 0.000000 
-0.000000 -2.465253 0.000000 
-0.000000 -2.465253 0.000000 
-0.000000 -2.465253 0.000000 
-0.000000 -2.465253 0.000000 
-0.000000 -2.465253 0.000000 
-0.000000 -2.465253 0.000000 
0.000000 -2.465253 0.000000 
0.000000 -2.465253 0.000000 
-0.000000 -2.465253 0.000000 
-0.000000 -2.465253 0.000000 
-0.000000 -2.465253 0.000000 
-0.000000 -2.465253 0.000000 
-0.000000 -2.465253 0.000000 
-0.000000 -2.465253 0.000000 
-0.000000 -2.465253 0.000000 
-0.000000 -2.465253 0.000000 
-0.000000 -2.465253 0.000000 
0.000000 -2.465253 0.000000 
0.000000 -2.465253 0.000000 
-0.000000 -2.465253 0.000000 
-0.000000 -2.465253 0.000000 
0.000000 -2.465253 0.000000 
-0.000000 -2.465253 0.000000 
-0.000000 -2.465253 0.000000 
-0.000000 -2.465253 0.000000 
-0.000000 -2.465253 0.000000 
-0.000000 -2.465253 0.000000 
0.000000 -2.465253 0.000000 
0.000000 -2.465253 0.000000 
0.000000 -2.465253 0.000000 
0.000000 -2.465253 0.000000 
0.000000 -2.465253 0.000000 
0.000000 -2.465253 0.000000 
-0.000000 -2.465253 0.000000 
0.000000 -2.465253 0.000000 
0.000000 -2.465253 0.000000 
0.000000 -2.465253 0.000000 
-0.000000 -2.465253 0.000000 
-0.000000 -2.465253 0.000000 
-0.000000 -2.465253 0.000000 
0.000000 -2.465253 0.000000 
0.000000 -2.465253 0.000000 
-0.000000 -2.465253 0.000000 
-0.000000 -2.465253 0.000000 
-0.000000 -2.465253 0.000000 
0.000000 -2.465253 0.000000 
0.000000 -2.465253 0.000000 
0.000000 -2.465253 0.000000 
-0.000000 -2.465253 0.000000 
-0.000000 -2.465253 0.000000 
0.000000 -2.465253 0.000000 
-0.000000 -2.465253 0.000000 
-0.000000 -2.465253 0.000000 
0.000000 -2.465253 0.000000 
-0.000000 -2.465253 0.000000 
-0.000000 -2.465253 0.000000 
-0.000000 -2.465253 0.000000 
0.000000 -2.465253 0.000000 
0.000000 -2.465253 0.000000 
0.000000 -2.465253 0.000000 
-0.000000 -2.465253 0.000000 
0.000000 -2.465253 0.000000 
0.000000 -2.465253 0.000000 
0.000000 -2.465253 0.000000 
0.000000 -2.465253 0.000000 
0.000000 -2.465253 0.000000 
-0.000000 -2.465253 0.000000 
0.000000 -2.465253 0.000000 
0.000000 -2.465253 0.000000 
0.000000 -2.465253 0.000000 
0.000000 -2.465253 0.000000 
-0.000000 -2.465253 0.000000 
-0.000000 -2.465253 0.000000 
-0.000000 -2.465253 0.000000 
0.000000 -2.465253 0.000000 
0.000000 -2.465253 0.000000 
0.000000 -2.465253 0.000000 
-0.000000 -2.465253 0.000000 
-0.000000 -2.465253 0.000000 
TENSORS STRESS float 
0.000000 0.000000 0.000000 
0.000000 0.000000 0.000000 
0.000000 0.000000 0.000000 

0.000000 -0.000000 0.000000 
0.000000 0.000000 0.000000 
0.000000 0.000000 0.000000 

-0.000000 -0.000000 0.000000 
0.000000 -0.000000 0.000000 
0.000000 0.000000 0.000000 

-0.000000 0.000000 0.000000 
0.000000 -0.000000 0.000000 
0.000000 0.000000 0.000000 

-0.000000 -0.000000 0.000000 
0.000000 -0.000000 0.000000 
0.000000 0.000000 0.000000 

0.000000 0.000000 0.000000 
0.000000 0.000000 0.000000 
0.000000 0.000000 0.000000 

-0.000000 0.000000 0.000000 
0.000000 -0.000000 0.000000 
0.000000 0.000000 0.000000 

-0.000000 -0.000000 0.000000 
0.000000 -0.000000 0.000000 
0.000000 0.000000 0.000000 

0.000000 -0.000000 0.000000 
0.000000 0.000000 0.000000 
0.000000 0.000000 0.000000 

-0.000000 -0.000000 0.000000 
0.000000 -0.000000 0.000000 
0.000000 0.000000 0.000000 

-0.000000 0.000000 0.000000 
0.000000 0.000000 0.000000 
0.000000 0.000000 0.000000 

-0.000000 -0.000000 0.000000 
0.000000 0.000000 0.000000 
0.000000 0.000000 0.000000 

0.000000 -0.000000 0.000000 
0.000000 0.000000 0.000000 
0.000000 0.000000 0.000000 

-0.000000 -0.000000 0.000000 
0.000000 -0.000000 0.000000 
0.000000 0.000000 0.000000 

-0.000000 0.000000 0.000000 
0.000000 0.000000 0.000000 
0.000000 0.000000 0.000000 

-0.000000 0.000000 0.000000 
0.000000 -0.000000 0.000000 
0.000000 0.000000 0.000000 

-0.000000 -0.000000 0.000000 
0.000000 -0.000000 0.000000 
0.000000 0.000000 0.000000 

-0.000000 0.000000 0.000000 
0.000000 -0.000000 0.000000 
0.000000 0.000000 0.000000 

-0.000000 -0.000000 0.000000 
0.000000 -0.000000 0.000000 
0.000000 0.000000 0.000000 

-0.000000 -0.000000 0.000000 
0.000000 -0.000000 0.000000 
0.000000 0.000000 0.000000 

0.000000 0.000000 0.000000 
0.000000 0.000000 0.000000 
0.000000 0.000000 0.000000 

-0.000000 -0.000000 0.000000 
0.000000 0.000000 0.000000 
0.000000 0.000000 0.000000 

-0.000000 -0.000000 0.000000 
0.000000 -0.000000 0.000000 
0.000000 0.000000 0.000000 

-0.000000 0.000000 0.000000 
0.000000 -0.000000 0.000000 
0.000000 0.000000 0.000000 

-0.000000 0.000000 0.000000 
0.000000 -0.000000 0.000000 
0.000000 0.000000 0.000000 

0.000000 0.000000 0.000000 
0.000000 0.000000 0.000000 
0.000000 0.000000 0.000000 

-0.000000 -0.000000 0.000000 
0.000000 -0.000000 0.000000 
0.000000 0.000000 0.000000 

-0.000000 0.000000 0.000000 
0.000000 -0.000000 0.000000 
0.000000 0.000000 0.000000 

0.000000 0.000000 0.000000 
0.000000 0.000000 0.000000 
0.000000 0.000000 0.000000 

-0.000000 0.000000 0.000000 
0.000000 -0.000000 0.000000 
0.000000 0.000000 0.000000 

0.000000 -0.000000 0.000000 
0.000000 0.000000 0.000000 
0.000000 0.000000 0.000000 

-0.000000 0.000000 0.000000 
0.000000 -0.000000 0.000000 
0.000000 0.000000 0.000000 

-0.000000 -0.000000 0.000000 
0.000000 -0.000000 0.000000 
0.000000 0.000000 0.000000 

-0.000000 0.000000 0.000000 
0.000000 -0.000000 0.000000 
0.000000 0.000000 0.000000 

-0.000000 0.000000 0.000000 
0.000000 -0.000000 0.000000 
0.000000 0.000000 0.000000 

-0.000000 0.000000 0.000000 
0.000000 0.000000 0.000000 
0.000000 0.000000 0.000000 

0.000000 0.000000 0.000000 
0.000000 0.000000 0.000000 
0.000000 0.000000 0.000000 

-0.000000 -0.000000 0.000000 
0.000000 -0.000000 0.000000 
0.000000 0.000000 0.000000 

-0.000000 -0.000000 0.000000 
0.000000 -0.000000 0.000000 
0.000000 0.000000 0.000000 

-0.000000 -0.000000 0.000000 
0.000000 -0.000000 0.000000 
0.000000 0.000000 0.000000 

0.000000 -0.000000 0.000000 
0.000000 0.000000 0.000000 
0.000000 0.000000 0.000000 

0.000000 0.000000 0.000000 
0.000000 0.000000 0.000000 
0.000000 0.000000 0.000000 

-0.000000 -0.000000 0.000000 
0.000000 -0.000000 0.000000 
0.000000 0.000000 0.000000 

-0.000000 0.000000 0.000000 
0.000000 -0.000000 0.000000 
0.000000 0.000000 0.000000 

-0.000000 0.000000 0.000000 
0.000000 0.000000 0.000000 
0.000000 0.000000 0.000000 

0.000000 -0.000000 0.000000 
0.000000 0.000000 0.000000 
0.000000 0.000000 0.000000 

0.000000 0.000000 0.000000 
0.000000 0.000000 0.000000 
0.000000 0.000000 0.000000 

0.000000 -0.000000 0.000000 
0.000000 0.000000 0.000000 
0.000000 0.000000 0.000000 

-0.000000 -0.000000 0.000000 
0.000000 -0.000000 0.000000 
0.000000 0.000000 0.000000 

0.000000 -0.000000 0.000000 
0.000000 0.000000 0.000000 
0.000000 0.000000 0.000000 

0.000000 -0.000000 0.000000 
0.000000 0.000000 0.000000 
0.000000 0.000000 0.000000 

0.000000 -0.000000 0.000000 
0.000000 0.000000 0.000000 
0.000000 0.000000 0.000000 

-0.000000 0.000000 0.000000 
0.000000 -0.000000 0.000000 
0.000000 0.000000 0.000000 

-0.000000 -0.000000 0.000000 
0.000000 -0.000000 0.000000 
0.000000 0.000000 0.000000 

0.000000 0.000000 0.000000 
0.000000 0.000000 0.000000 
0.000000 0.000000 0.000000 

-0.000000 -0.000000 0.000000 
0.000000 -0.000000 0.000000 
0.000000 0.000000 0.000000 

0.000000 0.000000 0.000000 
0.000000 0.000000 0.000000 
0.000000 0.000000 0.000000 

-0.000000 0.000000 0.000000 
0.000000 -0.000000 0.000000 
0.000000 0.000000 0.000000 

-0.000000 -0.000000 0.000000 
0.000000 -0.000000 0.000000 
0.000000 0.000000 0.000000 

0.000000 0.000000 0.000000 
0.000000 0.000000 0.000000 
0.000000 0.000000 0.000000 

-0.000000 0.000000 0.000000 
0.000000 0.000000 0.000000 
0.000000 0.000000 0.000000 

-0.000000 0.000000 0.000000 
0.000000 -0.000000 0.000000 
0.000000 0.000000 0.000000 

-0.000000 -0.000000 0.000000 
0.000000 -0.000000 0.000000 
0.000000 0.000000 0.000000 

-0.000000 -0.000000 0.000000 
0.000000 -0.000000 0.000000 
0.000000 0.000000 0.000000 

-0.000000 0.000000 0.000000 
0.000000 -0.000000 0.000000 
0.000000 0.000000 0.000000 

0.000000 -0.000000 0.000000 
0.000000 0.000000 0.000000 
0.000000 0.000000 0.000000 

-0.000000 -0.000000 0.000000 
0.000000 0.000000 0.000000 
0.000000 0.000000 0.000000 

-0.000000 0.000000 0.000000 
0.000000 -0.000000 0.000000 
0.000000 0.000000 0.000000 

0.000000 -0.000000 0.000000 
0.000000 0.000000 0.000000 
0.000000 0.000000 0.000000 

0.000000 0.000000 0.000000 
0.000000 0.000000 0.000000 
0.000000 0.000000 0.000000 

0.000000 -0.000000 0.000000 
0.000000 0.000000 0.000000 
0.000000 0.000000 0.000000 

0.000000 0.000000 0.000000 
0.000000 0.000000 0.000000 
0.000000 0.000000 0.000000 

-0.000000 -0.000000 0.000000 
0.000000 -0.000000 0.000000 
0.000000 0.000000 0.000000 

0.000000 -0.000000 0.000000 
0.000000 0.000000 0.000000 
0.000000 0.000000 0.000000 

-0.000000 -0.000000 0.000000 
0.000000 -0.000000 0.000000 
0.000000 0.000000 0.000000 

0.000000 -0.000000 0.000000 
0.000000 0.000000 0.000000 
0.000000 0.000000 0.000000 

0.000000 0.000000 0.000000 
0.000000 0.000000 0.000000 
0.000000 0.000000 0.000000 

0.000000 -0.000000 0.000000 
0.000000 0.000000 0.000000 
0.000000 0.000000 0.000000 

0.000000 0.000000 0.000000 
0.000000 -0.000000 0.000000 
0.000000 0.000000 0.000000 

-0.000000 0.000000 0.000000 
0.000000 -0.000000 0.000000 
0.000000 0.000000 0.000000 

0.000000 0.000000 0.000000 
0.000000 0.000000 0.000000 
0.000000 0.000000 0.000000 

0.000000 -0.000000 0.000000 
0.000000 0.000000 0.000000 
0.000000 0.000000 0.000000 

-0.000000 -0.000000 0.000000 
0.000000 -0.000000 0.000000 
0.000000 0.000000 0.000000 

0.000000 0.000000 0.000000 
0.000000 0.000000 0.000000 
0.000000 0.000000 0.000000 

-0.000000 0.000000 0.000000 
0.000000 -0.000000 0.000000 
0.000000 0.000000 0.000000 

-0.000000 -0.000000 0.000000 
0.000000 -0.000000 0.000000 
0.000000 0.000000 0.000000 

0.000000 -0.000000 0.000000 
0.000000 0.000000 0.000000 
0.000000 0.000000 0.000000 

-0.000000 -0.000000 0.000000 
0.000000 -0.000000 0.000000 
0.000000 0.000000 0.000000 

0.000000 0.000000 0.000000 
0.000000 -0.000000 0.000000 
0.000000 0.000000 0.000000 

0.000000 0.000000 0.000000 
0.000000 -0.000000 0.000000 
0.000000 0.000000 0.000000 

0.000000 -0.000000 0.000000 
0.000000 -0.000000 0.000000 
0.000000 0.000000 0.000000 

-0.000000 0.000000 0.000000 
0.000000 -0.000000 0.000000 
0.000000 0.000000 0.000000 

0.000000 0.000000 0.000000 
0.000000 0.000000 0.000000 
0.000000 0.000000 0.000000 

0.000000 0.000000 0.000000 
0.000000 0.000000 0.000000 
0.000000 0.000000 0.000000 

-0.000000 0.000000 0.000000 
0.000000 -0.000000 0.000000 
0.000000 0.000000 0.000000 

0.000000 -0.000000 0.000000 
0.000000 0.000000 0.000000 
0.000000 0.000000 0.000000 

-0.000000 0.000000 0.000000 
0.000000 -0.000000 0.000000 
0.000000 0.000000 0.000000 

-0.000000 0.000000 0.000000 
0.000000 -0.000000 0.000000 
0.000000 0.000000 0.000000 

0.000000 -0.000000 0.000000 
0.000000 0.000000 0.000000 
0.000000 0.000000 0.000000 

0.000000 0.000000 0.000000 
0.000000 0.000000 0.000000 
0.000000 0.000000 0.000000 

TENSORS STRAIN float 
0.000000 0.000000 0.000000 
0.000000 -0.000000 0.000000 
0.000000 0.000000 0.000000 

-0.000000 -0.000000 0.000000 
0.000000 0.000000 0.000000 
0.000000 0.000000 0.000000 

-0.000000 -0.000000 0.000000 
0.000000 0.000000 0.000000 
0.000000 0.000000 0.000000 

-0.000000 0.000000 0.000000 
0.000000 0.000000 0.000000 
0.000000 0.000000 0.000000 

-0.000000 -0.000000 0.000000 
0.000000 0.000000 0.000000 
0.000000 0.000000 0.000000 

0.000000 0.000000 0.000000 
0.000000 0.000000 0.000000 
0.000000 0.000000 0.000000 

0.000000 0.000000 0.000000 
0.000000 -0.000000 0.000000 
0.000000 0.000000 0.000000 

0.000000 -0.000000 0.000000 
0.000000 -0.000000 0.000000 
0.000000 0.000000 0.000000 

0.000000 -0.000000 0.000000 
0.000000 -0.000000 0.000000 
0.000000 0.000000 0.000000 

-0.000000 -0.000000 0.000000 
0.000000 0.000000 0.000000 
0.000000 0.000000 0.000000 

-0.000000 0.000000 0.000000 
0.000000 0.000000 0.000000 
0.000000 0.000000 0.000000 

-0.000000 -0.000000 0.000000 
0.000000 0.000000 0.000000 
0.000000 0.000000 0.000000 

0.000000 -0.000000 0.000000 
0.000000 -0.000000 0.000000 
0.000000 0.000000 0.000000 

-0.000000 -0.000000 0.000000 
0.000000 0.000000 0.000000 
0.000000 0.000000 0.000000 

-0.000000 0.000000 0.000000 
0.000000 0.000000 0.000000 
0.000000 0.000000 0.000000 

-0.000000 0.000000 0.000000 
0.000000 -0.000000 0.000000 
0.000000 0.000000 0.000000 

-0.000000 -0.000000 0.000000 
0.000000 0.000000 0.000000 
0.000000 0.000000 0.000000 

-0.000000 0.000000 0.000000 
0.000000 0.000000 0.000000 
0.000000 0.000000 0.000000 

0.000000 -0.000000 0.000000 
0.000000 -0.000000 0.000000 
0.000000 0.000000 0.000000 

-0.000000 -0.000000 0.000000 
0.000000 -0.000000 0.000000 
0.000000 0.000000 0.000000 

-0.000000 0.000000 0.000000 
0.000000 0.000000 0.000000 
0.000000 0.000000 0.000000 

-0.000000 -0.000000 0.000000 
0.000000 0.000000 0.000000 
0.000000 0.000000 0.000000 

0.000000 -0.000000 0.000000 
0.000000 -0.000000 0.000000 
0.000000 0.000000 0.000000 

-0.000000 0.000000 0.000000 
0.000000 0.000000 0.000000 
0.000000 0.000000 0.000000 

-0.000000 0.000000 0.000000 
0.000000 0.000000 0.000000 
0.000000 0.000000 0.000000 

-0.000000 0.000000 0.000000 
0.000000 0.000000 0.000000 
0.000000 0.000000 0.000000 

-0.000000 -0.000000 0.000000 
0.000000 0.000000 0.000000 
0.000000 0.000000 0.000000 

-0.000000 0.000000 0.000000 
0.000000 -0.000000 0.000000 
0.000000 0.000000 0.000000 

0.000000 0.000000 0.000000 
0.000000 -0.000000 0.000000 
0.000000 0.000000 0.000000 

-0.000000 0.000000 0.000000 
0.000000 -0.000000 0.000000 
0.000000 0.000000 0.000000 

-0.000000 -0.000000 0.000000 
0.000000 0.000000 0.000000 
0.000000 0.000000 0.000000 

-0.000000 0.000000 0.000000 
0.000000 -0.000000 0.000000 
0.000000 0.000000 0.000000 

-0.000000 -0.000000 0.000000 
0.000000 -0.000000 0.000000 
0.000000 0.000000 0.000000 

-0.000000 0.000000 0.000000 
0.000000 -0.000000 0.000000 
0.000000 0.000000 0.000000 

-0.000000 0.000000 0.000000 
0.000000 0.000000 0.000000 
0.000000 0.000000 0.000000 

-0.000000 0.000000 0.000000 
0.000000 0.000000 0.000000 
0.000000 0.000000 0.000000 

-0.000000 0.000000 0.000000 
0.000000 0.000000 0.000000 
0.000000 0.000000 0.000000 

-0.000000 -0.000000 0.000000 
0.000000 -0.000000 0.000000 
0.000000 0.000000 0.000000 

-0.000000 -0.000000 0.000000 
0.000000 -0.000000 0.000000 
0.000000 0.000000 0.000000 

-0.000000 -0.000000 0.000000 
0.000000 -0.000000 0.000000 
0.000000 0.000000 0.000000 

0.000000 -0.000000 0.000000 
0.000000 0.000000 0.000000 
0.000000 0.000000 0.000000 

0.000000 0.000000 0.000000 
0.000000 -0.000000 0.000000 
0.000000 0.000000 0.000000 

0.000000 -0.000000 0.000000 
0.000000 -0.000000 0.000000 
0.000000 0.000000 0.000000 

-0.000000 0.000000 0.000000 
0.000000 -0.000000 0.000000 
0.000000 0.000000 0.000000 

-0.000000 0.000000 0.000000 
0.000000 0.000000 0.000000 
0.000000 0.000000 0.000000 

-0.000000 -0.000000 0.000000 
0.000000 0.000000 0.000000 
0.000000 0.000000 0.000000 

-0.000000 0.000000 0.000000 
0.000000 0.000000 0.000000 
0.000000 0.000000 0.000000 

-0.000000 -0.000000 0.000000 
0.000000 0.000000 0.000000 
0.000000 0.000000 0.000000 

-0.000000 -0.000000 0.000000 
0.000000 -0.000000 0.000000 
0.000000 0.000000 0.000000 

-0.000000 -0.000000 0.000000 
0.000000 0.000000 0.000000 