# vtk DataFile Version 3.0 
vtk output 
ASCII 
DATASET UNSTRUCTURED_GRID 
POINTS 100 float 
0.451081 -2.865415 0.000000 
0.450416 -2.765157 0.000000 
0.450023 -2.665456 0.000000 
0.450004 -2.565476 0.000000 
0.450001 -2.465480 0.000000 
0.450000 -2.365482 0.000000 
0.450000 -2.265482 0.000000 
0.450000 -2.165482 0.000000 
0.450000 -2.065482 0.000000 
0.450000 -1.965482 0.000000 
0.350341 -2.865416 0.000000 
0.350136 -2.765158 0.000000 
0.350012 -2.665457 0.000000 
0.350002 -2.565477 0.000000 
0.350000 -2.465480 0.000000 
0.350000 -2.365482 0.000000 
0.350000 -2.265482 0.000000 
0.350000 -2.165482 0.000000 
0.350000 -2.065482 0.000000 
0.350000 -1.965482 0.000000 
0.249689 -2.865418 0.000000 
0.249888 -2.765157 0.000000 
0.250002 -2.665457 0.000000 
0.249999 -2.565476 0.000000 
0.250000 -2.465480 0.000000 
0.250000 -2.365482 0.000000 
0.250000 -2.265482 0.000000 
0.250000 -2.165482 0.000000 
0.250000 -2.065482 0.000000 
0.250000 -1.965482 0.000000 
0.150033 -2.865419 0.000000 
0.150013 -2.765156 0.000000 
0.150001 -2.665456 0.000000 
0.150000 -2.565476 0.000000 
0.150000 -2.465480 0.000000 
0.150000 -2.365482 0.000000 
0.150000 -2.265482 0.000000 
0.150000 -2.165482 0.000000 
0.150000 -2.065482 0.000000 
0.150000 -1.965482 0.000000 
0.050297 -2.865420 0.000000 
0.050110 -2.765156 0.000000 
0.050002 -2.665455 0.000000 
0.050001 -2.565476 0.000000 
0.050000 -2.465480 0.000000 
0.050000 -2.365482 0.000000 
0.050000 -2.265482 0.000000 
0.050000 -2.165482 0.000000 
0.050000 -2.065482 0.000000 
0.050000 -1.965482 0.000000 
-0.050297 -2.865420 0.000000 
-0.050110 -2.765156 0.000000 
-0.050002 -2.665455 0.000000 
-0.050001 -2.565476 0.000000 
-0.050000 -2.465480 0.000000 
-0.050000 -2.365482 0.000000 
-0.050000 -2.265482 0.000000 
-0.050000 -2.165482 0.000000 
-0.050000 -2.065482 0.000000 
-0.050000 -1.965482 0.000000 
-0.150033 -2.865419 0.000000 
-0.150013 -2.765156 0.000000 
-0.150001 -2.665456 0.000000 
-0.150000 -2.565476 0.000000 
-0.150000 -2.465480 0.000000 
-0.150000 -2.365482 0.000000 
-0.150000 -2.265482 0.000000 
-0.150000 -2.165482 0.000000 
-0.150000 -2.065482 0.000000 
-0.150000 -1.965482 0.000000 
-0.249689 -2.865418 0.000000 
-0.249888 -2.765157 0.000000 
-0.250002 -2.665457 0.000000 
-0.249999 -2.565476 0.000000 
-0.250000 -2.465480 0.000000 
-0.250000 -2.365482 0.000000 
-0.250000 -2.265482 0.000000 
-0.250000 -2.165482 0.000000 
-0.250000 -2.065482 0.000000 
-0.250000 -1.965482 0.000000 
-0.350341 -2.865416 0.000000 
-0.350136 -2.765158 0.000000 
-0.350012 -2.665457 0.000000 
-0.350002 -2.565477 0.000000 
-0.350000 -2.465480 0.000000 
-0.350000 -2.365482 0.000000 
-0.350000 -2.265482 0.000000 
-0.350000 -2.165482 0.000000 
-0.350000 -2.065482 0.000000 
-0.350000 -1.965482 0.000000 
-0.451081 -2.865415 0.000000 
-0.450416 -2.765157 0.000000 
-0.450023 -2.665456 0.000000 
-0.450004 -2.565476 0.000000 
-0.450001 -2.465480 0.000000 
-0.450000 -2.365482 0.000000 
-0.450000 -2.265482 0.000000 
-0.450000 -2.165482 0.000000 
-0.450000 -2.065482 0.000000 
-0.450000 -1.965482 0.000000 
CELLS 100 200 
1 0 
1 1 
1 2 
1 3 
1 4 
1 5 
1 6 
1 7 
1 8 
1 9 
1 10 
1 11 
1 12 
1 13 
1 14 
1 15 
1 16 
1 17 
1 18 
1 19 
1 20 
1 21 
1 22 
1 23 
1 24 
1 25 
1 26 
1 27 
1 28 
1 29 
1 30 
1 31 
1 32 
1 33 
1 34 
1 35 
1 36 
1 37 
1 38 
1 39 
1 40 
1 41 
1 42 
1 43 
1 44 
1 45 
1 46 
1 47 
1 48 
1 49 
1 50 
1 51 
1 52 
1 53 
1 54 
1 55 
1 56 
1 57 
1 58 
1 59 
1 60 
1 61 
1 62 
1 63 
1 64 
1 65 
1 66 
1 67 
1 68 
1 69 
1 70 
1 71 
1 72 
1 73 
1 74 
1 75 
1 76 
1 77 
1 78 
1 79 
1 80 
1 81 
1 82 
1 83 
1 84 
1 85 
1 86 
1 87 
1 88 
1 89 
1 90 
1 91 
1 92 
1 93 
1 94 
1 95 
1 96 
1 97 
1 98 
1 99 
CELL_TYPES 100 
1 
1 
1 
1 
1 
1 
1 
1 
1 
1 
1 
1 
1 
1 
1 
1 
1 
1 
1 
1 
1 
1 
1 
1 
1 
1 
1 
1 
1 
1 
1 
1 
1 
1 
1 
1 
1 
1 
1 
1 
1 
1 
1 
1 
1 
1 
1 
1 
1 
1 
1 
1 
1 
1 
1 
1 
1 
1 
1 
1 
1 
1 
1 
1 
1 
1 
1 
1 
1 
1 
1 
1 
1 
1 
1 
1 
1 
1 
1 
1 
1 
1 
1 
1 
1 
1 
1 
1 
1 
1 
1 
1 
1 
1 
1 
1 
1 
1 
1 
1 
POINT_DATA 100 
VECTORS X_GC float 
0.451081 -2.865415 0.000000 
0.450416 -2.765157 0.000000 
0.450023 -2.665456 0.000000 
0.450004 -2.565476 0.000000 
0.450001 -2.465480 0.000000 
0.450000 -2.365482 0.000000 
0.450000 -2.265482 0.000000 
0.450000 -2.165482 0.000000 
0.450000 -2.065482 0.000000 
0.450000 -1.965482 0.000000 
0.350341 -2.865416 0.000000 
0.350136 -2.765158 0.000000 
0.350012 -2.665457 0.000000 
0.350002 -2.565477 0.000000 
0.350000 -2.465480 0.000000 
0.350000 -2.365482 0.000000 
0.350000 -2.265482 0.000000 
0.350000 -2.165482 0.000000 
0.350000 -2.065482 0.000000 
0.350000 -1.965482 0.000000 
0.249689 -2.865418 0.000000 
0.249888 -2.765157 0.000000 
0.250002 -2.665457 0.000000 
0.249999 -2.565476 0.000000 
0.250000 -2.465480 0.000000 
0.250000 -2.365482 0.000000 
0.250000 -2.265482 0.000000 
0.250000 -2.165482 0.000000 
0.250000 -2.065482 0.000000 
0.250000 -1.965482 0.000000 
0.150033 -2.865419 0.000000 
0.150013 -2.765156 0.000000 
0.150001 -2.665456 0.000000 
0.150000 -2.565476 0.000000 
0.150000 -2.465480 0.000000 
0.150000 -2.365482 0.000000 
0.150000 -2.265482 0.000000 
0.150000 -2.165482 0.000000 
0.150000 -2.065482 0.000000 
0.150000 -1.965482 0.000000 
0.050297 -2.865420 0.000000 
0.050110 -2.765156 0.000000 
0.050002 -2.665455 0.000000 
0.050001 -2.565476 0.000000 
0.050000 -2.465480 0.000000 
0.050000 -2.365482 0.000000 
0.050000 -2.265482 0.000000 
0.050000 -2.165482 0.000000 
0.050000 -2.065482 0.000000 
0.050000 -1.965482 0.000000 
-0.050297 -2.865420 0.000000 
-0.050110 -2.765156 0.000000 
-0.050002 -2.665455 0.000000 
-0.050001 -2.565476 0.000000 
-0.050000 -2.465480 0.000000 
-0.050000 -2.365482 0.000000 
-0.050000 -2.265482 0.000000 
-0.050000 -2.165482 0.000000 
-0.050000 -2.065482 0.000000 
-0.050000 -1.965482 0.000000 
-0.150033 -2.865419 0.000000 
-0.150013 -2.765156 0.000000 
-0.150001 -2.665456 0.000000 
-0.150000 -2.565476 0.000000 
-0.150000 -2.465480 0.000000 
-0.150000 -2.365482 0.000000 
-0.150000 -2.265482 0.000000 
-0.150000 -2.165482 0.000000 
-0.150000 -2.065482 0.000000 
-0.150000 -1.965482 0.000000 
-0.249689 -2.865418 0.000000 
-0.249888 -2.765157 0.000000 
-0.250002 -2.665457 0.000000 
-0.249999 -2.565476 0.000000 
-0.250000 -2.465480 0.000000 
-0.250000 -2.365482 0.000000 
-0.250000 -2.265482 0.000000 
-0.250000 -2.165482 0.000000 
-0.250000 -2.065482 0.000000 
-0.250000 -1.965482 0.000000 
-0.350341 -2.865416 0.000000 
-0.350136 -2.765158 0.000000 
-0.350012 -2.665457 0.000000 
-0.350002 -2.565477 0.000000 
-0.350000 -2.465480 0.000000 
-0.350000 -2.365482 0.000000 
-0.350000 -2.265482 0.000000 
-0.350000 -2.165482 0.000000 
-0.350000 -2.065482 0.000000 
-0.350000 -1.965482 0.000000 
-0.451081 -2.865415 0.000000 
-0.450416 -2.765157 0.000000 
-0.450023 -2.665456 0.000000 
-0.450004 -2.565476 0.000000 
-0.450001 -2.465480 0.000000 
-0.450000 -2.365482 0.000000 
-0.450000 -2.265482 0.000000 
-0.450000 -2.165482 0.000000 
-0.450000 -2.065482 0.000000 
-0.450000 -1.965482 0.000000 
VECTORS X_EC float 
0.135941 -0.816900 0.000000 
0.144592 -0.170385 0.000000 
0.149706 0.483657 0.000000 
0.149942 -0.866071 0.000000 
0.149984 -0.216019 0.000000 
0.150000 0.434003 0.000000 
0.150000 -0.915997 0.000000 
0.150000 -0.265997 0.000000 
0.150000 0.384003 0.000000 
0.150000 -0.965997 0.000000 
-0.554434 -0.816881 0.000000 
-0.551773 -0.170366 0.000000 
-0.550162 0.483672 0.000000 
-0.550022 -0.866065 0.000000 
-0.550005 -0.216017 0.000000 
-0.550000 0.434003 0.000000 
-0.550000 -0.915997 0.000000 
-0.550000 -0.265997 0.000000 
-0.550000 0.384003 0.000000 
-0.550000 -0.965997 0.000000 
0.754041 -0.816863 0.000000 
0.751455 -0.170377 0.000000 
0.749979 0.483664 0.000000 
0.750007 -0.866068 0.000000 
0.750003 -0.216018 0.000000 
0.750000 0.434003 0.000000 
0.750000 -0.915997 0.000000 
0.750000 -0.265997 0.000000 
0.750000 0.384003 0.000000 
0.750000 -0.965997 0.000000 
0.049575 -0.816841 0.000000 
0.049832 -0.170390 0.000000 
0.049985 0.483653 0.000000 
0.049996 -0.866073 0.000000 
0.049999 -0.216020 0.000000 
0.050000 0.434003 0.000000 
0.050000 -0.915997 0.000000 
0.050000 -0.265997 0.000000 
0.050000 0.384003 0.000000 
0.050000 -0.965997 0.000000 
-0.653861 -0.816824 0.000000 
-0.651429 -0.170400 0.000000 
-0.650022 0.483645 0.000000 
-0.650012 -0.866077 0.000000 
-0.650004 -0.216021 0.000000 
-0.650000 0.434003 0.000000 
-0.650000 -0.915997 0.000000 
-0.650000 -0.265997 0.000000 
-0.650000 0.384003 0.000000 
-0.650000 -0.965997 0.000000 
0.653861 -0.816824 0.000000 
0.651429 -0.170400 0.000000 
0.650022 0.483645 0.000000 
0.650012 -0.866077 0.000000 
0.650004 -0.216021 0.000000 
0.650000 0.434003 0.000000 
0.650000 -0.915997 0.000000 
0.650000 -0.265997 0.000000 
0.650000 0.384003 0.000000 
0.650000 -0.965997 0.000000 
-0.049575 -0.816841 0.000000 
-0.049832 -0.170390 0.000000 
-0.049985 0.483653 0.000000 
-0.049996 -0.866073 0.000000 
-0.049999 -0.216020 0.000000 
-0.050000 0.434003 0.000000 
-0.050000 -0.915997 0.000000 
-0.050000 -0.265997 0.000000 
-0.050000 0.384003 0.000000 
-0.050000 -0.965997 0.000000 
-0.754041 -0.816863 0.000000 
-0.751455 -0.170377 0.000000 
-0.749979 0.483664 0.000000 
-0.750007 -0.866068 0.000000 
-0.750003 -0.216018 0.000000 
-0.750000 0.434003 0.000000 
-0.750000 -0.915997 0.000000 
-0.750000 -0.265997 0.000000 
-0.750000 0.384003 0.000000 
-0.750000 -0.965997 0.000000 
0.554434 -0.816881 0.000000 
0.551773 -0.170366 0.000000 
0.550162 0.483672 0.000000 
0.550022 -0.866065 0.000000 
0.550005 -0.216017 0.000000 
0.550000 0.434003 0.000000 
0.550000 -0.915997 0.000000 
0.550000 -0.265997 0.000000 
0.550000 0.384003 0.000000 
0.550000 -0.965997 0.000000 
-0.135941 -0.816900 0.000000 
-0.144592 -0.170385 0.000000 
-0.149706 0.483657 0.000000 
-0.149942 -0.866071 0.000000 
-0.149984 -0.216019 0.000000 
-0.150000 0.434003 0.000000 
-0.150000 -0.915997 0.000000 
-0.150000 -0.265997 0.000000 
-0.150000 0.384003 0.000000 
-0.150000 -0.965997 0.000000 
CELL_DATA 100 
SCALARS MASS float 
LOOKUP_TABLE default 
10.000000 
10.000000 
10.000000 
10.000000 
10.000000 
10.000000 
10.000000 
10.000000 
10.000000 
10.000000 
10.000000 
10.000000 
10.000000 
10.000000 
10.000000 
10.000000 
10.000000 
10.000000 
10.000000 
10.000000 
10.000000 
10.000000 
10.000000 
10.000000 
10.000000 
10.000000 
10.000000 
10.000000 
10.000000 
10.000000 
10.000000 
10.000000 
10.000000 
10.000000 
10.000000 
10.000000 
10.000000 
10.000000 
10.000000 
10.000000 
10.000000 
10.000000 
10.000000 
10.000000 
10.000000 
10.000000 
10.000000 
10.000000 
10.000000 
10.000000 
10.000000 
10.000000 
10.000000 
10.000000 
10.000000 
10.000000 
10.000000 
10.000000 
10.000000 
10.000000 
10.000000 
10.000000 
10.000000 
10.000000 
10.000000 
10.000000 
10.000000 
10.000000 
10.000000 
10.000000 
10.000000 
10.000000 
10.000000 
10.000000 
10.000000 
10.000000 
10.000000 
10.000000 
10.000000 
10.000000 
10.000000 
10.000000 
10.000000 
10.000000 
10.000000 
10.000000 
10.000000 
10.000000 
10.000000 
10.000000 
10.000000 
10.000000 
10.000000 
10.000000 
10.000000 
10.000000 
10.000000 
10.000000 
10.000000 
10.000000 
SCALARS MASS float 
LOOKUP_TABLE default 
10.000000 
10.000000 
10.000000 
10.000000 
10.000000 
10.000000 
10.000000 
10.000000 
10.000000 
10.000000 
10.000000 
10.000000 
10.000000 
10.000000 
10.000000 
10.000000 
10.000000 
10.000000 
10.000000 
10.000000 
10.000000 
10.000000 
10.000000 
10.000000 
10.000000 
10.000000 
10.000000 
10.000000 
10.000000 
10.000000 
10.000000 
10.000000 
10.000000 
10.000000 
10.000000 
10.000000 
10.000000 
10.000000 
10.000000 
10.000000 
10.000000 
10.000000 
10.000000 
10.000000 
10.000000 
10.000000 
10.000000 
10.000000 
10.000000 
10.000000 
10.000000 
10.000000 
10.000000 
10.000000 
10.000000 
10.000000 
10.000000 
10.000000 
10.000000 
10.000000 
10.000000 
10.000000 
10.000000 
10.000000 
10.000000 
10.000000 
10.000000 
10.000000 
10.000000 
10.000000 
10.000000 
10.000000 
10.000000 
10.000000 
10.000000 
10.000000 
10.000000 
10.000000 
10.000000 
10.000000 
10.000000 
10.000000 
10.000000 
10.000000 
10.000000 
10.000000 
10.000000 
10.000000 
10.000000 
10.000000 
10.000000 
10.000000 
10.000000 
10.000000 
10.000000 
10.000000 
10.000000 
10.000000 
10.000000 
10.000000 
SCALARS DENSITY float 
LOOKUP_TABLE default 
1104.647755 
998.963106 
1000.204689 
1000.314537 
1000.000000 
1000.000000 
1000.000000 
1000.000000 
1000.000000 
1000.000000 
1104.344572 
998.836648 
1000.169663 
1000.312697 
1000.000000 
1000.000000 
1000.000000 
1000.000000 
1000.000000 
1000.000000 
1104.344809 
998.836385 
1000.169727 
1000.312762 
1000.000000 
1000.000000 
1000.000000 
1000.000000 
1000.000000 
1000.000000 
1106.217086 
999.622135 
1000.385591 
1000.323263 
1000.000000 
1000.000000 
1000.000000 
1000.000000 
1000.000000 
1000.000000 
1105.075777 
999.143414 
1000.254178 
1000.316870 
1000.000000 
1000.000000 
1000.000000 
1000.000000 
1000.000000 
1000.000000 
1105.075777 
999.143414 
1000.254178 
1000.316870 
1000.000000 
1000.000000 
1000.000000 
1000.000000 
1000.000000 
1000.000000 
1106.217086 
999.622135 
1000.385591 
1000.323263 
1000.000000 
1000.000000 
1000.000000 
1000.000000 
1000.000000 
1000.000000 
1104.344809 
998.836385 
1000.169727 
1000.312762 
1000.000000 
1000.000000 
1000.000000 
1000.000000 
1000.000000 
1000.000000 
1104.344572 
998.836648 
1000.169663 
1000.312697 
1000.000000 
1000.000000 
1000.000000 
1000.000000 
1000.000000 
1000.000000 
1104.647755 
998.963106 
1000.204689 
1000.314537 
1000.000000 
1000.000000 
1000.000000 
1000.000000 
1000.000000 
1000.000000 
SCALARS ELEM_i float 
LOOKUP_TABLE default 
81 
82 
83 
83 
84 
85 
85 
86 
87 
87 
108 
109 
110 
110 
111 
112 
112 
113 
114 
114 
108 
109 
110 
110 
111 
112 
112 
113 
114 
114 
135 
136 
137 
137 
138 
139 
139 
140 
141 
141 
162 
163 
164 
164 
165 
166 
166 
167 
168 
168 
162 
163 
164 
164 
165 
166 
166 
167 
168 
168 
189 
190 
191 
191 
192 
193 
193 
194 
195 
195 
216 
217 
218 
218 
219 
220 
220 
221 
222 
222 
216 
217 
218 
218 
219 
220 
220 
221 
222 
222 
243 
244 
245 
245 
246 
247 
247 
248 
249 
249 
VECTORS VELOCITY float 
1.275611 -7.319255 0.000000 
0.460574 -6.434026 0.000000 
-0.004298 -6.892170 0.000000 
0.004538 -6.875254 0.000000 
0.001794 -6.878453 0.000000 
0.000000 -6.880734 0.000000 
0.000000 -6.880734 0.000000 
-0.000000 -6.880734 0.000000 
-0.000000 -6.880734 0.000000 
-0.000000 -6.880734 0.000000 
0.351843 -7.321403 0.000000 
0.127526 -6.436044 0.000000 
-0.000662 -6.893802 0.000000 
0.001567 -6.875955 0.000000 
0.000604 -6.878688 0.000000 
-0.000000 -6.880734 0.000000 
0.000000 -6.880734 0.000000 
0.000000 -6.880734 0.000000 
0.000000 -6.880734 0.000000 
0.000000 -6.880734 0.000000 
-0.421648 -7.323272 0.000000 
-0.148797 -6.434913 0.000000 
0.005337 -6.892915 0.000000 
-0.000570 -6.875560 0.000000 
-0.000313 -6.878555 0.000000 
0.000000 -6.880734 0.000000 
-0.000000 -6.880734 0.000000 
-0.000000 -6.880734 0.000000 
0.000000 -6.880734 0.000000 
-0.000000 -6.880734 0.000000 
0.043719 -7.325611 0.000000 
0.017039 -6.433537 0.000000 
0.001228 -6.891778 0.000000 
0.000390 -6.875055 0.000000 
0.000125 -6.878385 0.000000 
0.000000 -6.880734 0.000000 
-0.000000 -6.880734 0.000000 
-0.000000 -6.880734 0.000000 
0.000000 -6.880734 0.000000 
-0.000000 -6.880734 0.000000 
0.389701 -7.327405 0.000000 
0.139870 -6.432488 0.000000 
-0.002297 -6.890904 0.000000 
0.001060 -6.874667 0.000000 
0.000443 -6.878255 0.000000 
-0.000000 -6.880734 0.000000 
-0.000000 -6.880734 0.000000 
-0.000000 -6.880734 0.000000 
0.000000 -6.880734 0.000000 
-0.000000 -6.880734 0.000000 
-0.389701 -7.327405 0.000000 
-0.139870 -6.432488 0.000000 
0.002297 -6.890904 0.000000 
-0.001060 -6.874667 0.000000 
-0.000443 -6.878255 0.000000 
0.000000 -6.880734 0.000000 
-0.000000 -6.880734 0.000000 
0.000000 -6.880734 0.000000 
0.000000 -6.880734 0.000000 
-0.000000 -6.880734 0.000000 
-0.043719 -7.325611 0.000000 
-0.017039 -6.433537 0.000000 
-0.001228 -6.891778 0.000000 
-0.000390 -6.875055 0.000000 
-0.000125 -6.878385 0.000000 
0.000000 -6.880734 0.000000 
0.000000 -6.880734 0.000000 
0.000000 -6.880734 0.000000 
0.000000 -6.880734 0.000000 
-0.000000 -6.880734 0.000000 
0.421648 -7.323272 0.000000 
0.148797 -6.434913 0.000000 
-0.005337 -6.892915 0.000000 
0.000570 -6.875560 0.000000 
0.000313 -6.878555 0.000000 
0.000000 -6.880734 0.000000 
0.000000 -6.880734 0.000000 
0.000000 -6.880734 0.000000 
-0.000000 -6.880734 0.000000 
-0.000000 -6.880734 0.000000 
-0.351843 -7.321403 0.000000 
-0.127526 -6.436044 0.000000 
0.000662 -6.893802 0.000000 
-0.001567 -6.875955 0.000000 
-0.000604 -6.878688 0.000000 
0.000000 -6.880734 0.000000 
0.000000 -6.880734 0.000000 
0.000000 -6.880734 0.000000 
0.000000 -6.880734 0.000000 
0.000000 -6.880734 0.000000 
-1.275611 -7.319255 0.000000 
-0.460574 -6.434026 0.000000 
0.004298 -6.892170 0.000000 
-0.004538 -6.875254 0.000000 
-0.001794 -6.878453 0.000000 
0.000000 -6.880734 0.000000 
-0.000000 -6.880734 0.000000 
0.000000 -6.880734 0.000000 
0.000000 -6.880734 0.000000 
0.000000 -6.880734 0.000000 
TENSORS STRESS float 
-1803.331296 -1.827597 0.000000 
0.000000 -2215.816263 0.000000 
0.000000 0.000000 0.000000 

35.150819 -6.973286 0.000000 
0.000000 36.507612 0.000000 
0.000000 0.000000 0.000000 

-5.554130 -1.681326 0.000000 
0.000000 -8.556604 0.000000 
0.000000 0.000000 0.000000 

-9.716670 -1.682887 0.000000 
0.000000 -11.961878 0.000000 
0.000000 0.000000 0.000000 

0.000000 -0.000000 0.000000 
0.000000 0.000000 0.000000 
0.000000 0.000000 0.000000 

0.000000 0.000000 0.000000 
0.000000 0.000000 0.000000 
0.000000 0.000000 0.000000 

0.000000 0.000000 0.000000 
0.000000 0.000000 0.000000 
0.000000 0.000000 0.000000 

-0.000000 0.000000 0.000000 
0.000000 -0.000000 0.000000 
0.000000 0.000000 0.000000 

-0.000000 -0.000000 0.000000 
0.000000 -0.000000 0.000000 
0.000000 0.000000 0.000000 

0.000000 -0.000000 0.000000 
0.000000 -0.000000 0.000000 
0.000000 0.000000 0.000000 

-1795.006678 -0.916091 0.000000 
0.000000 -2209.203401 0.000000 
0.000000 0.000000 0.000000 

39.972180 -3.507523 0.000000 
0.000000 40.445959 0.000000 
0.000000 0.000000 0.000000 

-4.227432 -0.847456 0.000000 
0.000000 -7.469468 0.000000 
0.000000 0.000000 0.000000 

-9.647964 -0.846891 0.000000 
0.000000 -11.903875 0.000000 
0.000000 0.000000 0.000000 

0.000000 -0.000000 0.000000 
0.000000 -0.000000 0.000000 
0.000000 0.000000 0.000000 

0.000000 0.000000 0.000000 
0.000000 0.000000 0.000000 
0.000000 0.000000 0.000000 

0.000000 -0.000000 0.000000 
0.000000 0.000000 0.000000 
0.000000 0.000000 0.000000 

-0.000000 -0.000000 0.000000 
0.000000 -0.000000 0.000000 
0.000000 0.000000 0.000000 

-0.000000 -0.000000 0.000000 
0.000000 -0.000000 0.000000 
0.000000 0.000000 0.000000 

-0.000000 0.000000 0.000000 
0.000000 -0.000000 0.000000 
0.000000 0.000000 0.000000 

-1795.011925 0.153608 0.000000 
0.000000 -2209.209811 0.000000 
0.000000 0.000000 0.000000 

39.980411 0.578548 0.000000 
0.000000 40.456016 0.000000 
0.000000 0.000000 0.000000 

-4.229430 0.138346 0.000000 
0.000000 -7.471909 0.000000 
0.000000 0.000000 0.000000 

-9.649961 0.138770 0.000000 
0.000000 -11.906315 0.000000 
0.000000 0.000000 0.000000 

0.000000 -0.000000 0.000000 
0.000000 -0.000000 0.000000 
0.000000 0.000000 0.000000 

0.000000 0.000000 0.000000 
0.000000 0.000000 0.000000 
0.000000 0.000000 0.000000 

0.000000 -0.000000 0.000000 
0.000000 0.000000 0.000000 
0.000000 0.000000 0.000000 

0.000000 0.000000 0.000000 
0.000000 0.000000 0.000000 
0.000000 0.000000 0.000000 

0.000000 -0.000000 0.000000 
0.000000 0.000000 0.000000 
0.000000 0.000000 0.000000 

-0.000000 0.000000 0.000000 
0.000000 -0.000000 0.000000 
0.000000 0.000000 0.000000 

-1846.286814 -0.020199 0.000000 
0.000000 -2249.908832 0.000000 
0.000000 0.000000 0.000000 

10.087181 -0.076703 0.000000 
0.000000 15.992194 0.000000 
0.000000 0.000000 0.000000 

-12.408704 -0.018439 0.000000 
0.000000 -14.163265 0.000000 
0.000000 0.000000 0.000000 

-10.047749 -0.018485 0.000000 
0.000000 -12.231824 0.000000 
0.000000 0.000000 0.000000 

-0.000000 0.000000 0.000000 
0.000000 -0.000000 0.000000 
0.000000 0.000000 0.000000 

0.000000 0.000000 0.000000 
0.000000 0.000000 0.000000 
0.000000 0.000000 0.000000 

-0.000000 0.000000 0.000000 
0.000000 -0.000000 0.000000 
0.000000 0.000000 0.000000 

0.000000 -0.000000 0.000000 
0.000000 0.000000 0.000000 
0.000000 0.000000 0.000000 

-0.000000 -0.000000 0.000000 
0.000000 -0.000000 0.000000 
0.000000 0.000000 0.000000 

0.000000 0.000000 0.000000 
0.000000 0.000000 0.000000 
0.000000 0.000000 0.000000 

-1815.073100 -0.234564 0.000000 
0.000000 -2225.133720 0.000000 
0.000000 0.000000 0.000000 

28.288559 -0.896316 0.000000 
0.000000 30.887690 0.000000 
0.000000 0.000000 0.000000 

-7.430215 -0.215999 0.000000 
0.000000 -10.090422 0.000000 
0.000000 0.000000 0.000000 

-9.805592 -0.215986 0.000000 
0.000000 -12.033661 0.000000 
0.000000 0.000000 0.000000 

-0.000000 0.000000 0.000000 
0.000000 -0.000000 0.000000 
0.000000 0.000000 0.000000 

-0.000000 0.000000 0.000000 
0.000000 -0.000000 0.000000 
0.000000 0.000000 0.000000 

0.000000 0.000000 0.000000 
0.000000 0.000000 0.000000 
0.000000 0.000000 0.000000 

0.000000 0.000000 0.000000 
0.000000 0.000000 0.000000 
0.000000 0.000000 0.000000 

0.000000 -0.000000 0.000000 
0.000000 -0.000000 0.000000 
0.000000 0.000000 0.000000 

0.000000 -0.000000 0.000000 
0.000000 -0.000000 0.000000 
0.000000 0.000000 0.000000 

-1815.073100 0.234564 0.000000 
0.000000 -2225.133720 0.000000 
0.000000 0.000000 0.000000 

28.288559 0.896316 0.000000 
0.000000 30.887690 0.000000 
0.000000 0.000000 0.000000 

-7.430215 0.215999 0.000000 
0.000000 -10.090422 0.000000 
0.000000 0.000000 0.000000 

-9.805592 0.215986 0.000000 
0.000000 -12.033661 0.000000 
0.000000 0.000000 0.000000 

-0.000000 -0.000000 0.000000 
0.000000 -0.000000 0.000000 
0.000000 0.000000 0.000000 

-0.000000 -0.000000 0.000000 
0.000000 -0.000000 0.000000 
0.000000 0.000000 0.000000 

0.000000 -0.000000 0.000000 
0.000000 0.000000 0.000000 
0.000000 0.000000 0.000000 

0.000000 0.000000 0.000000 
0.000000 0.000000 0.000000 
0.000000 0.000000 0.000000 

0.000000 -0.000000 0.000000 
0.000000 0.000000 0.000000 
0.000000 0.000000 0.000000 

-0.000000 0.000000 0.000000 
0.000000 -0.000000 0.000000 
0.000000 0.000000 0.000000 

-1846.286814 0.020199 0.000000 
0.000000 -2249.908832 0.000000 
0.000000 0.000000 0.000000 

10.087181 0.076703 0.000000 
0.000000 15.992194 0.000000 
0.000000 0.000000 0.000000 

-12.408704 0.018439 0.000000 
0.000000 -14.163265 0.000000 
0.000000 0.000000 0.000000 

-10.047749 0.018485 0.000000 
0.000000 -12.231824 0.000000 
0.000000 0.000000 0.000000 

-0.000000 -0.000000 0.000000 
0.000000 -0.000000 0.000000 
0.000000 0.000000 0.000000 

-0.000000 -0.000000 0.000000 
0.000000 -0.000000 0.000000 
0.000000 0.000000 0.000000 

-0.000000 -0.000000 0.000000 
0.000000 -0.000000 0.000000 
0.000000 0.000000 0.000000 

0.000000 0.000000 0.000000 
0.000000 0.000000 0.000000 
0.000000 0.000000 0.000000 

-0.000000 -0.000000 0.000000 
0.000000 -0.000000 0.000000 
0.000000 0.000000 0.000000 

0.000000 -0.000000 0.000000 
0.000000 0.000000 0.000000 
0.000000 0.000000 0.000000 

-1795.011925 -0.153608 0.000000 
0.000000 -2209.209811 0.000000 
0.000000 0.000000 0.000000 

39.980411 -0.578548 0.000000 
0.000000 40.456016 0.000000 
0.000000 0.000000 0.000000 

-4.229430 -0.138346 0.000000 
0.000000 -7.471909 0.000000 
0.000000 0.000000 0.000000 

-9.649961 -0.138770 0.000000 
0.000000 -11.906315 0.000000 
0.000000 0.000000 0.000000 

0.000000 -0.000000 0.000000 
0.000000 0.000000 0.000000 
0.000000 0.000000 0.000000 

-0.000000 -0.000000 0.000000 
0.000000 -0.000000 0.000000 
0.000000 0.000000 0.000000 

0.000000 -0.000000 0.000000 
0.000000 0.000000 0.000000 
0.000000 0.000000 0.000000 

-0.000000 0.000000 0.000000 
0.000000 0.000000 0.000000 
0.000000 0.000000 0.000000 

-0.000000 0.000000 0.000000 
0.000000 0.000000 0.000000 
0.000000 0.000000 0.000000 

0.000000 -0.000000 0.000000 
0.000000 0.000000 0.000000 
0.000000 0.000000 0.000000 

-1795.006678 0.916091 0.000000 
0.000000 -2209.203401 0.000000 
0.000000 0.000000 0.000000 

39.972180 3.507523 0.000000 
0.000000 40.445959 0.000000 
0.000000 0.000000 0.000000 

-4.227432 0.847456 0.000000 
0.000000 -7.469468 0.000000 
0.000000 0.000000 0.000000 

-9.647964 0.846891 0.000000 
0.000000 -11.903875 0.000000 
0.000000 0.000000 0.000000 

-0.000000 0.000000 0.000000 
0.000000 -0.000000 0.000000 
0.000000 0.000000 0.000000 

0.000000 -0.000000 0.000000 
0.000000 0.000000 0.000000 
0.000000 0.000000 0.000000 

-0.000000 0.000000 0.000000 
0.000000 -0.000000 0.000000 
0.000000 0.000000 0.000000 

-0.000000 0.000000 0.000000 
0.000000 -0.000000 0.000000 
0.000000 0.000000 0.000000 

-0.000000 0.000000 0.000000 
0.000000 -0.000000 0.000000 
0.000000 0.000000 0.000000 

-0.000000 -0.000000 0.000000 
0.000000 -0.000000 0.000000 
0.000000 0.000000 0.000000 

-1803.331296 1.827597 0.000000 
0.000000 -2215.816263 0.000000 
0.000000 0.000000 0.000000 

35.150819 6.973286 0.000000 
0.000000 36.507612 0.000000 
0.000000 0.000000 0.000000 

-5.554130 1.681326 0.000000 
0.000000 -8.556604 0.000000 
0.000000 0.000000 0.000000 

-9.716670 1.682887 0.000000 
0.000000 -11.961878 0.000000 
0.000000 0.000000 0.000000 

0.000000 0.000000 0.000000 
0.000000 0.000000 0.000000 
0.000000 0.000000 0.000000 

0.000000 -0.000000 0.000000 
0.000000 -0.000000 0.000000 
0.000000 0.000000 0.000000 

0.000000 -0.000000 0.000000 
0.000000 0.000000 0.000000 
0.000000 0.000000 0.000000 

-0.000000 0.000000 0.000000 
0.000000 -0.000000 0.000000 
0.000000 0.000000 0.000000 

0.000000 0.000000 0.000000 
0.000000 -0.000000 0.000000 
0.000000 0.000000 0.000000 

0.000000 0.000000 0.000000 
0.000000 0.000000 0.000000 
0.000000 0.000000 0.000000 

TENSORS STRAIN float 
0.000847 -0.000293 0.000000 
0.000000 -0.065223 0.000000 
0.000000 0.000000 0.000000 

0.000421 -0.001010 0.000000 
0.000000 0.000617 0.000000 
0.000000 0.000000 0.000000 

0.000115 -0.000244 0.000000 
0.000000 -0.000320 0.000000 
0.000000 0.000000 0.000000 

0.000006 -0.000244 0.000000 
0.000000 -0.000320 0.000000 
0.000000 0.000000 0.000000 

0.000000 -0.000000 0.000000 
0.000000 0.000000 0.000000 
0.000000 0.000000 0.000000 

0.000000 0.000000 0.000000 
0.000000 -0.000000 0.000000 
0.000000 0.000000 0.000000 

-0.000000 0.000000 0.000000 
0.000000 0.000000 0.000000 
0.000000 0.000000 0.000000 

0.000000 0.000000 0.000000 
0.000000 -0.000000 0.000000 
0.000000 0.000000 0.000000 

0.000000 -0.000000 0.000000 
0.000000 -0.000000 0.000000 
0.000000 0.000000 0.000000 

0.000000 -0.000000 0.000000 
0.000000 -0.000000 0.000000 
0.000000 0.000000 0.000000 

0.001103 -0.000147 0.000000 
0.000000 -0.065222 0.000000 
0.000000 0.000000 0.000000 

0.000548 -0.000508 0.000000 
0.000000 0.000617 0.000000 
0.000000 0.000000 0.000000 

0.000150 -0.000123 0.000000 
0.000000 -0.000320 0.000000 
0.000000 0.000000 0.000000 

0.000007 -0.000123 0.000000 
0.000000 -0.000320 0.000000 
0.000000 0.000000 0.000000 

0.000000 -0.000000 0.000000 
0.000000 -0.000000 0.000000 
0.000000 0.000000 0.000000 

-0.000000 0.000000 0.000000 
0.000000 0.000000 0.000000 
0.000000 0.000000 0.000000 

0.000000 -0.000000 0.000000 
0.000000 0.000000 0.000000 
0.000000 0.000000 0.000000 

-0.000000 -0.000000 0.000000 
0.000000 0.000000 0.000000 
0.000000 0.000000 0.000000 

-0.000000 -0.000000 0.000000 
0.000000 0.000000 0.000000 
0.000000 0.000000 0.000000 

-0.000000 0.000000 0.000000 
0.000000 0.000000 0.000000 
0.000000 0.000000 0.000000 

0.001103 0.000025 0.000000 
0.000000 -0.065223 0.000000 
0.000000 0.000000 0.000000 

0.000548 0.000084 0.000000 
0.000000 0.000617 0.000000 
0.000000 0.000000 0.000000 

0.000150 0.000020 0.000000 
0.000000 -0.000320 0.000000 
0.000000 0.000000 0.000000 

0.000007 0.000020 0.000000 
0.000000 -0.000320 0.000000 
0.000000 0.000000 0.000000 

0.000000 -0.000000 0.000000 
0.000000 -0.000000 0.000000 
0.000000 0.000000 0.000000 

-0.000000 0.000000 0.000000 
0.000000 0.000000 0.000000 
0.000000 0.000000 0.000000 

0.000000 -0.000000 0.000000 
0.000000 -0.000000 0.000000 
0.000000 0.000000 0.000000 

-0.000000 0.000000 0.000000 
0.000000 0.000000 0.000000 
0.000000 0.000000 0.000000 

-0.000000 -0.000000 0.000000 
0.000000 0.000000 0.000000 
0.000000 0.000000 0.000000 

-0.000000 0.000000 0.000000 
0.000000 0.000000 0.000000 
0.000000 0.000000 0.000000 

-0.000481 -0.000003 0.000000 
0.000000 -0.065223 0.000000 
0.000000 0.000000 0.000000 

-0.000239 -0.000011 0.000000 
0.000000 0.000617 0.000000 
0.000000 0.000000 0.000000 

-0.000065 -0.000003 0.000000 
0.000000 -0.000320 0.000000 
0.000000 0.000000 0.000000 

-0.000003 -0.000003 0.000000 
0.000000 -0.000320 0.000000 
0.000000 0.000000 0.000000 

-0.000000 0.000000 0.000000 
0.000000 -0.000000 0.000000 
0.000000 0.000000 0.000000 

0.000000 0.000000 0.000000 
0.000000 0.000000 0.000000 
0.000000 0.000000 0.000000 

-0.000000 0.000000 0.000000 
0.000000 0.000000 0.000000 
0.000000 0.000000 0.000000 

-0.000000 -0.000000 0.000000 
0.000000 0.000000 0.000000 
0.000000 0.000000 0.000000 

-0.000000 -0.000000 0.000000 
0.000000 -0.000000 0.000000 
0.000000 0.000000 0.000000 

0.000000 0.000000 0.000000 
0.000000 -0.000000 0.000000 
0.000000 0.000000 0.000000 

0.000484 -0.000038 0.000000 
0.000000 -0.065223 0.000000 
0.000000 0.000000 0.000000 

0.000240 -0.000130 0.000000 
0.000000 0.000617 0.000000 
0.000000 0.000000 0.000000 

0.000066 -0.000031 0.000000 
0.000000 -0.000320 0.000000 
0.000000 0.000000 0.000000 

0.000003 -0.000031 0.000000 
0.000000 -0.000320 0.000000 
0.000000 0.000000 0.000000 

-0.000000 0.000000 0.000000 
0.000000 -0.000000 0.000000 
0.000000 0.000000 0.000000 

-0.000000 0.000000 0.000000 
0.000000 -0.000000 0.000000 
0.000000 0.000000 0.000000 

-0.000000 0.000000 0.000000 
0.000000 0.000000 0.000000 
0.000000 0.000000 0.000000 

0.000000 0.000000 0.000000 
0.000000 0.000000 0.000000 
0.000000 0.000000 0.000000 
