# vtk DataFile Version 3.0 
vtk output 
ASCII 
DATASET UNSTRUCTURED_GRID 
POINTS 100 float 
0.461542 -2.887808 0.000000 
0.455413 -2.787137 0.000000 
0.450664 -2.689297 0.000000 
0.450371 -2.589262 0.000000 
0.450173 -2.489416 0.000000 
0.450032 -2.389594 0.000000 
0.450013 -2.289618 0.000000 
0.450005 -2.189630 0.000000 
0.450001 -2.089635 0.000000 
0.450000 -1.989636 0.000000 
0.354885 -2.887950 0.000000 
0.352449 -2.787290 0.000000 
0.350475 -2.689421 0.000000 
0.350207 -2.589313 0.000000 
0.350085 -2.489433 0.000000 
0.350018 -2.389596 0.000000 
0.350006 -2.289619 0.000000 
0.350002 -2.189630 0.000000 
0.350000 -2.089635 0.000000 
0.350000 -1.989636 0.000000 
0.248473 -2.888103 0.000000 
0.249665 -2.787313 0.000000 
0.250399 -2.689346 0.000000 
0.250094 -2.589276 0.000000 
0.250014 -2.489419 0.000000 
0.250005 -2.389594 0.000000 
0.250001 -2.289618 0.000000 
0.250000 -2.189630 0.000000 
0.250000 -2.089635 0.000000 
0.250000 -1.989636 0.000000 
0.150516 -2.888237 0.000000 
0.150336 -2.787299 0.000000 
0.150163 -2.689230 0.000000 
0.150072 -2.589211 0.000000 
0.150028 -2.489391 0.000000 
0.150006 -2.389590 0.000000 
0.150002 -2.289616 0.000000 
0.150001 -2.189629 0.000000 
0.150000 -2.089635 0.000000 
0.150000 -1.989636 0.000000 
0.052262 -2.888334 0.000000 
0.050928 -2.787283 0.000000 
0.049976 -2.689137 0.000000 
0.050047 -2.589160 0.000000 
0.050035 -2.489368 0.000000 
0.050006 -2.389586 0.000000 
0.050003 -2.289615 0.000000 
0.050001 -2.189628 0.000000 
0.050000 -2.089635 0.000000 
0.050000 -1.989636 0.000000 
-0.052262 -2.888334 0.000000 
-0.050928 -2.787283 0.000000 
-0.049976 -2.689137 0.000000 
-0.050047 -2.589160 0.000000 
-0.050035 -2.489368 0.000000 
-0.050006 -2.389586 0.000000 
-0.050003 -2.289615 0.000000 
-0.050001 -2.189628 0.000000 
-0.050000 -2.089635 0.000000 
-0.050000 -1.989636 0.000000 
-0.150516 -2.888237 0.000000 
-0.150336 -2.787299 0.000000 
-0.150163 -2.689230 0.000000 
-0.150072 -2.589211 0.000000 
-0.150028 -2.489391 0.000000 
-0.150006 -2.389590 0.000000 
-0.150002 -2.289616 0.000000 
-0.150001 -2.189629 0.000000 
-0.150000 -2.089635 0.000000 
-0.150000 -1.989636 0.000000 
-0.248473 -2.888103 0.000000 
-0.249665 -2.787313 0.000000 
-0.250399 -2.689346 0.000000 
-0.250094 -2.589276 0.000000 
-0.250014 -2.489419 0.000000 
-0.250005 -2.389594 0.000000 
-0.250001 -2.289618 0.000000 
-0.250000 -2.189630 0.000000 
-0.250000 -2.089635 0.000000 
-0.250000 -1.989636 0.000000 
-0.354885 -2.887950 0.000000 
-0.352449 -2.787290 0.000000 
-0.350475 -2.689421 0.000000 
-0.350207 -2.589313 0.000000 
-0.350085 -2.489433 0.000000 
-0.350018 -2.389596 0.000000 
-0.350006 -2.289619 0.000000 
-0.350002 -2.189630 0.000000 
-0.350000 -2.089635 0.000000 
-0.350000 -1.989636 0.000000 
-0.461542 -2.887808 0.000000 
-0.455413 -2.787137 0.000000 
-0.450664 -2.689297 0.000000 
-0.450371 -2.589262 0.000000 
-0.450173 -2.489416 0.000000 
-0.450032 -2.389594 0.000000 
-0.450013 -2.289618 0.000000 
-0.450005 -2.189630 0.000000 
-0.450001 -2.089635 0.000000 
-0.450000 -1.989636 0.000000 
CELLS 100 200 
1 0 
1 1 
1 2 
1 3 
1 4 
1 5 
1 6 
1 7 
1 8 
1 9 
1 10 
1 11 
1 12 
1 13 
1 14 
1 15 
1 16 
1 17 
1 18 
1 19 
1 20 
1 21 
1 22 
1 23 
1 24 
1 25 
1 26 
1 27 
1 28 
1 29 
1 30 
1 31 
1 32 
1 33 
1 34 
1 35 
1 36 
1 37 
1 38 
1 39 
1 40 
1 41 
1 42 
1 43 
1 44 
1 45 
1 46 
1 47 
1 48 
1 49 
1 50 
1 51 
1 52 
1 53 
1 54 
1 55 
1 56 
1 57 
1 58 
1 59 
1 60 
1 61 
1 62 
1 63 
1 64 
1 65 
1 66 
1 67 
1 68 
1 69 
1 70 
1 71 
1 72 
1 73 
1 74 
1 75 
1 76 
1 77 
1 78 
1 79 
1 80 
1 81 
1 82 
1 83 
1 84 
1 85 
1 86 
1 87 
1 88 
1 89 
1 90 
1 91 
1 92 
1 93 
1 94 
1 95 
1 96 
1 97 
1 98 
1 99 
CELL_TYPES 100 
1 
1 
1 
1 
1 
1 
1 
1 
1 
1 
1 
1 
1 
1 
1 
1 
1 
1 
1 
1 
1 
1 
1 
1 
1 
1 
1 
1 
1 
1 
1 
1 
1 
1 
1 
1 
1 
1 
1 
1 
1 
1 
1 
1 
1 
1 
1 
1 
1 
1 
1 
1 
1 
1 
1 
1 
1 
1 
1 
1 
1 
1 
1 
1 
1 
1 
1 
1 
1 
1 
1 
1 
1 
1 
1 
1 
1 
1 
1 
1 
1 
1 
1 
1 
1 
1 
1 
1 
1 
1 
1 
1 
1 
1 
1 
1 
1 
1 
1 
1 
POINT_DATA 100 
VECTORS X_GC float 
0.461542 -2.887808 0.000000 
0.455413 -2.787137 0.000000 
0.450664 -2.689297 0.000000 
0.450371 -2.589262 0.000000 
0.450173 -2.489416 0.000000 
0.450032 -2.389594 0.000000 
0.450013 -2.289618 0.000000 
0.450005 -2.189630 0.000000 
0.450001 -2.089635 0.000000 
0.450000 -1.989636 0.000000 
0.354885 -2.887950 0.000000 
0.352449 -2.787290 0.000000 
0.350475 -2.689421 0.000000 
0.350207 -2.589313 0.000000 
0.350085 -2.489433 0.000000 
0.350018 -2.389596 0.000000 
0.350006 -2.289619 0.000000 
0.350002 -2.189630 0.000000 
0.350000 -2.089635 0.000000 
0.350000 -1.989636 0.000000 
0.248473 -2.888103 0.000000 
0.249665 -2.787313 0.000000 
0.250399 -2.689346 0.000000 
0.250094 -2.589276 0.000000 
0.250014 -2.489419 0.000000 
0.250005 -2.389594 0.000000 
0.250001 -2.289618 0.000000 
0.250000 -2.189630 0.000000 
0.250000 -2.089635 0.000000 
0.250000 -1.989636 0.000000 
0.150516 -2.888237 0.000000 
0.150336 -2.787299 0.000000 
0.150163 -2.689230 0.000000 
0.150072 -2.589211 0.000000 
0.150028 -2.489391 0.000000 
0.150006 -2.389590 0.000000 
0.150002 -2.289616 0.000000 
0.150001 -2.189629 0.000000 
0.150000 -2.089635 0.000000 
0.150000 -1.989636 0.000000 
0.052262 -2.888334 0.000000 
0.050928 -2.787283 0.000000 
0.049976 -2.689137 0.000000 
0.050047 -2.589160 0.000000 
0.050035 -2.489368 0.000000 
0.050006 -2.389586 0.000000 
0.050003 -2.289615 0.000000 
0.050001 -2.189628 0.000000 
0.050000 -2.089635 0.000000 
0.050000 -1.989636 0.000000 
-0.052262 -2.888334 0.000000 
-0.050928 -2.787283 0.000000 
-0.049976 -2.689137 0.000000 
-0.050047 -2.589160 0.000000 
-0.050035 -2.489368 0.000000 
-0.050006 -2.389586 0.000000 
-0.050003 -2.289615 0.000000 
-0.050001 -2.189628 0.000000 
-0.050000 -2.089635 0.000000 
-0.050000 -1.989636 0.000000 
-0.150516 -2.888237 0.000000 
-0.150336 -2.787299 0.000000 
-0.150163 -2.689230 0.000000 
-0.150072 -2.589211 0.000000 
-0.150028 -2.489391 0.000000 
-0.150006 -2.389590 0.000000 
-0.150002 -2.289616 0.000000 
-0.150001 -2.189629 0.000000 
-0.150000 -2.089635 0.000000 
-0.150000 -1.989636 0.000000 
-0.248473 -2.888103 0.000000 
-0.249665 -2.787313 0.000000 
-0.250399 -2.689346 0.000000 
-0.250094 -2.589276 0.000000 
-0.250014 -2.489419 0.000000 
-0.250005 -2.389594 0.000000 
-0.250001 -2.289618 0.000000 
-0.250000 -2.189630 0.000000 
-0.250000 -2.089635 0.000000 
-0.250000 -1.989636 0.000000 
-0.354885 -2.887950 0.000000 
-0.352449 -2.787290 0.000000 
-0.350475 -2.689421 0.000000 
-0.350207 -2.589313 0.000000 
-0.350085 -2.489433 0.000000 
-0.350018 -2.389596 0.000000 
-0.350006 -2.289619 0.000000 
-0.350002 -2.189630 0.000000 
-0.350000 -2.089635 0.000000 
-0.350000 -1.989636 0.000000 
-0.461542 -2.887808 0.000000 
-0.455413 -2.787137 0.000000 
-0.450664 -2.689297 0.000000 
-0.450371 -2.589262 0.000000 
-0.450173 -2.489416 0.000000 
-0.450032 -2.389594 0.000000 
-0.450013 -2.289618 0.000000 
-0.450005 -2.189630 0.000000 
-0.450001 -2.089635 0.000000 
-0.450000 -1.989636 0.000000 
VECTORS X_EC float 
-0.000052 -0.514591 0.000000 
0.079627 0.126354 0.000000 
0.141367 0.805513 0.000000 
0.145172 -0.544961 0.000000 
0.147757 0.107116 0.000000 
0.149580 0.759519 0.000000 
0.149831 -0.590155 0.000000 
0.149941 0.059999 0.000000 
0.149993 0.710079 0.000000 
0.149997 -0.639914 0.000000 
-0.613508 -0.512681 0.000000 
-0.581841 0.128411 0.000000 
-0.556175 0.807186 0.000000 
-0.552696 -0.544272 0.000000 
-0.551107 0.107347 0.000000 
-0.550240 0.759542 0.000000 
-0.550083 -0.590144 0.000000 
-0.550026 0.060004 0.000000 
-0.550004 0.710079 0.000000 
-0.550001 -0.639914 0.000000 
0.769855 -0.510610 0.000000 
0.754350 0.128729 0.000000 
0.744817 0.806173 0.000000 
0.748781 -0.544779 0.000000 
0.749816 0.107151 0.000000 
0.749933 0.759525 0.000000 
0.749991 -0.590154 0.000000 
0.750001 0.059999 0.000000 
0.749999 0.710079 0.000000 
0.750000 -0.639914 0.000000 
0.043297 -0.508802 0.000000 
0.045629 0.128542 0.000000 
0.047875 0.804598 0.000000 
0.049062 -0.545647 0.000000 
0.049633 0.106775 0.000000 
0.049923 0.759464 0.000000 
0.049971 -0.590180 0.000000 
0.049990 0.059989 0.000000 
0.049999 0.710078 0.000000 
0.050000 -0.639915 0.000000 
-0.679406 -0.507486 0.000000 
-0.662068 0.128320 0.000000 
-0.649693 0.803350 0.000000 
-0.650613 -0.546344 0.000000 
-0.650451 0.106470 0.000000 
-0.650076 0.759413 0.000000 
-0.650039 -0.590202 0.000000 
-0.650016 0.059981 0.000000 
-0.650001 0.710077 0.000000 
-0.650001 -0.639915 0.000000 
0.679406 -0.507486 0.000000 
0.662068 0.128320 0.000000 
0.649693 0.803350 0.000000 
0.650613 -0.546344 0.000000 
0.650451 0.106470 0.000000 
0.650076 0.759413 0.000000 
0.650039 -0.590202 0.000000 
0.650016 0.059981 0.000000 
0.650001 0.710077 0.000000 
0.650001 -0.639915 0.000000 
-0.043297 -0.508802 0.000000 
-0.045629 0.128542 0.000000 
-0.047875 0.804598 0.000000 
-0.049062 -0.545647 0.000000 
-0.049633 0.106775 0.000000 
-0.049923 0.759464 0.000000 
-0.049971 -0.590180 0.000000 
-0.049990 0.059989 0.000000 
-0.049999 0.710078 0.000000 
-0.050000 -0.639915 0.000000 
-0.769855 -0.510610 0.000000 
-0.754350 0.128729 0.000000 
-0.744817 0.806173 0.000000 
-0.748781 -0.544779 0.000000 
-0.749816 0.107151 0.000000 
-0.749933 0.759525 0.000000 
-0.749991 -0.590154 0.000000 
-0.750001 0.059999 0.000000 
-0.749999 0.710079 0.000000 
-0.750000 -0.639914 0.000000 
0.613508 -0.512681 0.000000 
0.581841 0.128411 0.000000 
0.556175 0.807186 0.000000 
0.552696 -0.544272 0.000000 
0.551107 0.107347 0.000000 
0.550240 0.759542 0.000000 
0.550083 -0.590144 0.000000 
0.550026 0.060004 0.000000 
0.550004 0.710079 0.000000 
0.550001 -0.639914 0.000000 
0.000052 -0.514591 0.000000 
-0.079627 0.126354 0.000000 
-0.141367 0.805513 0.000000 
-0.145172 -0.544961 0.000000 
-0.147757 0.107116 0.000000 
-0.149580 0.759519 0.000000 
-0.149831 -0.590155 0.000000 
-0.149941 0.059999 0.000000 
-0.149993 0.710079 0.000000 
-0.149997 -0.639914 0.000000 
CELL_DATA 100 
SCALARS MASS float 
LOOKUP_TABLE default 
10.000000 
10.000000 
10.000000 
10.000000 
10.000000 
10.000000 
10.000000 
10.000000 
10.000000 
10.000000 
10.000000 
10.000000 
10.000000 
10.000000 
10.000000 
10.000000 
10.000000 
10.000000 
10.000000 
10.000000 
10.000000 
10.000000 
10.000000 
10.000000 
10.000000 
10.000000 
10.000000 
10.000000 
10.000000 
10.000000 
10.000000 
10.000000 
10.000000 
10.000000 
10.000000 
10.000000 
10.000000 
10.000000 
10.000000 
10.000000 
10.000000 
10.000000 
10.000000 
10.000000 
10.000000 
10.000000 
10.000000 
10.000000 
10.000000 
10.000000 
10.000000 
10.000000 
10.000000 
10.000000 
10.000000 
10.000000 
10.000000 
10.000000 
10.000000 
10.000000 
10.000000 
10.000000 
10.000000 
10.000000 
10.000000 
10.000000 
10.000000 
10.000000 
10.000000 
10.000000 
10.000000 
10.000000 
10.000000 
10.000000 
10.000000 
10.000000 
10.000000 
10.000000 
10.000000 
10.000000 
10.000000 
10.000000 
10.000000 
10.000000 
10.000000 
10.000000 
10.000000 
10.000000 
10.000000 
10.000000 
10.000000 
10.000000 
10.000000 
10.000000 
10.000000 
10.000000 
10.000000 
10.000000 
10.000000 
10.000000 
SCALARS MASS float 
LOOKUP_TABLE default 
10.000000 
10.000000 
10.000000 
10.000000 
10.000000 
10.000000 
10.000000 
10.000000 
10.000000 
10.000000 
10.000000 
10.000000 
10.000000 
10.000000 
10.000000 
10.000000 
10.000000 
10.000000 
10.000000 
10.000000 
10.000000 
10.000000 
10.000000 
10.000000 
10.000000 
10.000000 
10.000000 
10.000000 
10.000000 
10.000000 
10.000000 
10.000000 
10.000000 
10.000000 
10.000000 
10.000000 
10.000000 
10.000000 
10.000000 
10.000000 
10.000000 
10.000000 
10.000000 
10.000000 
10.000000 
10.000000 
10.000000 
10.000000 
10.000000 
10.000000 
10.000000 
10.000000 
10.000000 
10.000000 
10.000000 
10.000000 
10.000000 
10.000000 
10.000000 
10.000000 
10.000000 
10.000000 
10.000000 
10.000000 
10.000000 
10.000000 
10.000000 
10.000000 
10.000000 
10.000000 
10.000000 
10.000000 
10.000000 
10.000000 
10.000000 
10.000000 
10.000000 
10.000000 
10.000000 
10.000000 
10.000000 
10.000000 
10.000000 
10.000000 
10.000000 
10.000000 
10.000000 
10.000000 
10.000000 
10.000000 
10.000000 
10.000000 
10.000000 
10.000000 
10.000000 
10.000000 
10.000000 
10.000000 
10.000000 
10.000000 
SCALARS DENSITY float 
LOOKUP_TABLE default 
2508.790987 
918.615156 
1013.339347 
1021.543033 
999.964835 
1000.472854 
1000.620883 
1000.014951 
1000.006772 
1000.008674 
2452.533192 
910.607874 
1011.445813 
1020.944584 
999.873574 
1000.412482 
1000.600453 
1000.013200 
1000.006140 
1000.008497 
2455.855990 
909.442236 
1011.556066 
1021.055670 
999.972469 
1000.428372 
1000.616348 
1000.014000 
1000.006394 
1000.008751 
2926.836745 
976.325493 
1027.323961 
1023.760925 
1000.553434 
1000.769211 
1000.723719 
1000.028793 
1000.010981 
1000.010257 
2620.858085 
931.760196 
1017.713486 
1022.498365 
1000.584688 
1000.619771 
1000.715730 
1000.021020 
1000.008674 
1000.010240 
2620.858085 
931.760196 
1017.713486 
1022.498365 
1000.584688 
1000.619771 
1000.715730 
1000.021020 
1000.008674 
1000.010240 
2926.836745 
976.325493 
1027.323961 
1023.760925 
1000.553434 
1000.769211 
1000.723719 
1000.028793 
1000.010981 
1000.010257 
2455.855990 
909.442236 
1011.556066 
1021.055670 
999.972469 
1000.428372 
1000.616348 
1000.014000 
1000.006394 
1000.008751 
2452.533192 
910.607874 
1011.445813 
1020.944584 
999.873574 
1000.412482 
1000.600453 
1000.013200 
1000.006140 
1000.008497 
2508.790987 
918.615156 
1013.339347 
1021.543033 
999.964835 
1000.472854 
1000.620883 
1000.014951 
1000.006772 
1000.008674 
SCALARS ELEM_i float 
LOOKUP_TABLE default 
81 
82 
83 
83 
84 
85 
85 
86 
87 
87 
108 
109 
110 
110 
111 
112 
112 
113 
114 
114 
108 
109 
110 
110 
111 
112 
112 
113 
114 
114 
135 
136 
137 
137 
138 
139 
139 
140 
141 
141 
162 
163 
164 
164 
165 
166 
166 
167 
168 
168 
162 
163 
164 
164 
165 
166 
166 
167 
168 
168 
189 
190 
191 
191 
192 
193 
193 
194 
195 
195 
216 
217 
218 
218 
219 
220 
220 
221 
222 
222 
216 
217 
218 
218 
219 
220 
220 
221 
222 
222 
243 
244 
245 
245 
246 
247 
247 
248 
249 
249 
VECTORS VELOCITY float 
6.131321 -9.106252 0.000000 
2.188319 -3.686163 0.000000 
-0.314804 -7.959169 0.000000 
0.190541 -6.739566 0.000000 
0.147675 -6.701664 0.000000 
0.005509 -6.922279 0.000000 
0.008396 -6.905054 0.000000 
0.004373 -6.908472 0.000000 
0.000181 -6.914991 0.000000 
0.000183 -6.914821 0.000000 
1.730648 -9.300198 0.000000 
0.647962 -3.858181 0.000000 
-0.028979 -8.080224 0.000000 
0.085019 -6.793806 0.000000 
0.053826 -6.720874 0.000000 
0.002402 -6.923570 0.000000 
0.003058 -6.905969 0.000000 
0.001555 -6.908880 0.000000 
0.000069 -6.915017 0.000000 
0.000066 -6.914836 0.000000 
-1.638360 -9.420381 0.000000 
-0.319595 -3.838149 0.000000 
0.441484 -7.996483 0.000000 
0.052240 -6.756208 0.000000 
-0.015837 -6.708283 0.000000 
0.002470 -6.923500 0.000000 
-0.000467 -6.905353 0.000000 
-0.000507 -6.908521 0.000000 
0.000021 -6.915004 0.000000 
-0.000017 -6.914820 0.000000 
0.388036 -9.552185 0.000000 
0.231460 -3.810428 0.000000 
0.094863 -7.896030 0.000000 
0.042844 -6.707454 0.000000 
0.017093 -6.690068 0.000000 
0.003582 -6.921965 0.000000 
0.001735 -6.903891 0.000000 
0.000656 -6.907822 0.000000 
0.000045 -6.914983 0.000000 
0.000030 -6.914793 0.000000 
1.838193 -9.652809 0.000000 
0.585515 -3.788711 0.000000 
-0.195873 -7.819712 0.000000 
0.026117 -6.669879 0.000000 
0.038362 -6.675778 0.000000 
0.002975 -6.920587 0.000000 
0.002822 -6.902676 0.000000 
0.001344 -6.907252 0.000000 
0.000049 -6.914967 0.000000 
0.000057 -6.914771 0.000000 
-1.838193 -9.652809 0.000000 
-0.585515 -3.788711 0.000000 
0.195873 -7.819712 0.000000 
-0.026117 -6.669879 0.000000 
-0.038362 -6.675778 0.000000 
-0.002975 -6.920587 0.000000 
-0.002822 -6.902676 0.000000 
-0.001344 -6.907252 0.000000 
-0.000049 -6.914967 0.000000 
-0.000057 -6.914771 0.000000 
-0.388036 -9.552185 0.000000 
-0.231460 -3.810428 0.000000 
-0.094863 -7.896030 0.000000 
-0.042844 -6.707454 0.000000 
-0.017093 -6.690068 0.000000 
-0.003582 -6.921965 0.000000 
-0.001735 -6.903891 0.000000 
-0.000656 -6.907822 0.000000 
-0.000045 -6.914983 0.000000 
-0.000030 -6.914793 0.000000 
1.638360 -9.420381 0.000000 
0.319595 -3.838149 0.000000 
-0.441484 -7.996483 0.000000 
-0.052240 -6.756208 0.000000 
0.015837 -6.708283 0.000000 
-0.002470 -6.923500 0.000000 
0.000467 -6.905353 0.000000 
0.000507 -6.908521 0.000000 
-0.000021 -6.915004 0.000000 
0.000017 -6.914820 0.000000 
-1.730648 -9.300198 0.000000 
-0.647962 -3.858181 0.000000 
0.028979 -8.080224 0.000000 
-0.085019 -6.793806 0.000000 
-0.053826 -6.720874 0.000000 
-0.002402 -6.923570 0.000000 
-0.003058 -6.905969 0.000000 
-0.001555 -6.908880 0.000000 
-0.000069 -6.915017 0.000000 
-0.000066 -6.914836 0.000000 
-6.131321 -9.106252 0.000000 
-2.188319 -3.686163 0.000000 
0.314804 -7.959169 0.000000 
-0.190541 -6.739566 0.000000 
-0.147675 -6.701664 0.000000 
-0.005509 -6.922279 0.000000 
-0.008396 -6.905054 0.000000 
-0.004373 -6.908472 0.000000 
-0.000181 -6.914991 0.000000 
-0.000183 -6.914821 0.000000 
TENSORS STRESS float 
-2404.708556 -38.441801 0.000000 
0.000000 -3137.172138 0.000000 
0.000000 0.000000 0.000000 

1229.414516 -288.141197 0.000000 
0.000000 1210.588022 0.000000 
0.000000 0.000000 0.000000 

-108.598363 -39.354327 0.000000 
0.000000 -190.236794 0.000000 
0.000000 0.000000 0.000000 

-215.530355 -41.887246 0.000000 
0.000000 -276.901368 0.000000 
0.000000 0.000000 0.000000 

2.187907 -2.697345 0.000000 
0.000000 -0.588801 0.000000 
0.000000 0.000000 0.000000 

-7.186788 -1.343966 0.000000 
0.000000 -10.420192 0.000000 
0.000000 0.000000 0.000000 

-10.232815 -1.439811 0.000000 
0.000000 -12.911712 0.000000 
0.000000 0.000000 0.000000 

-0.285955 -0.085065 0.000000 
0.000000 -0.433925 0.000000 
0.000000 0.000000 0.000000 

-0.134332 -0.022306 0.000000 
0.000000 -0.190346 0.000000 
0.000000 0.000000 0.000000 

-0.184157 -0.023401 0.000000 
0.000000 -0.231112 0.000000 
0.000000 0.000000 0.000000 

-2354.587926 -17.591439 0.000000 
0.000000 -3123.472897 0.000000 
0.000000 0.000000 0.000000 

1369.597513 -143.323396 0.000000 
0.000000 1324.114369 0.000000 
0.000000 0.000000 0.000000 

-91.333211 -24.826937 0.000000 
0.000000 -173.046002 0.000000 
0.000000 0.000000 0.000000 

-207.401635 -24.219029 0.000000 
0.000000 -267.097253 0.000000 
0.000000 0.000000 0.000000 

3.715096 -2.962148 0.000000 
0.000000 1.124449 0.000000 
0.000000 0.000000 0.000000 

-5.975616 -0.949002 0.000000 
0.000000 -9.354068 0.000000 
0.000000 0.000000 0.000000 

-9.825043 -0.887103 0.000000 
0.000000 -12.502765 0.000000 
0.000000 0.000000 0.000000 

-0.242345 -0.061171 0.000000 
0.000000 -0.394347 0.000000 
0.000000 0.000000 0.000000 

-0.117967 -0.015582 0.000000 
0.000000 -0.176453 0.000000 
0.000000 0.000000 0.000000 

-0.179609 -0.014314 0.000000 
0.000000 -0.226887 0.000000 
0.000000 0.000000 0.000000 

-2359.270805 5.442171 0.000000 
0.000000 -3128.887893 0.000000 
0.000000 0.000000 0.000000 

1396.450249 24.129706 0.000000 
0.000000 1356.497000 0.000000 
0.000000 0.000000 0.000000 

-92.962223 -3.338822 0.000000 
0.000000 -175.022729 0.000000 
0.000000 0.000000 0.000000 

-208.992810 -2.937728 0.000000 
0.000000 -269.036823 0.000000 
0.000000 0.000000 0.000000 

1.914469 -2.377432 0.000000 
0.000000 -1.075911 0.000000 
0.000000 0.000000 0.000000 

-6.253240 -0.248682 0.000000 
0.000000 -9.693348 0.000000 
0.000000 0.000000 0.000000 

-10.102540 -0.186934 0.000000 
0.000000 -12.841917 0.000000 
0.000000 0.000000 0.000000 

-0.260437 -0.024200 0.000000 
0.000000 -0.416458 0.000000 
0.000000 0.000000 0.000000 

-0.123673 -0.004374 0.000000 
0.000000 -0.183426 0.000000 
0.000000 0.000000 0.000000 

-0.185315 -0.003106 0.000000 
0.000000 -0.233861 0.000000 
0.000000 0.000000 0.000000 

-2709.187964 0.415272 0.000000 
0.000000 -3224.004018 0.000000 
0.000000 0.000000 0.000000 

190.002390 -6.246048 0.000000 
0.000000 364.237571 0.000000 
0.000000 0.000000 0.000000 

-285.281522 -7.289896 0.000000 
0.000000 -332.843385 0.000000 
0.000000 0.000000 0.000000 

-248.068827 -6.043889 0.000000 
0.000000 -302.743538 0.000000 
0.000000 0.000000 0.000000 

-8.995078 -2.338284 0.000000 
0.000000 -11.871901 0.000000 
0.000000 0.000000 0.000000 

-13.302664 -0.435039 0.000000 
0.000000 -15.769034 0.000000 
0.000000 0.000000 0.000000 

-12.395937 -0.238977 0.000000 
0.000000 -15.027392 0.000000 
0.000000 0.000000 0.000000 

-0.639834 -0.039242 0.000000 
0.000000 -0.753966 0.000000 
0.000000 0.000000 0.000000 

-0.242805 -0.008408 0.000000 
0.000000 -0.287143 0.000000 
0.000000 0.000000 0.000000 

-0.224191 -0.004458 0.000000 
0.000000 -0.271913 0.000000 
0.000000 0.000000 0.000000 

-2511.868049 -5.080317 0.000000 
0.000000 -3181.418592 0.000000 
0.000000 0.000000 0.000000 

977.599524 -38.651225 0.000000 
0.000000 1025.985304 0.000000 
0.000000 0.000000 0.000000 

-168.034676 -5.743655 0.000000 
0.000000 -239.557099 0.000000 
0.000000 0.000000 0.000000 

-230.060835 -5.718136 0.000000 
0.000000 -289.828108 0.000000 
0.000000 0.000000 0.000000 

-9.078492 -0.321258 0.000000 
0.000000 -13.507194 0.000000 
0.000000 0.000000 0.000000 

-9.897401 -0.185083 0.000000 
0.000000 -13.244226 0.000000 
0.000000 0.000000 0.000000 

-11.931895 -0.185062 0.000000 
0.000000 -14.908319 0.000000 
0.000000 0.000000 0.000000 

-0.419109 -0.018180 0.000000 
0.000000 -0.596617 0.000000 
0.000000 0.000000 0.000000 

-0.178095 -0.003751 0.000000 
0.000000 -0.239448 0.000000 
0.000000 0.000000 0.000000 

-0.219355 -0.003751 0.000000 
0.000000 -0.273206 0.000000 
0.000000 0.000000 0.000000 

-2511.868049 5.080317 0.000000 
0.000000 -3181.418592 0.000000 
0.000000 0.000000 0.000000 

977.599524 38.651225 0.000000 
0.000000 1025.985304 0.000000 
0.000000 0.000000 0.000000 

-168.034676 5.743655 0.000000 
0.000000 -239.557099 0.000000 
0.000000 0.000000 0.000000 

-230.060835 5.718136 0.000000 
0.000000 -289.828108 0.000000 
0.000000 0.000000 0.000000 

-9.078492 0.321258 0.000000 
0.000000 -13.507194 0.000000 
0.000000 0.000000 0.000000 

-9.897401 0.185083 0.000000 
0.000000 -13.244226 0.000000 
0.000000 0.000000 0.000000 

-11.931895 0.185062 0.000000 
0.000000 -14.908319 0.000000 
0.000000 0.000000 0.000000 

-0.419109 0.018180 0.000000 
0.000000 -0.596617 0.000000 
0.000000 0.000000 0.000000 

-0.178095 0.003751 0.000000 
0.000000 -0.239448 0.000000 
0.000000 0.000000 0.000000 

-0.219355 0.003751 0.000000 
0.000000 -0.273206 0.000000 
0.000000 0.000000 0.000000 

-2709.187964 -0.415272 0.000000 
0.000000 -3224.004018 0.000000 
0.000000 0.000000 0.000000 

190.002390 6.246048 0.000000 
0.000000 364.237571 0.000000 
0.000000 0.000000 0.000000 

-285.281522 7.289896 0.000000 
0.000000 -332.843385 0.000000 
0.000000 0.000000 0.000000 

-248.068827 6.043889 0.000000 
0.000000 -302.743538 0.000000 
0.000000 0.000000 0.000000 

-8.995078 2.338284 0.000000 
0.000000 -11.871901 0.000000 
0.000000 0.000000 0.000000 

-13.302664 0.435039 0.000000 
0.000000 -15.769034 0.000000 
0.000000 0.000000 0.000000 

-12.395937 0.238977 0.000000 
0.000000 -15.027392 0.000000 
0.000000 0.000000 0.000000 

-0.639834 0.039242 0.000000 
0.000000 -0.753966 0.000000 
0.000000 0.000000 0.000000 

-0.242805 0.008408 0.000000 
0.000000 -0.287143 0.000000 
0.000000 0.000000 0.000000 

-0.224191 0.004458 0.000000 
0.000000 -0.271913 0.000000 
0.000000 0.000000 0.000000 

-2359.270805 -5.442171 0.000000 
0.000000 -3128.887893 0.000000 
0.000000 0.000000 0.000000 

1396.450249 -24.129706 0.000000 
0.000000 1356.497000 0.000000 
0.000000 0.000000 0.000000 

-92.962223 3.338822 0.000000 
0.000000 -175.022729 0.000000 
0.000000 0.000000 0.000000 

-208.992810 2.937728 0.000000 
0.000000 -269.036823 0.000000 
0.000000 0.000000 0.000000 

1.914469 2.377432 0.000000 
0.000000 -1.075911 0.000000 
0.000000 0.000000 0.000000 

-6.253240 0.248682 0.000000 
0.000000 -9.693348 0.000000 
0.000000 0.000000 0.000000 

-10.102540 0.186934 0.000000 
0.000000 -12.841917 0.000000 
0.000000 0.000000 0.000000 

-0.260437 0.024200 0.000000 
0.000000 -0.416458 0.000000 
0.000000 0.000000 0.000000 

-0.123673 0.004374 0.000000 
0.000000 -0.183426 0.000000 
0.000000 0.000000 0.000000 

-0.185315 0.003106 0.000000 
0.000000 -0.233861 0.000000 
0.000000 0.000000 0.000000 

-2354.587926 17.591439 0.000000 
0.000000 -3123.472897 0.000000 
0.000000 0.000000 0.000000 

1369.597513 143.323396 0.000000 
0.000000 1324.114369 0.000000 
0.000000 0.000000 0.000000 

-91.333211 24.826937 0.000000 
0.000000 -173.046002 0.000000 
0.000000 0.000000 0.000000 

-207.401635 24.219029 0.000000 
0.000000 -267.097253 0.000000 
0.000000 0.000000 0.000000 

3.715096 2.962148 0.000000 
0.000000 1.124449 0.000000 
0.000000 0.000000 0.000000 

-5.975616 0.949002 0.000000 
0.000000 -9.354068 0.000000 
0.000000 0.000000 0.000000 

-9.825043 0.887103 0.000000 
0.000000 -12.502765 0.000000 
0.000000 0.000000 0.000000 

-0.242345 0.061171 0.000000 
0.000000 -0.394347 0.000000 
0.000000 0.000000 0.000000 

-0.117967 0.015582 0.000000 
0.000000 -0.176453 0.000000 
0.000000 0.000000 0.000000 

-0.179609 0.014314 0.000000 
0.000000 -0.226887 0.000000 
0.000000 0.000000 0.000000 

-2404.708556 38.441801 0.000000 
0.000000 -3137.172138 0.000000 
0.000000 0.000000 0.000000 

1229.414516 288.141197 0.000000 
0.000000 1210.588022 0.000000 
0.000000 0.000000 0.000000 

-108.598363 39.354327 0.000000 
0.000000 -190.236794 0.000000 
0.000000 0.000000 0.000000 

-215.530355 41.887246 0.000000 
0.000000 -276.901368 0.000000 
0.000000 0.000000 0.000000 

2.187907 2.697345 0.000000 
0.000000 -0.588801 0.000000 
0.000000 0.000000 0.000000 

-7.186788 1.343966 0.000000 
0.000000 -10.420192 0.000000 
0.000000 0.000000 0.000000 

-10.232815 1.439811 0.000000 
0.000000 -12.911712 0.000000 
0.000000 0.000000 0.000000 

-0.285955 0.085065 0.000000 
0.000000 -0.433925 0.000000 
0.000000 0.000000 0.000000 

-0.134332 0.022306 0.000000 
0.000000 -0.190346 0.000000 
0.000000 0.000000 0.000000 

-0.184157 0.023401 0.000000 
0.000000 -0.231112 0.000000 
0.000000 0.000000 0.000000 

TENSORS STRAIN float 
0.032426 -0.013984 0.000000 
0.000000 -0.234026 0.000000 
0.000000 0.000000 0.000000 

0.017504 -0.038380 0.000000 
0.000000 0.014996 0.000000 
0.000000 0.000000 0.000000 

0.003802 -0.005782 0.000000 
0.000000 -0.008193 0.000000 
0.000000 0.000000 0.000000 

0.000898 -0.006204 0.000000 
0.000000 -0.008192 0.000000 
0.000000 0.000000 0.000000 

0.000213 -0.000391 0.000000 
0.000000 -0.000190 0.000000 
0.000000 0.000000 0.000000 

0.000107 -0.000195 0.000000 
0.000000 -0.000362 0.000000 
0.000000 0.000000 0.000000 

0.000026 -0.000209 0.000000 
0.000000 -0.000362 0.000000 
0.000000 0.000000 0.000000 

0.000006 -0.000012 0.000000 
0.000000 -0.000016 0.000000 
0.000000 0.000000 0.000000 

0.000002 -0.000003 0.000000 
0.000000 -0.000006 0.000000 
0.000000 0.000000 0.000000 

0.000000 -0.000003 0.000000 
0.000000 -0.000006 0.000000 
0.000000 0.000000 0.000000 

0.039310 -0.006256 0.000000 
0.000000 -0.234119 0.000000 
0.000000 0.000000 0.000000 

0.020786 -0.018924 0.000000 
0.000000 0.014781 0.000000 
0.000000 0.000000 0.000000 

0.004053 -0.003641 0.000000 
0.000000 -0.007931 0.000000 
0.000000 0.000000 0.000000 

0.000906 -0.003585 0.000000 
0.000000 -0.007931 0.000000 
0.000000 0.000000 0.000000 

0.000223 -0.000429 0.000000 
0.000000 -0.000153 0.000000 
0.000000 0.000000 0.000000 

0.000134 -0.000138 0.000000 
0.000000 -0.000356 0.000000 
0.000000 0.000000 0.000000 

0.000032 -0.000129 0.000000 
0.000000 -0.000356 0.000000 
0.000000 0.000000 0.000000 

0.000006 -0.000009 0.000000 
0.000000 -0.000016 0.000000 
0.000000 0.000000 0.000000 

0.000002 -0.000002 0.000000 
0.000000 -0.000006 0.000000 
0.000000 0.000000 0.000000 

0.000000 -0.000002 0.000000 
0.000000 -0.000006 0.000000 
0.000000 0.000000 0.000000 

0.039314 0.001938 0.000000 
0.000000 -0.234746 0.000000 
0.000000 0.000000 0.000000 

0.020786 0.003182 0.000000 
0.000000 0.015517 0.000000 
0.000000 0.000000 0.000000 

0.004053 -0.000490 0.000000 
0.000000 -0.007983 0.000000 
0.000000 0.000000 0.000000 

0.000906 -0.000435 0.000000 
0.000000 -0.007984 0.000000 
0.000000 0.000000 0.000000 

0.000223 -0.000345 0.000000 
0.000000 -0.000211 0.000000 
0.000000 0.000000 0.000000 

0.000134 -0.000036 0.000000 
0.000000 -0.000365 0.000000 
0.000000 0.000000 0.000000 

0.000032 -0.000027 0.000000 
0.000000 -0.000365 0.000000 
0.000000 0.000000 0.000000 

0.000006 -0.000004 0.000000 
0.000000 -0.000016 0.000000 
0.000000 0.000000 0.000000 

0.000002 -0.000001 0.000000 
0.000000 -0.000007 0.000000 
0.000000 0.000000 0.000000 

0.000000 -0.000000 0.000000 
0.000000 -0.000007 0.000000 
0.000000 0.000000 0.000000 

-0.016658 0.000176 0.000000 
0.000000 -0.235141 0.000000 
0.000000 0.000000 0.000000 

-0.008410 -0.000884 0.000000 
0.000000 0.016256 0.000000 
0.000000 0.000000 0.000000 

-0.001061 -0.001086 0.000000 
0.000000 -0.008146 0.000000 
0.000000 0.000000 0.000000 

-0.000030 -0.000897 0.000000 
0.000000 -0.008146 0.000000 
0.000000 0.000000 0.000000 

0.000057 -0.000339 0.000000 
0.000000 -0.000360 0.000000 
0.000000 0.000000 0.000000 

-0.000032 -0.000063 0.000000 
0.000000 -0.000390 0.000000 
0.000000 0.000000 0.000000 

-0.000008 -0.000035 0.000000 
0.000000 -0.000390 0.000000 
0.000000 0.000000 0.000000 

-0.000002 -0.000006 0.000000 
0.000000 -0.000018 0.000000 
0.000000 0.000000 0.000000 

-0.000001 -0.000001 0.000000 
0.000000 -0.000007 0.000000 
0.000000 0.000000 0.000000 

-0.000000 -0.000001 0.000000 
0.000000 -0.000007 0.000000 
0.000000 0.000000 0.000000 

0.019043 -0.001931 0.000000 
0.000000 -0.235402 0.000000 
0.000000 0.000000 0.000000 

0.010266 -0.005222 0.000000 
0.000000 0.016803 0.000000 
0.000000 0.000000 0.000000 

0.002270 -0.000848 0.000000 
0.000000 -0.008285 0.000000 
0.000000 0.000000 0.000000 

0.000577 -0.000848 0.000000 
0.000000 -0.008285 0.000000 
0.000000 0.000000 0.000000 

0.000157 -0.000047 0.000000 
0.000000 -0.000485 0.000000 
0.000000 0.000000 0.000000 

0.000075 -0.000027 0.000000 
0.000000 -0.000411 0.000000 