# vtk DataFile Version 3.0 
vtk output 
ASCII 
DATASET UNSTRUCTURED_GRID 
POINTS 100 float 
0.485221 -2.918690 0.000000 
0.466655 -2.834765 0.000000 
0.456830 -2.746304 0.000000 
0.454723 -2.646167 0.000000 
0.451636 -2.547447 0.000000 
0.450864 -2.447590 0.000000 
0.450592 -2.347596 0.000000 
0.450387 -2.247697 0.000000 
0.450215 -2.147799 0.000000 
0.450144 -2.047850 0.000000 
0.366941 -2.922598 0.000000 
0.359696 -2.840159 0.000000 
0.355787 -2.749430 0.000000 
0.353719 -2.647653 0.000000 
0.351347 -2.547991 0.000000 
0.350688 -2.447857 0.000000 
0.350433 -2.347729 0.000000 
0.350256 -2.247744 0.000000 
0.350139 -2.147819 0.000000 
0.350094 -2.047859 0.000000 
0.252287 -2.923764 0.000000 
0.255889 -2.841632 0.000000 
0.255518 -2.749387 0.000000 
0.252762 -2.647914 0.000000 
0.251226 -2.548469 0.000000 
0.250680 -2.448051 0.000000 
0.250381 -2.347798 0.000000 
0.250165 -2.247759 0.000000 
0.250083 -2.147815 0.000000 
0.250056 -2.047849 0.000000 
0.153383 -2.923966 0.000000 
0.153005 -2.841661 0.000000 
0.152291 -2.748480 0.000000 
0.151536 -2.647415 0.000000 
0.150945 -2.548180 0.000000 
0.150486 -2.447870 0.000000 
0.150259 -2.347695 0.000000 
0.150115 -2.247717 0.000000 
0.150063 -2.147782 0.000000 
0.150042 -2.047820 0.000000 
0.054505 -2.923959 0.000000 
0.050551 -2.841395 0.000000 
0.049624 -2.747639 0.000000 
0.050396 -2.646905 0.000000 
0.050461 -2.547829 0.000000 
0.050201 -2.447671 0.000000 
0.050102 -2.347588 0.000000 
0.050056 -2.247677 0.000000 
0.050035 -2.147753 0.000000 
0.050023 -2.047796 0.000000 
-0.054505 -2.923959 0.000000 
-0.050551 -2.841395 0.000000 
-0.049624 -2.747639 0.000000 
-0.050396 -2.646905 0.000000 
-0.050461 -2.547829 0.000000 
-0.050201 -2.447671 0.000000 
-0.050102 -2.347588 0.000000 
-0.050056 -2.247677 0.000000 
-0.050035 -2.147753 0.000000 
-0.050023 -2.047796 0.000000 
-0.153383 -2.923966 0.000000 
-0.153005 -2.841661 0.000000 
-0.152291 -2.748480 0.000000 
-0.151536 -2.647415 0.000000 
-0.150945 -2.548180 0.000000 
-0.150486 -2.447870 0.000000 
-0.150259 -2.347695 0.000000 
-0.150115 -2.247717 0.000000 
-0.150063 -2.147782 0.000000 
-0.150042 -2.047820 0.000000 
-0.252287 -2.923764 0.000000 
-0.255889 -2.841632 0.000000 
-0.255518 -2.749387 0.000000 
-0.252762 -2.647914 0.000000 
-0.251226 -2.548469 0.000000 
-0.250680 -2.448051 0.000000 
-0.250381 -2.347798 0.000000 
-0.250165 -2.247759 0.000000 
-0.250083 -2.147815 0.000000 
-0.250056 -2.047849 0.000000 
-0.366941 -2.922598 0.000000 
-0.359696 -2.840159 0.000000 
-0.355787 -2.749430 0.000000 
-0.353719 -2.647653 0.000000 
-0.351347 -2.547991 0.000000 
-0.350688 -2.447857 0.000000 
-0.350433 -2.347729 0.000000 
-0.350256 -2.247744 0.000000 
-0.350139 -2.147819 0.000000 
-0.350094 -2.047859 0.000000 
-0.485221 -2.918690 0.000000 
-0.466655 -2.834765 0.000000 
-0.456830 -2.746304 0.000000 
-0.454723 -2.646167 0.000000 
-0.451636 -2.547447 0.000000 
-0.450864 -2.447590 0.000000 
-0.450592 -2.347596 0.000000 
-0.450387 -2.247697 0.000000 
-0.450215 -2.147799 0.000000 
-0.450144 -2.047850 0.000000 
CELLS 100 200 
1 0 
1 1 
1 2 
1 3 
1 4 
1 5 
1 6 
1 7 
1 8 
1 9 
1 10 
1 11 
1 12 
1 13 
1 14 
1 15 
1 16 
1 17 
1 18 
1 19 
1 20 
1 21 
1 22 
1 23 
1 24 
1 25 
1 26 
1 27 
1 28 
1 29 
1 30 
1 31 
1 32 
1 33 
1 34 
1 35 
1 36 
1 37 
1 38 
1 39 
1 40 
1 41 
1 42 
1 43 
1 44 
1 45 
1 46 
1 47 
1 48 
1 49 
1 50 
1 51 
1 52 
1 53 
1 54 
1 55 
1 56 
1 57 
1 58 
1 59 
1 60 
1 61 
1 62 
1 63 
1 64 
1 65 
1 66 
1 67 
1 68 
1 69 
1 70 
1 71 
1 72 
1 73 
1 74 
1 75 
1 76 
1 77 
1 78 
1 79 
1 80 
1 81 
1 82 
1 83 
1 84 
1 85 
1 86 
1 87 
1 88 
1 89 
1 90 
1 91 
1 92 
1 93 
1 94 
1 95 
1 96 
1 97 
1 98 
1 99 
CELL_TYPES 100 
1 
1 
1 
1 
1 
1 
1 
1 
1 
1 
1 
1 
1 
1 
1 
1 
1 
1 
1 
1 
1 
1 
1 
1 
1 
1 
1 
1 
1 
1 
1 
1 
1 
1 
1 
1 
1 
1 
1 
1 
1 
1 
1 
1 
1 
1 
1 
1 
1 
1 
1 
1 
1 
1 
1 
1 
1 
1 
1 
1 
1 
1 
1 
1 
1 
1 
1 
1 
1 
1 
1 
1 
1 
1 
1 
1 
1 
1 
1 
1 
1 
1 
1 
1 
1 
1 
1 
1 
1 
1 
1 
1 
1 
1 
1 
1 
1 
1 
1 
1 
POINT_DATA 100 
VECTORS X_GC float 
0.485221 -2.918690 0.000000 
0.466655 -2.834765 0.000000 
0.456830 -2.746304 0.000000 
0.454723 -2.646167 0.000000 
0.451636 -2.547447 0.000000 
0.450864 -2.447590 0.000000 
0.450592 -2.347596 0.000000 
0.450387 -2.247697 0.000000 
0.450215 -2.147799 0.000000 
0.450144 -2.047850 0.000000 
0.366941 -2.922598 0.000000 
0.359696 -2.840159 0.000000 
0.355787 -2.749430 0.000000 
0.353719 -2.647653 0.000000 
0.351347 -2.547991 0.000000 
0.350688 -2.447857 0.000000 
0.350433 -2.347729 0.000000 
0.350256 -2.247744 0.000000 
0.350139 -2.147819 0.000000 
0.350094 -2.047859 0.000000 
0.252287 -2.923764 0.000000 
0.255889 -2.841632 0.000000 
0.255518 -2.749387 0.000000 
0.252762 -2.647914 0.000000 
0.251226 -2.548469 0.000000 
0.250680 -2.448051 0.000000 
0.250381 -2.347798 0.000000 
0.250165 -2.247759 0.000000 
0.250083 -2.147815 0.000000 
0.250056 -2.047849 0.000000 
0.153383 -2.923966 0.000000 
0.153005 -2.841661 0.000000 
0.152291 -2.748480 0.000000 
0.151536 -2.647415 0.000000 
0.150945 -2.548180 0.000000 
0.150486 -2.447870 0.000000 
0.150259 -2.347695 0.000000 
0.150115 -2.247717 0.000000 
0.150063 -2.147782 0.000000 
0.150042 -2.047820 0.000000 
0.054505 -2.923959 0.000000 
0.050551 -2.841395 0.000000 
0.049624 -2.747639 0.000000 
0.050396 -2.646905 0.000000 
0.050461 -2.547829 0.000000 
0.050201 -2.447671 0.000000 
0.050102 -2.347588 0.000000 
0.050056 -2.247677 0.000000 
0.050035 -2.147753 0.000000 
0.050023 -2.047796 0.000000 
-0.054505 -2.923959 0.000000 
-0.050551 -2.841395 0.000000 
-0.049624 -2.747639 0.000000 
-0.050396 -2.646905 0.000000 
-0.050461 -2.547829 0.000000 
-0.050201 -2.447671 0.000000 
-0.050102 -2.347588 0.000000 
-0.050056 -2.247677 0.000000 
-0.050035 -2.147753 0.000000 
-0.050023 -2.047796 0.000000 
-0.153383 -2.923966 0.000000 
-0.153005 -2.841661 0.000000 
-0.152291 -2.748480 0.000000 
-0.151536 -2.647415 0.000000 
-0.150945 -2.548180 0.000000 
-0.150486 -2.447870 0.000000 
-0.150259 -2.347695 0.000000 
-0.150115 -2.247717 0.000000 
-0.150063 -2.147782 0.000000 
-0.150042 -2.047820 0.000000 
-0.252287 -2.923764 0.000000 
-0.255889 -2.841632 0.000000 
-0.255518 -2.749387 0.000000 
-0.252762 -2.647914 0.000000 
-0.251226 -2.548469 0.000000 
-0.250680 -2.448051 0.000000 
-0.250381 -2.347798 0.000000 
-0.250165 -2.247759 0.000000 
-0.250083 -2.147815 0.000000 
-0.250056 -2.047849 0.000000 
-0.366941 -2.922598 0.000000 
-0.359696 -2.840159 0.000000 
-0.355787 -2.749430 0.000000 
-0.353719 -2.647653 0.000000 
-0.351347 -2.547991 0.000000 
-0.350688 -2.447857 0.000000 
-0.350433 -2.347729 0.000000 
-0.350256 -2.247744 0.000000 
-0.350139 -2.147819 0.000000 
-0.350094 -2.047859 0.000000 
-0.485221 -2.918690 0.000000 
-0.466655 -2.834765 0.000000 
-0.456830 -2.746304 0.000000 
-0.454723 -2.646167 0.000000 
-0.451636 -2.547447 0.000000 
-0.450864 -2.447590 0.000000 
-0.450592 -2.347596 0.000000 
-0.450387 -2.247697 0.000000 
-0.450215 -2.147799 0.000000 
-0.450144 -2.047850 0.000000 
VECTORS X_EC float 
-0.307874 -0.097679 0.000000 
-0.066519 0.769322 0.000000 
0.061213 -0.424895 0.000000 
0.088597 0.223253 0.000000 
0.128738 0.890530 0.000000 
0.138762 -0.457541 0.000000 
0.142308 0.192544 0.000000 
0.144967 0.843911 0.000000 
0.147206 -0.504716 0.000000 
0.148130 0.145975 0.000000 
-0.770232 -0.044933 0.000000 
-0.676048 0.842145 0.000000 
-0.625232 -0.382699 0.000000 
-0.598343 0.243317 0.000000 
-0.567506 0.897878 0.000000 
-0.558939 -0.453933 0.000000 
-0.555624 0.194340 0.000000 
-0.553323 0.844547 0.000000 
-0.551803 -0.504450 0.000000 
-0.551221 0.146093 0.000000 
0.720265 -0.029179 0.000000 
0.673438 0.862028 0.000000 
0.678269 -0.383277 0.000000 
0.714098 0.246845 0.000000 
0.734058 0.904333 0.000000 
0.741158 -0.451310 0.000000 
0.745051 0.195279 0.000000 
0.747859 0.844745 0.000000 
0.748915 -0.504492 0.000000 
0.749268 0.145959 0.000000 
0.006026 -0.026457 0.000000 
0.010930 0.862426 0.000000 
0.020222 -0.395525 0.000000 
0.030028 0.240107 0.000000 
0.037718 0.900436 0.000000 
0.043686 -0.453755 0.000000 
0.046638 0.193879 0.000000 
0.048504 0.844180 0.000000 
0.049179 -0.504937 0.000000 
0.049451 0.145575 0.000000 
-0.708563 -0.026554 0.000000 
-0.657159 0.858836 0.000000 
-0.645113 -0.406869 0.000000 
-0.655146 0.233218 0.000000 
-0.655999 0.895698 0.000000 
-0.652618 -0.456445 0.000000 
-0.651326 0.192444 0.000000 
-0.650727 0.843634 0.000000 
-0.650459 -0.505332 0.000000 
-0.650304 0.145251 0.000000 
0.708563 -0.026554 0.000000 
0.657159 0.858836 0.000000 
0.645113 -0.406869 0.000000 
0.655146 0.233218 0.000000 
0.655999 0.895698 0.000000 
0.652618 -0.456445 0.000000 
0.651326 0.192444 0.000000 
0.650727 0.843634 0.000000 
0.650459 -0.505332 0.000000 
0.650304 0.145251 0.000000 
-0.006026 -0.026457 0.000000 
-0.010930 0.862426 0.000000 
-0.020222 -0.395525 0.000000 
-0.030028 0.240107 0.000000 
-0.037718 0.900436 0.000000 
-0.043686 -0.453755 0.000000 
-0.046638 0.193879 0.000000 
-0.048504 0.844180 0.000000 
-0.049179 -0.504937 0.000000 
-0.049451 0.145575 0.000000 
-0.720265 -0.029179 0.000000 
-0.673438 0.862028 0.000000 
-0.678269 -0.383277 0.000000 
-0.714098 0.246845 0.000000 
-0.734058 0.904333 0.000000 
-0.741158 -0.451310 0.000000 
-0.745051 0.195279 0.000000 
-0.747859 0.844745 0.000000 
-0.748915 -0.504492 0.000000 
-0.749268 0.145959 0.000000 
0.770232 -0.044933 0.000000 
0.676048 0.842145 0.000000 
0.625232 -0.382699 0.000000 
0.598343 0.243317 0.000000 
0.567506 0.897878 0.000000 
0.558939 -0.453933 0.000000 
0.555624 0.194340 0.000000 
0.553323 0.844547 0.000000 
0.551803 -0.504450 0.000000 
0.551221 0.146093 0.000000 
0.307874 -0.097679 0.000000 
0.066519 0.769322 0.000000 
-0.061213 -0.424895 0.000000 
-0.088597 0.223253 0.000000 
-0.128738 0.890530 0.000000 
-0.138762 -0.457541 0.000000 
-0.142308 0.192544 0.000000 
-0.144967 0.843911 0.000000 
-0.147206 -0.504716 0.000000 
-0.148130 0.145975 0.000000 
CELL_DATA 100 
SCALARS MASS float 
LOOKUP_TABLE default 
10.000000 
10.000000 
10.000000 
10.000000 
10.000000 
10.000000 
10.000000 
10.000000 
10.000000 
10.000000 
10.000000 
10.000000 
10.000000 
10.000000 
10.000000 
10.000000 
10.000000 
10.000000 
10.000000 
10.000000 
10.000000 
10.000000 
10.000000 
10.000000 
10.000000 
10.000000 
10.000000 
10.000000 
10.000000 
10.000000 
10.000000 
10.000000 
10.000000 
10.000000 
10.000000 
10.000000 
10.000000 
10.000000 
10.000000 
10.000000 
10.000000 
10.000000 
10.000000 
10.000000 
10.000000 
10.000000 
10.000000 
10.000000 
10.000000 
10.000000 
10.000000 
10.000000 
10.000000 
10.000000 
10.000000 
10.000000 
10.000000 
10.000000 
10.000000 
10.000000 
10.000000 
10.000000 
10.000000 
10.000000 
10.000000 
10.000000 
10.000000 
10.000000 
10.000000 
10.000000 
10.000000 
10.000000 
10.000000 
10.000000 
10.000000 
10.000000 
10.000000 
10.000000 
10.000000 
10.000000 
10.000000 
10.000000 
10.000000 
10.000000 
10.000000 
10.000000 
10.000000 
10.000000 
10.000000 
10.000000 
10.000000 
10.000000 
10.000000 
10.000000 
10.000000 
10.000000 
10.000000 
10.000000 
10.000000 
10.000000 
SCALARS MASS float 
LOOKUP_TABLE default 
10.000000 
10.000000 
10.000000 
10.000000 
10.000000 
10.000000 
10.000000 
10.000000 
10.000000 
10.000000 
10.000000 
10.000000 
10.000000 
10.000000 
10.000000 
10.000000 
10.000000 
10.000000 
10.000000 
10.000000 
10.000000 
10.000000 
10.000000 
10.000000 
10.000000 
10.000000 
10.000000 
10.000000 
10.000000 
10.000000 
10.000000 
10.000000 
10.000000 
10.000000 
10.000000 
10.000000 
10.000000 
10.000000 
10.000000 
10.000000 
10.000000 
10.000000 
10.000000 
10.000000 
10.000000 
10.000000 
10.000000 
10.000000 
10.000000 
10.000000 
10.000000 
10.000000 
10.000000 
10.000000 
10.000000 
10.000000 
10.000000 
10.000000 
10.000000 
10.000000 
10.000000 
10.000000 
10.000000 
10.000000 
10.000000 
10.000000 
10.000000 
10.000000 
10.000000 
10.000000 
10.000000 
10.000000 
10.000000 
10.000000 
10.000000 
10.000000 
10.000000 
10.000000 
10.000000 
10.000000 
10.000000 
10.000000 
10.000000 
10.000000 
10.000000 
10.000000 
10.000000 
10.000000 
10.000000 
10.000000 
10.000000 
10.000000 
10.000000 
10.000000 
10.000000 
10.000000 
10.000000 
10.000000 
10.000000 
10.000000 
SCALARS DENSITY float 
LOOKUP_TABLE default 
212964.591923 
642.738136 
1651.340174 
959.517132 
1003.973486 
1013.359202 
1006.495751 
1005.035232 
1004.141165 
1000.959710 
255624.504770 
696.949310 
1728.566113 
925.209374 
995.393424 
1007.054909 
1005.058347 
1004.407931 
1003.570879 
1000.750941 
303443.507191 
622.792897 
1606.391217 
934.392111 
996.067769 
1004.051514 
1003.992471 
1004.487336 
1003.484087 
1000.744428 
7513248.610246 
1233.626269 
1276.494137 
882.116841 
1016.823231 
1018.948322 
1012.806600 
1010.166639 
1006.372165 
1002.227204 
825545.048672 
689.454358 
1455.506078 
975.668134 
1011.052358 
1005.089249 
1006.229714 
1006.865258 
1005.261155 
1001.158802 
825545.048672 
689.454358 
1455.506078 
975.668134 
1011.052358 
1005.089249 
1006.229714 
1006.865258 
1005.261155 
1001.158802 
7513248.610246 
1233.626269 
1276.494137 
882.116841 
1016.823231 
1018.948322 
1012.806600 
1010.166639 
1006.372165 
1002.227204 
303443.507191 
622.792897 
1606.391217 
934.392111 
996.067769 
1004.051514 
1003.992471 
1004.487336 
1003.484087 
1000.744428 
255624.504770 
696.949310 
1728.566113 
925.209374 
995.393424 
1007.054909 
1005.058347 
1004.407931 
1003.570879 
1000.750941 
212964.591923 
642.738136 
1651.340174 
959.517132 
1003.973486 
1013.359202 
1006.495751 
1005.035232 
1004.141165 
1000.959710 
SCALARS ELEM_i float 
LOOKUP_TABLE default 
81 
82 
82 
83 
84 
84 
85 
86 
86 
87 
108 
109 
109 
110 
111 
111 
112 
113 
113 
114 
108 
109 
109 
110 
111 
111 
112 
113 
113 
114 
135 
136 
136 
137 
138 
138 
139 
140 
140 
141 
162 
163 
163 
164 
165 
165 
166 
167 
167 
168 
162 
163 
163 
164 
165 
165 
166 
167 
167 
168 
189 
190 
190 
191 
192 
192 
193 
194 
194 
195 
216 
217 
217 
218 
219 
219 
220 
221 
221 
222 
216 
217 
217 
218 
219 
219 
220 
221 
221 
222 
243 
244 
244 
245 
246 
246 
247 
248 
248 
249 
VECTORS VELOCITY float 
3.582609 -9.773849 0.000000 
-1.239248 -0.230801 0.000000 
2.227727 -6.308857 0.000000 
1.993704 -4.988827 0.000000 
-0.320282 -7.433870 0.000000 
0.064393 -7.003509 0.000000 
0.155754 -6.844898 0.000000 
0.082051 -6.960755 0.000000 
0.064773 -6.907929 0.000000 
0.043518 -6.920353 0.000000 
0.870824 -13.075717 0.000000 
-0.228261 -3.911934 0.000000 
1.490573 -7.709629 0.000000 
0.905863 -5.451131 0.000000 
-0.154832 -7.681803 0.000000 
0.054175 -7.157032 0.000000 
0.079498 -6.934985 0.000000 
0.033077 -6.991002 0.000000 
0.030025 -6.923364 0.000000 
0.022096 -6.929329 0.000000 
-0.065739 -12.596039 0.000000 
2.389573 -3.379893 0.000000 
0.874971 -7.180262 0.000000 
-0.183300 -5.601569 0.000000 
0.231329 -8.002642 0.000000 
0.226318 -7.254814 0.000000 
0.116746 -6.971786 0.000000 
0.038517 -7.002015 0.000000 
0.025482 -6.921932 0.000000 
0.019873 -6.924886 0.000000 
0.423952 -12.375296 0.000000 
0.215830 -3.117683 0.000000 
0.060784 -7.043588 0.000000 
0.193674 -5.736418 0.000000 
0.258935 -7.913928 0.000000 
0.109167 -7.193714 0.000000 
0.045287 -6.960053 0.000000 
0.023263 -7.004659 0.000000 
0.021611 -6.909260 0.000000 
0.014957 -6.913309 0.000000 
0.574545 -12.232555 0.000000 
-1.581992 -2.986953 0.000000 
-0.277004 -7.036666 0.000000 
0.493072 -5.829022 0.000000 
0.137353 -7.774356 0.000000 
-0.018655 -7.121014 0.000000 
-0.017096 -6.942998 0.000000 
0.005489 -7.005130 0.000000 
0.012284 -6.898032 0.000000 
0.007078 -6.903605 0.000000 
-0.574545 -12.232555 0.000000 
1.581992 -2.986953 0.000000 
0.277004 -7.036666 0.000000 
-0.493072 -5.829022 0.000000 
-0.137353 -7.774356 0.000000 
0.018655 -7.121014 0.000000 
0.017096 -6.942998 0.000000 
-0.005489 -7.005130 0.000000 
-0.012284 -6.898032 0.000000 
-0.007078 -6.903605 0.000000 
-0.423952 -12.375296 0.000000 
-0.215830 -3.117683 0.000000 
-0.060784 -7.043588 0.000000 
-0.193674 -5.736418 0.000000 
-0.258935 -7.913928 0.000000 
-0.109167 -7.193714 0.000000 
-0.045287 -6.960053 0.000000 
-0.023263 -7.004659 0.000000 
-0.021611 -6.909260 0.000000 
-0.014957 -6.913309 0.000000 
0.065739 -12.596039 0.000000 
-2.389573 -3.379893 0.000000 
-0.874971 -7.180262 0.000000 
0.183300 -5.601569 0.000000 
-0.231329 -8.002642 0.000000 
-0.226318 -7.254814 0.000000 
-0.116746 -6.971786 0.000000 
-0.038517 -7.002015 0.000000 
-0.025482 -6.921932 0.000000 
-0.019873 -6.924886 0.000000 
-0.870824 -13.075717 0.000000 
0.228261 -3.911934 0.000000 
-1.490573 -7.709629 0.000000 
-0.905863 -5.451131 0.000000 
0.154832 -7.681803 0.000000 
-0.054175 -7.157032 0.000000 
-0.079498 -6.934985 0.000000 
-0.033077 -6.991002 0.000000 
-0.030025 -6.923364 0.000000 
-0.022096 -6.929329 0.000000 
-3.582609 -9.773849 0.000000 
1.239248 -0.230801 0.000000 
-2.227727 -6.308857 0.000000 
-1.993704 -4.988827 0.000000 
0.320282 -7.433870 0.000000 
-0.064393 -7.003509 0.000000 
-0.155754 -6.844898 0.000000 
-0.082051 -6.960755 0.000000 
-0.064773 -6.907929 0.000000 
-0.043518 -6.920353 0.000000 
TENSORS STRESS float 
-52.388600 -3.266215 0.000000 
0.000000 -75.000529 0.000000 
0.000000 0.000000 0.000000 

1304.331558 -1173.378873 0.000000 
0.000000 -314.093726 0.000000 
0.000000 0.000000 0.000000 

-1451.338477 -128.279188 0.000000 
0.000000 -1855.251015 0.000000 
0.000000 0.000000 0.000000 

364.919284 -10.757777 0.000000 
0.000000 398.964303 0.000000 
0.000000 0.000000 0.000000 

19.281831 -43.445769 0.000000 
0.000000 -39.412751 0.000000 
0.000000 0.000000 0.000000 

-51.090099 -47.959963 0.000000 
0.000000 -91.435057 0.000000 
0.000000 0.000000 0.000000 

36.973848 -7.921094 0.000000 
0.000000 26.928537 0.000000 
0.000000 0.000000 0.000000 

-6.505263 -8.684107 0.000000 
0.000000 -22.983770 0.000000 
0.000000 0.000000 0.000000 

-12.880834 -8.341178 0.000000 
0.000000 -23.635574 0.000000 
0.000000 0.000000 0.000000 

1.754206 -2.223234 0.000000 
0.000000 -3.122369 0.000000 
0.000000 0.000000 0.000000 

-49.851928 -0.967197 0.000000 
0.000000 -68.677351 0.000000 
0.000000 0.000000 0.000000 

32.383958 -406.412989 0.000000 
0.000000 -1165.875708 0.000000 
0.000000 0.000000 0.000000 

-1488.415095 -81.437607 0.000000 
0.000000 -1804.341737 0.000000 
0.000000 0.000000 0.000000 

699.803783 -138.341665 0.000000 
0.000000 823.823237 0.000000 
0.000000 0.000000 0.000000 

77.344819 -39.730282 0.000000 
0.000000 34.473157 0.000000 
0.000000 0.000000 0.000000 

-13.874309 -36.814123 0.000000 
0.000000 -36.426047 0.000000 
0.000000 0.000000 0.000000 

38.584379 -9.799827 0.000000 
0.000000 35.263197 0.000000 
0.000000 0.000000 0.000000 

-2.716112 -7.506037 0.000000 
0.000000 -17.762687 0.000000 
0.000000 0.000000 0.000000 

-7.582850 -6.960087 0.000000 
0.000000 -17.218524 0.000000 
0.000000 0.000000 0.000000 

3.351297 -2.280868 0.000000 
0.000000 -1.419370 0.000000 
0.000000 0.000000 0.000000 

-43.873324 0.844396 0.000000 
0.000000 -60.172542 0.000000 
0.000000 0.000000 0.000000 

908.327608 295.977083 0.000000 
0.000000 -240.614448 0.000000 
0.000000 0.000000 0.000000 

-1348.700778 9.089804 0.000000 
0.000000 -1631.689472 0.000000 
0.000000 0.000000 0.000000 

640.270421 -167.684249 0.000000 
0.000000 751.079753 0.000000 
0.000000 0.000000 0.000000 

115.828819 -21.453353 0.000000 
0.000000 81.510416 0.000000 
0.000000 0.000000 0.000000 

34.792725 -19.375610 0.000000 
0.000000 22.985627 0.000000 
0.000000 0.000000 0.000000 

53.070290 -11.069426 0.000000 
0.000000 52.957284 0.000000 
0.000000 0.000000 0.000000 

0.050921 -4.519667 0.000000 
0.000000 -14.379318 0.000000 
0.000000 0.000000 0.000000 

-4.253589 -4.642969 0.000000 
0.000000 -13.149930 0.000000 
0.000000 0.000000 0.000000 

3.903508 -1.354122 0.000000 
0.000000 -0.744401 0.000000 
0.000000 0.000000 0.000000 

-2.643169 0.002592 0.000000 
0.000000 -3.150993 0.000000 
0.000000 0.000000 0.000000 

-799.829178 -47.757637 0.000000 
0.000000 -1030.816521 0.000000 
0.000000 0.000000 0.000000 

-442.550433 -96.769642 0.000000 
0.000000 -948.509845 0.000000 
0.000000 0.000000 0.000000 

1199.427085 -127.143486 0.000000 
0.000000 1154.012090 0.000000 
0.000000 0.000000 0.000000 

41.195225 -48.152239 0.000000 
0.000000 8.507803 0.000000 
0.000000 0.000000 0.000000 

19.415669 -32.863491 0.000000 
0.000000 7.371487 0.000000 
0.000000 0.000000 0.000000 

29.296018 -20.127991 0.000000 
0.000000 25.117827 0.000000 
0.000000 0.000000 0.000000 

-32.066444 -7.322338 0.000000 
0.000000 -43.069764 0.000000 
0.000000 0.000000 0.000000 

-24.874208 -5.067290 0.000000 
0.000000 -31.834566 0.000000 
0.000000 0.000000 0.000000 

-8.779342 -2.302142 0.000000 
0.000000 -11.434942 0.000000 
0.000000 0.000000 0.000000 

-18.756310 -0.182412 0.000000 
0.000000 -24.362336 0.000000 
0.000000 0.000000 0.000000 

467.375377 -208.765668 0.000000 
0.000000 -150.969451 0.000000 
0.000000 0.000000 0.000000 

-1270.645793 -47.368588 0.000000 
0.000000 -1514.012827 0.000000 
0.000000 0.000000 0.000000 

295.303305 31.573056 0.000000 
0.000000 345.017864 0.000000 
0.000000 0.000000 0.000000 

175.469091 -10.371685 0.000000 
0.000000 104.275251 0.000000 
0.000000 0.000000 0.000000 

124.432755 -9.648690 0.000000 
0.000000 86.828976 0.000000 
0.000000 0.000000 0.000000 

67.340354 -5.751127 0.000000 
0.000000 47.639064 0.000000 
0.000000 0.000000 0.000000 

-8.649966 -1.771258 0.000000 
0.000000 -26.426803 0.000000 
0.000000 0.000000 0.000000 

-12.992891 -1.415836 0.000000 
0.000000 -24.028552 0.000000 
0.000000 0.000000 0.000000 

2.638154 -0.432230 0.000000 
0.000000 -2.426196 0.000000 
0.000000 0.000000 0.000000 

-18.756310 0.182412 0.000000 
0.000000 -24.362336 0.000000 
0.000000 0.000000 0.000000 

467.375377 208.765668 0.000000 
0.000000 -150.969451 0.000000 
0.000000 0.000000 0.000000 

-1270.645793 47.368588 0.000000 
0.000000 -1514.012827 0.000000 
0.000000 0.000000 0.000000 

295.303305 -31.573056 0.000000 
0.000000 345.017864 0.000000 
0.000000 0.000000 0.000000 

175.469091 10.371685 0.000000 
0.000000 104.275251 0.000000 
0.000000 0.000000 0.000000 

124.432755 9.648690 0.000000 
0.000000 86.828976 0.000000 
0.000000 0.000000 0.000000 

67.340354 5.751127 0.000000 
0.000000 47.639064 0.000000 
0.000000 0.000000 0.000000 

-8.649966 1.771258 0.000000 
0.000000 -26.426803 0.000000 
0.000000 0.000000 0.000000 

-12.992891 1.415836 0.000000 
0.000000 -24.028552 0.000000 
0.000000 0.000000 0.000000 

2.638154 0.432230 0.000000 
0.000000 -2.426196 0.000000 
0.000000 0.000000 0.000000 

-2.643169 -0.002592 0.000000 
0.000000 -3.150993 0.000000 
0.000000 0.000000 0.000000 

-799.829178 47.757637 0.000000 
0.000000 -1030.816521 0.000000 
0.000000 0.000000 0.000000 

-442.550433 96.769642 0.000000 
0.000000 -948.509845 0.000000 
0.000000 0.000000 0.000000 

1199.427085 127.143486 0.000000 
0.000000 1154.012090 0.000000 
0.000000 0.000000 0.000000 

41.195225 48.152239 0.000000 
0.000000 8.507803 0.000000 
0.000000 0.000000 0.000000 

19.415669 32.863491 0.000000 
0.000000 7.371487 0.000000 
0.000000 0.000000 0.000000 

29.296018 20.127991 0.000000 
0.000000 25.117827 0.000000 
0.000000 0.000000 0.000000 

-32.066444 7.322338 0.000000 
0.000000 -43.069764 0.000000 
0.000000 0.000000 0.000000 

-24.874208 5.067290 0.000000 
0.000000 -31.834566 0.000000 
0.000000 0.000000 0.000000 

-8.779342 2.302142 0.000000 
0.000000 -11.434942 0.000000 
0.000000 0.000000 0.000000 

-43.873324 -0.844396 0.000000 
0.000000 -60.172542 0.000000 
0.000000 0.000000 0.000000 

908.327608 -295.977083 0.000000 
0.000000 -240.614448 0.000000 
0.000000 0.000000 0.000000 

-1348.700778 -9.089804 0.000000 
0.000000 -1631.689472 0.000000 
0.000000 0.000000 0.000000 

640.270421 167.684249 0.000000 
0.000000 751.079753 0.000000 
0.000000 0.000000 0.000000 

115.828819 21.453353 0.000000 
0.000000 81.510416 0.000000 
0.000000 0.000000 0.000000 

34.792725 19.375610 0.000000 
0.000000 22.985627 0.000000 
0.000000 0.000000 0.000000 

53.070290 11.069426 0.000000 
0.000000 52.957284 0.000000 
0.000000 0.000000 0.000000 

0.050921 4.519667 0.000000 
0.000000 -14.379318 0.000000 
0.000000 0.000000 0.000000 

-4.253589 4.642969 0.000000 
0.000000 -13.149930 0.000000 
0.000000 0.000000 0.000000 

3.903508 1.354122 0.000000 
0.000000 -0.744401 0.000000 
0.000000 0.000000 0.000000 

-49.851928 0.967197 0.000000 
0.000000 -68.677351 0.000000 
0.000000 0.000000 0.000000 

32.383958 406.412989 0.000000 
0.000000 -1165.875708 0.000000 
0.000000 0.000000 0.000000 

-1488.415095 81.437607 0.000000 
0.000000 -1804.341737 0.000000 
0.000000 0.000000 0.000000 

699.803783 138.341665 0.000000 
0.000000 823.823237 0.000000 
0.000000 0.000000 0.000000 

77.344819 39.730282 0.000000 
0.000000 34.473157 0.000000 
0.000000 0.000000 0.000000 

-13.874309 36.814123 0.000000 
0.000000 -36.426047 0.000000 
0.000000 0.000000 0.000000 

38.584379 9.799827 0.000000 
0.000000 35.263197 0.000000 
0.000000 0.000000 0.000000 

-2.716112 7.506037 0.000000 
0.000000 -17.762687 0.000000 
0.000000 0.000000 0.000000 

-7.582850 6.960087 0.000000 
0.000000 -17.218524 0.000000 
0.000000 0.000000 0.000000 

3.351297 2.280868 0.000000 
0.000000 -1.419370 0.000000 
0.000000 0.000000 0.000000 

-52.388600 3.266215 0.000000 
0.000000 -75.000529 0.000000 
0.000000 0.000000 0.000000 

1304.331558 1173.378873 0.000000 
0.000000 -314.093726 0.000000 
0.000000 0.000000 0.000000 

-1451.338477 128.279188 0.000000 
0.000000 -1855.251015 0.000000 
0.000000 0.000000 0.000000 

364.919284 10.757777 0.000000 
0.000000 398.964303 0.000000 
0.000000 0.000000 0.000000 

19.281831 43.445769 0.000000 
0.000000 -39.412751 0.000000 
0.000000 0.000000 0.000000 

-51.090099 47.959963 0.000000 
0.000000 -91.435057 0.000000 
0.000000 0.000000 0.000000 

36.973848 7.921094 0.000000 
0.000000 26.928537 0.000000 
0.000000 0.000000 0.000000 

-6.505263 8.684107 0.000000 
0.000000 -22.983770 0.000000 
0.000000 0.000000 0.000000 

-12.880834 8.341178 0.000000 
0.000000 -23.635574 0.000000 
0.000000 0.000000 0.000000 

1.754206 2.223234 0.000000 
0.000000 -3.122369 0.000000 
0.000000 0.000000 0.000000 

TENSORS STRAIN float 
0.152439 -0.100860 0.000000 
0.000000 -0.545815 0.000000 
0.000000 0.000000 0.000000 

0.080031 -0.109355 0.000000 
0.000000 -0.070802 0.000000 
0.000000 0.000000 0.000000 

0.008770 -0.030716 0.000000 
0.000000 -0.087944 0.000000 
0.000000 0.000000 0.000000 

0.002946 -0.001497 0.000000 
0.000000 0.007682 0.000000 
0.000000 0.000000 0.000000 

0.004126 -0.006325 0.000000 
0.000000 -0.004419 0.000000 
0.000000 0.000000 0.000000 

0.001917 -0.007047 0.000000 
0.000000 -0.004011 0.000000 
0.000000 0.000000 0.000000 

0.001199 -0.001156 0.000000 
0.000000 -0.000267 0.000000 
0.000000 0.000000 0.000000 

0.000986 -0.001266 0.000000 
0.000000 -0.001416 0.000000 
0.000000 0.000000 0.000000 

0.000517 -0.001214 0.000000 
0.000000 -0.001049 0.000000 
0.000000 0.000000 0.000000 

0.000344 -0.000323 0.000000 
0.000000 -0.000364 0.000000 
0.000000 0.000000 0.000000 

0.129220 -0.035850 0.000000 
0.000000 -0.568555 0.000000 
0.000000 0.000000 0.000000 

0.054819 -0.041071 0.000000 
0.000000 -0.066274 0.000000 
0.000000 0.000000 0.000000 

-0.001673 -0.020412 0.000000 
0.000000 -0.080857 0.000000 
0.000000 0.000000 0.000000 

0.001901 -0.018559 0.000000 
0.000000 0.018539 0.000000 
0.000000 0.000000 0.000000 

0.003901 -0.005734 0.000000 
0.000000 -0.002287 0.000000 
0.000000 0.000000 0.000000 

0.001279 -0.005376 0.000000 
0.000000 -0.002014 0.000000 
0.000000 0.000000 0.000000 

0.000780 -0.001428 0.000000 
0.000000 0.000296 0.000000 
0.000000 0.000000 0.000000 

0.000947 -0.001093 0.000000 
0.000000 -0.001245 0.000000 
0.000000 0.000000 0.000000 

0.000521 -0.001013 0.000000 
0.000000 -0.000882 0.000000 
0.000000 0.000000 0.000000 

0.000360 -0.000331 0.000000 
0.000000 -0.000332 0.000000 
0.000000 0.000000 0.000000 

0.129680 0.037153 0.000000 
0.000000 -0.587474 0.000000 
0.000000 0.000000 0.000000 

0.054892 0.026728 0.000000 
0.000000 -0.048863 0.000000 
0.000000 0.000000 0.000000 

-0.001753 0.002117 0.000000 
0.000000 -0.067668 0.000000 
0.000000 0.000000 0.000000 

0.001919 -0.022719 0.000000 
0.000000 0.016932 0.000000 
0.000000 0.000000 0.000000 

0.003903 -0.003099 0.000000 
0.000000 -0.001053 0.000000 
0.000000 0.000000 0.000000 

0.001280 -0.002821 0.000000 
0.000000 -0.000439 0.000000 
0.000000 0.000000 0.000000 

0.000780 -0.001611 0.000000 
0.000000 0.000764 0.000000 
0.000000 0.000000 0.000000 

0.000947 -0.000658 0.000000 
0.000000 -0.001155 0.000000 
0.000000 0.000000 0.000000 

0.000521 -0.000676 0.000000 
0.000000 -0.000774 0.000000 
0.000000 0.000000 0.000000 

0.000360 -0.000196 0.000000 
0.000000 -0.000314 0.000000 
0.000000 0.000000 0.000000 

-0.038997 0.002824 0.000000 
0.000000 -0.592231 0.000000 
0.000000 0.000000 0.000000 

0.004286 -0.008543 0.000000 
0.000000 -0.037032 0.000000 
0.000000 0.000000 0.000000 

0.033951 -0.017911 0.000000 
0.000000 -0.059698 0.000000 
0.000000 0.000000 0.000000 

0.017956 -0.016263 0.000000 
0.000000 0.012147 0.000000 
0.000000 0.000000 0.000000 

0.002776 -0.007100 0.000000 
0.000000 -0.002043 0.000000 
0.000000 0.000000 0.000000 

0.001088 -0.004855 0.000000 
0.000000 -0.000692 0.000000 
0.000000 0.000000 0.000000 

0.000706 -0.002956 0.000000 
0.000000 0.000093 0.000000 
0.000000 0.000000 0.000000 

0.000256 -0.001073 0.000000 
0.000000 -0.001356 0.000000 
0.000000 0.000000 0.000000 

0.000094 -0.000739 0.000000 
0.000000 -0.000922 0.000000 
0.000000 0.000000 0.000000 

0.000046 -0.000335 0.000000 
0.000000 -0.000340 0.000000 
0.000000 0.000000 0.000000 

0.077458 -0.021835 0.000000 
0.000000 -0.593606 0.000000 
0.000000 0.000000 0.000000 

0.032490 -0.020870 0.000000 
0.000000 -0.029327 0.000000 
0.000000 0.000000 0.000000 

-0.003704 -0.009997 0.000000 
0.000000 -0.055066 0.000000 
0.000000 0.000000 0.000000 

0.001013 0.004467 0.000000 
0.000000 0.008046 0.000000 
0.000000 0.000000 0.000000 

0.007269 -0.001521 0.000000 
0.000000 -0.003168 0.000000 
0.000000 0.000000 0.000000 

0.004280 -0.001406 0.000000 