# vtk DataFile Version 3.0 
vtk output 
ASCII 
DATASET UNSTRUCTURED_GRID 
POINTS 100 float 
0.469966 -2.897743 0.000000 
0.459517 -2.799738 0.000000 
0.450925 -2.704911 0.000000 
0.450812 -2.603683 0.000000 
0.450523 -2.503563 0.000000 
0.450144 -2.404024 0.000000 
0.450074 -2.304087 0.000000 
0.450032 -2.204137 0.000000 
0.450006 -2.104177 0.000000 
0.450003 -2.004181 0.000000 
0.359023 -2.898191 0.000000 
0.354695 -2.800258 0.000000 
0.350979 -2.705312 0.000000 
0.350582 -2.603846 0.000000 
0.350306 -2.503611 0.000000 
0.350086 -2.404033 0.000000 
0.350040 -2.304091 0.000000 
0.350016 -2.204139 0.000000 
0.350004 -2.104177 0.000000 
0.350002 -2.004181 0.000000 
0.248557 -2.898669 0.000000 
0.250447 -2.800510 0.000000 
0.251441 -2.705051 0.000000 
0.250507 -2.603727 0.000000 
0.250126 -2.503572 0.000000 
0.250034 -2.404028 0.000000 
0.250011 -2.304087 0.000000 
0.250003 -2.204136 0.000000 
0.250001 -2.104177 0.000000 
0.250000 -2.004181 0.000000 
0.151166 -2.899009 0.000000 
0.150895 -2.800593 0.000000 
0.150558 -2.704630 0.000000 
0.150286 -2.603499 0.000000 
0.150126 -2.503474 0.000000 
0.150035 -2.404006 0.000000 
0.150016 -2.304074 0.000000 
0.150006 -2.204131 0.000000 
0.150001 -2.104176 0.000000 
0.150001 -2.004181 0.000000 
0.053487 -2.899248 0.000000 
0.051328 -2.800627 0.000000 
0.049787 -2.704295 0.000000 
0.050065 -2.603314 0.000000 
0.050103 -2.503391 0.000000 
0.050030 -2.403986 0.000000 
0.050017 -2.304064 0.000000 
0.050008 -2.204126 0.000000 
0.050001 -2.104175 0.000000 
0.050001 -2.004180 0.000000 
-0.053487 -2.899248 0.000000 
-0.051328 -2.800627 0.000000 
-0.049787 -2.704295 0.000000 
-0.050065 -2.603314 0.000000 
-0.050103 -2.503391 0.000000 
-0.050030 -2.403986 0.000000 
-0.050017 -2.304064 0.000000 
-0.050008 -2.204126 0.000000 
-0.050001 -2.104175 0.000000 
-0.050001 -2.004180 0.000000 
-0.151166 -2.899009 0.000000 
-0.150895 -2.800593 0.000000 
-0.150558 -2.704630 0.000000 
-0.150286 -2.603499 0.000000 
-0.150126 -2.503474 0.000000 
-0.150035 -2.404006 0.000000 
-0.150016 -2.304074 0.000000 
-0.150006 -2.204131 0.000000 
-0.150001 -2.104176 0.000000 
-0.150001 -2.004181 0.000000 
-0.248557 -2.898669 0.000000 
-0.250447 -2.800510 0.000000 
-0.251441 -2.705051 0.000000 
-0.250507 -2.603727 0.000000 
-0.250126 -2.503572 0.000000 
-0.250034 -2.404028 0.000000 
-0.250011 -2.304087 0.000000 
-0.250003 -2.204136 0.000000 
-0.250001 -2.104177 0.000000 
-0.250000 -2.004181 0.000000 
-0.359023 -2.898191 0.000000 
-0.354695 -2.800258 0.000000 
-0.350979 -2.705312 0.000000 
-0.350582 -2.603846 0.000000 
-0.350306 -2.503611 0.000000 
-0.350086 -2.404033 0.000000 
-0.350040 -2.304091 0.000000 
-0.350016 -2.204139 0.000000 
-0.350004 -2.104177 0.000000 
-0.350002 -2.004181 0.000000 
-0.469966 -2.897743 0.000000 
-0.459517 -2.799738 0.000000 
-0.450925 -2.704911 0.000000 
-0.450812 -2.603683 0.000000 
-0.450523 -2.503563 0.000000 
-0.450144 -2.404024 0.000000 
-0.450074 -2.304087 0.000000 
-0.450032 -2.204137 0.000000 
-0.450006 -2.104177 0.000000 
-0.450003 -2.004181 0.000000 
CELLS 100 200 
1 0 
1 1 
1 2 
1 3 
1 4 
1 5 
1 6 
1 7 
1 8 
1 9 
1 10 
1 11 
1 12 
1 13 
1 14 
1 15 
1 16 
1 17 
1 18 
1 19 
1 20 
1 21 
1 22 
1 23 
1 24 
1 25 
1 26 
1 27 
1 28 
1 29 
1 30 
1 31 
1 32 
1 33 
1 34 
1 35 
1 36 
1 37 
1 38 
1 39 
1 40 
1 41 
1 42 
1 43 
1 44 
1 45 
1 46 
1 47 
1 48 
1 49 
1 50 
1 51 
1 52 
1 53 
1 54 
1 55 
1 56 
1 57 
1 58 
1 59 
1 60 
1 61 
1 62 
1 63 
1 64 
1 65 
1 66 
1 67 
1 68 
1 69 
1 70 
1 71 
1 72 
1 73 
1 74 
1 75 
1 76 
1 77 
1 78 
1 79 
1 80 
1 81 
1 82 
1 83 
1 84 
1 85 
1 86 
1 87 
1 88 
1 89 
1 90 
1 91 
1 92 
1 93 
1 94 
1 95 
1 96 
1 97 
1 98 
1 99 
CELL_TYPES 100 
1 
1 
1 
1 
1 
1 
1 
1 
1 
1 
1 
1 
1 
1 
1 
1 
1 
1 
1 
1 
1 
1 
1 
1 
1 
1 
1 
1 
1 
1 
1 
1 
1 
1 
1 
1 
1 
1 
1 
1 
1 
1 
1 
1 
1 
1 
1 
1 
1 
1 
1 
1 
1 
1 
1 
1 
1 
1 
1 
1 
1 
1 
1 
1 
1 
1 
1 
1 
1 
1 
1 
1 
1 
1 
1 
1 
1 
1 
1 
1 
1 
1 
1 
1 
1 
1 
1 
1 
1 
1 
1 
1 
1 
1 
1 
1 
1 
1 
1 
1 
POINT_DATA 100 
VECTORS X_GC float 
0.469966 -2.897743 0.000000 
0.459517 -2.799738 0.000000 
0.450925 -2.704911 0.000000 
0.450812 -2.603683 0.000000 
0.450523 -2.503563 0.000000 
0.450144 -2.404024 0.000000 
0.450074 -2.304087 0.000000 
0.450032 -2.204137 0.000000 
0.450006 -2.104177 0.000000 
0.450003 -2.004181 0.000000 
0.359023 -2.898191 0.000000 
0.354695 -2.800258 0.000000 
0.350979 -2.705312 0.000000 
0.350582 -2.603846 0.000000 
0.350306 -2.503611 0.000000 
0.350086 -2.404033 0.000000 
0.350040 -2.304091 0.000000 
0.350016 -2.204139 0.000000 
0.350004 -2.104177 0.000000 
0.350002 -2.004181 0.000000 
0.248557 -2.898669 0.000000 
0.250447 -2.800510 0.000000 
0.251441 -2.705051 0.000000 
0.250507 -2.603727 0.000000 
0.250126 -2.503572 0.000000 
0.250034 -2.404028 0.000000 
0.250011 -2.304087 0.000000 
0.250003 -2.204136 0.000000 
0.250001 -2.104177 0.000000 
0.250000 -2.004181 0.000000 
0.151166 -2.899009 0.000000 
0.150895 -2.800593 0.000000 
0.150558 -2.704630 0.000000 
0.150286 -2.603499 0.000000 
0.150126 -2.503474 0.000000 
0.150035 -2.404006 0.000000 
0.150016 -2.304074 0.000000 
0.150006 -2.204131 0.000000 
0.150001 -2.104176 0.000000 
0.150001 -2.004181 0.000000 
0.053487 -2.899248 0.000000 
0.051328 -2.800627 0.000000 
0.049787 -2.704295 0.000000 
0.050065 -2.603314 0.000000 
0.050103 -2.503391 0.000000 
0.050030 -2.403986 0.000000 
0.050017 -2.304064 0.000000 
0.050008 -2.204126 0.000000 
0.050001 -2.104175 0.000000 
0.050001 -2.004180 0.000000 
-0.053487 -2.899248 0.000000 
-0.051328 -2.800627 0.000000 
-0.049787 -2.704295 0.000000 
-0.050065 -2.603314 0.000000 
-0.050103 -2.503391 0.000000 
-0.050030 -2.403986 0.000000 
-0.050017 -2.304064 0.000000 
-0.050008 -2.204126 0.000000 
-0.050001 -2.104175 0.000000 
-0.050001 -2.004180 0.000000 
-0.151166 -2.899009 0.000000 
-0.150895 -2.800593 0.000000 
-0.150558 -2.704630 0.000000 
-0.150286 -2.603499 0.000000 
-0.150126 -2.503474 0.000000 
-0.150035 -2.404006 0.000000 
-0.150016 -2.304074 0.000000 
-0.150006 -2.204131 0.000000 
-0.150001 -2.104176 0.000000 
-0.150001 -2.004181 0.000000 
-0.248557 -2.898669 0.000000 
-0.250447 -2.800510 0.000000 
-0.251441 -2.705051 0.000000 
-0.250507 -2.603727 0.000000 
-0.250126 -2.503572 0.000000 
-0.250034 -2.404028 0.000000 
-0.250011 -2.304087 0.000000 
-0.250003 -2.204136 0.000000 
-0.250001 -2.104177 0.000000 
-0.250000 -2.004181 0.000000 
-0.359023 -2.898191 0.000000 
-0.354695 -2.800258 0.000000 
-0.350979 -2.705312 0.000000 
-0.350582 -2.603846 0.000000 
-0.350306 -2.503611 0.000000 
-0.350086 -2.404033 0.000000 
-0.350040 -2.304091 0.000000 
-0.350016 -2.204139 0.000000 
-0.350004 -2.104177 0.000000 
-0.350002 -2.004181 0.000000 
-0.469966 -2.897743 0.000000 
-0.459517 -2.799738 0.000000 
-0.450925 -2.704911 0.000000 
-0.450812 -2.603683 0.000000 
-0.450523 -2.503563 0.000000 
-0.450144 -2.404024 0.000000 
-0.450074 -2.304087 0.000000 
-0.450032 -2.204137 0.000000 
-0.450006 -2.104177 0.000000 
-0.450003 -2.004181 0.000000 
VECTORS X_EC float 
-0.109554 -0.380470 0.000000 
0.026276 0.296469 0.000000 
0.137976 -0.983699 0.000000 
0.139445 -0.350278 0.000000 
0.143206 0.298106 0.000000 
0.148130 0.954329 0.000000 
0.149035 -0.394825 0.000000 
0.149586 0.255852 0.000000 
0.149918 0.906393 0.000000 
0.149956 -0.443553 0.000000 
-0.667302 -0.374420 0.000000 
-0.611041 0.303484 0.000000 
-0.562721 -0.978284 0.000000 
-0.557569 -0.348084 0.000000 
-0.553984 0.298747 0.000000 
-0.551117 0.954445 0.000000 
-0.550523 -0.394765 0.000000 
-0.550207 0.255876 0.000000 
-0.550046 0.906396 0.000000 
-0.550023 -0.443551 0.000000 
0.768761 -0.367975 0.000000 
0.744194 0.306881 0.000000 
0.731270 -0.981814 0.000000 
0.743409 -0.349689 0.000000 
0.748362 0.298222 0.000000 
0.749559 0.954380 0.000000 
0.749853 -0.394825 0.000000 
0.749965 0.255840 0.000000 
0.749986 0.906390 0.000000 
0.749996 -0.443555 0.000000 
0.034847 -0.363374 0.000000 
0.038361 0.308007 0.000000 
0.042741 -0.987492 0.000000 
0.046282 -0.352758 0.000000 
0.048361 0.296894 0.000000 
0.049543 0.954075 0.000000 
0.049787 -0.394995 0.000000 
0.049920 0.255763 0.000000 
0.049984 0.906377 0.000000 
0.049992 -0.443563 0.000000 
-0.695326 -0.360150 0.000000 
-0.667266 0.308465 0.000000 
-0.647234 -0.992019 0.000000 
-0.650840 -0.355259 0.000000 
-0.651333 0.295782 0.000000 
-0.650384 0.953811 0.000000 
-0.650219 -0.395139 0.000000 
-0.650098 0.255700 0.000000 
-0.650015 0.906367 0.000000 
-0.650010 -0.443569 0.000000 
0.695326 -0.360150 0.000000 
0.667266 0.308465 0.000000 
0.647234 -0.992019 0.000000 
0.650840 -0.355259 0.000000 
0.651333 0.295782 0.000000 
0.650384 0.953811 0.000000 
0.650219 -0.395139 0.000000 
0.650098 0.255700 0.000000 
0.650015 0.906367 0.000000 
0.650010 -0.443569 0.000000 
-0.034847 -0.363374 0.000000 
-0.038361 0.308007 0.000000 
-0.042741 -0.987492 0.000000 
-0.046282 -0.352758 0.000000 
-0.048361 0.296894 0.000000 
-0.049543 0.954075 0.000000 
-0.049787 -0.394995 0.000000 
-0.049920 0.255763 0.000000 
-0.049984 0.906377 0.000000 
-0.049992 -0.443563 0.000000 
-0.768761 -0.367975 0.000000 
-0.744194 0.306881 0.000000 
-0.731270 -0.981814 0.000000 
-0.743409 -0.349689 0.000000 
-0.748362 0.298222 0.000000 
-0.749559 0.954380 0.000000 
-0.749853 -0.394825 0.000000 
-0.749965 0.255840 0.000000 
-0.749986 0.906390 0.000000 
-0.749996 -0.443555 0.000000 
0.667302 -0.374420 0.000000 
0.611041 0.303484 0.000000 
0.562721 -0.978284 0.000000 
0.557569 -0.348084 0.000000 
0.553984 0.298747 0.000000 
0.551117 0.954445 0.000000 
0.550523 -0.394765 0.000000 
0.550207 0.255876 0.000000 
0.550046 0.906396 0.000000 
0.550023 -0.443551 0.000000 
0.109554 -0.380470 0.000000 
-0.026276 0.296469 0.000000 
-0.137976 -0.983699 0.000000 
-0.139445 -0.350278 0.000000 
-0.143206 0.298106 0.000000 
-0.148130 0.954329 0.000000 
-0.149035 -0.394825 0.000000 
-0.149586 0.255852 0.000000 
-0.149918 0.906393 0.000000 
-0.149956 -0.443553 0.000000 
CELL_DATA 100 
SCALARS MASS float 
LOOKUP_TABLE default 
10.000000 
10.000000 
10.000000 
10.000000 
10.000000 
10.000000 
10.000000 
10.000000 
10.000000 
10.000000 
10.000000 
10.000000 
10.000000 
10.000000 
10.000000 
10.000000 
10.000000 
10.000000 
10.000000 
10.000000 
10.000000 
10.000000 
10.000000 
10.000000 
10.000000 
10.000000 
10.000000 
10.000000 
10.000000 
10.000000 
10.000000 
10.000000 
10.000000 
10.000000 
10.000000 
10.000000 
10.000000 
10.000000 
10.000000 
10.000000 
10.000000 
10.000000 
10.000000 
10.000000 
10.000000 
10.000000 
10.000000 
10.000000 
10.000000 
10.000000 
10.000000 
10.000000 
10.000000 
10.000000 
10.000000 
10.000000 
10.000000 
10.000000 
10.000000 
10.000000 
10.000000 
10.000000 
10.000000 
10.000000 
10.000000 
10.000000 
10.000000 
10.000000 
10.000000 
10.000000 
10.000000 
10.000000 
10.000000 
10.000000 
10.000000 
10.000000 
10.000000 
10.000000 
10.000000 
10.000000 
10.000000 
10.000000 
10.000000 
10.000000 
10.000000 
10.000000 
10.000000 
10.000000 
10.000000 
10.000000 
10.000000 
10.000000 
10.000000 
10.000000 
10.000000 
10.000000 
10.000000 
10.000000 
10.000000 
10.000000 
SCALARS MASS float 
LOOKUP_TABLE default 
10.000000 
10.000000 
10.000000 
10.000000 
10.000000 
10.000000 
10.000000 
10.000000 
10.000000 
10.000000 
10.000000 
10.000000 
10.000000 
10.000000 
10.000000 
10.000000 
10.000000 
10.000000 
10.000000 
10.000000 
10.000000 
10.000000 
10.000000 
10.000000 
10.000000 
10.000000 
10.000000 
10.000000 
10.000000 
10.000000 
10.000000 
10.000000 
10.000000 
10.000000 
10.000000 
10.000000 
10.000000 
10.000000 
10.000000 
10.000000 
10.000000 
10.000000 
10.000000 
10.000000 
10.000000 
10.000000 
10.000000 
10.000000 
10.000000 
10.000000 
10.000000 
10.000000 
10.000000 
10.000000 
10.000000 
10.000000 
10.000000 
10.000000 
10.000000 
10.000000 
10.000000 
10.000000 
10.000000 
10.000000 
10.000000 
10.000000 
10.000000 
10.000000 
10.000000 
10.000000 
10.000000 
10.000000 
10.000000 
10.000000 
10.000000 
10.000000 
10.000000 
10.000000 
10.000000 
10.000000 
10.000000 
10.000000 
10.000000 
10.000000 
10.000000 
10.000000 
10.000000 
10.000000 
10.000000 
10.000000 
10.000000 
10.000000 
10.000000 
10.000000 
10.000000 
10.000000 
10.000000 
10.000000 
10.000000 
10.000000 
SCALARS DENSITY float 
LOOKUP_TABLE default 
5732.748396 
805.471653 
1023.060018 
1042.381058 
1000.284004 
1002.181051 
1002.934450 
1000.208918 
1000.076555 
1000.098137 
5427.251739 
792.256180 
1021.562812 
1040.133364 
999.867295 
1001.866584 
1002.797628 
1000.188451 
1000.068971 
1000.095286 
5476.360359 
786.133229 
1022.119209 
1040.701534 
1000.521102 
1001.943339 
1002.874463 
1000.201820 
1000.072591 
1000.098905 
9662.367607 
962.626875 
1050.988801 
1046.935204 
1003.567507 
1003.860076 
1003.657677 
1000.397077 
1000.132045 
1000.125209 
6688.089795 
834.104294 
1034.379721 
1045.571244 
1003.914146 
1002.860658 
1003.433225 
1000.294598 
1000.100956 
1000.119319 
6688.089795 
834.104294 
1034.379721 
1045.571244 
1003.914146 
1002.860658 
1003.433225 
1000.294598 
1000.100956 
1000.119319 
9662.367607 
962.626875 
1050.988801 
1046.935204 
1003.567507 
1003.860076 
1003.657677 
1000.397077 
1000.132045 
1000.125209 
5476.360359 
786.133229 
1022.119209 
1040.701534 
1000.521102 
1001.943339 
1002.874463 
1000.201820 
1000.072591 
1000.098905 
5427.251739 
792.256180 
1021.562812 
1040.133364 
999.867295 
1001.866584 
1002.797628 
1000.188451 
1000.068971 
1000.095286 
5732.748396 
805.471653 
1023.060018 
1042.381058 
1000.284004 
1002.181051 
1002.934450 
1000.208918 
1000.076555 
1000.098137 
SCALARS ELEM_i float 
LOOKUP_TABLE default 
81 
82 
82 
83 
84 
85 
85 
86 
87 
87 
108 
109 
109 
110 
111 
112 
112 
113 
114 
114 
108 
109 
109 
110 
111 
112 
112 
113 
114 
114 
135 
136 
136 
137 
138 
139 
139 
140 
141 
141 
162 
163 
163 
164 
165 
166 
166 
167 
168 
168 
162 
163 
163 
164 
165 
166 
166 
167 
168 
168 
189 
190 
190 
191 
192 
193 
193 
194 
195 
195 
216 
217 
217 
218 
219 
220 
220 
221 
222 
222 
216 
217 
217 
218 
219 
220 
220 
221 
222 
222 
243 
244 
244 
245 
246 
247 
247 
248 
249 
249 
VECTORS VELOCITY float 
6.635429 -8.892204 0.000000 
1.735074 -1.704317 0.000000 
-0.764687 -9.641555 0.000000 
0.258809 -6.896983 0.000000 
0.310989 -6.476657 0.000000 
0.029411 -6.969056 0.000000 
0.038003 -6.893557 0.000000 
0.023195 -6.898575 0.000000 
0.002175 -6.934532 0.000000 
0.002154 -6.932509 0.000000 
1.824660 -9.467253 0.000000 
0.522043 -2.212810 0.000000 
-0.005939 -9.923082 0.000000 
0.175581 -7.026774 0.000000 
0.125099 -6.523039 0.000000 
0.013683 -6.975494 0.000000 
0.014969 -6.898125 0.000000 
0.008789 -6.900868 0.000000 
0.000857 -6.934806 0.000000 
0.000831 -6.932670 0.000000 
-1.432957 -9.736163 0.000000 
0.396569 -2.279893 0.000000 
1.148619 -9.656787 0.000000 
0.251909 -6.932475 0.000000 
-0.007967 -6.507069 0.000000 
0.014570 -6.975260 0.000000 
0.001856 -6.894929 0.000000 
-0.001020 -6.898484 0.000000 
0.000317 -6.934649 0.000000 
-0.000040 -6.932413 0.000000 
0.575660 -9.994533 0.000000 
0.407939 -2.323331 0.000000 
0.215909 -9.364908 0.000000 
0.119448 -6.806704 0.000000 
0.059265 -6.467742 0.000000 
0.018463 -6.966710 0.000000 
0.009718 -6.887168 0.000000 
0.004015 -6.894258 0.000000 
0.000566 -6.934387 0.000000 
0.000421 -6.932018 0.000000 
1.945755 -10.188394 0.000000 
0.278350 -2.352060 0.000000 
-0.543447 -9.147591 0.000000 
-0.008615 -6.709340 0.000000 
0.093194 -6.434923 0.000000 
0.014194 -6.959012 0.000000 
0.012427 -6.880701 0.000000 
0.006681 -6.890850 0.000000 
0.000575 -6.934177 0.000000 
0.000643 -6.931705 0.000000 
-1.945755 -10.188394 0.000000 
-0.278350 -2.352060 0.000000 
0.543447 -9.147591 0.000000 
0.008615 -6.709340 0.000000 
-0.093194 -6.434923 0.000000 
-0.014194 -6.959012 0.000000 
-0.012427 -6.880701 0.000000 
-0.006681 -6.890850 0.000000 
-0.000575 -6.934177 0.000000 
-0.000643 -6.931705 0.000000 
-0.575660 -9.994533 0.000000 
-0.407939 -2.323331 0.000000 
-0.215909 -9.364908 0.000000 
-0.119448 -6.806704 0.000000 
-0.059265 -6.467742 0.000000 
-0.018463 -6.966710 0.000000 
-0.009718 -6.887168 0.000000 
-0.004015 -6.894258 0.000000 
-0.000566 -6.934387 0.000000 
-0.000421 -6.932018 0.000000 
1.432957 -9.736163 0.000000 
-0.396569 -2.279893 0.000000 
-1.148619 -9.656787 0.000000 
-0.251909 -6.932475 0.000000 
0.007967 -6.507069 0.000000 
-0.014570 -6.975260 0.000000 
-0.001856 -6.894929 0.000000 
0.001020 -6.898484 0.000000 
-0.000317 -6.934649 0.000000 
0.000040 -6.932413 0.000000 
-1.824660 -9.467253 0.000000 
-0.522043 -2.212810 0.000000 
0.005939 -9.923082 0.000000 
-0.175581 -7.026774 0.000000 
-0.125099 -6.523039 0.000000 
-0.013683 -6.975494 0.000000 
-0.014969 -6.898125 0.000000 
-0.008789 -6.900868 0.000000 
-0.000857 -6.934806 0.000000 
-0.000831 -6.932670 0.000000 
-6.635429 -8.892204 0.000000 
-1.735074 -1.704317 0.000000 
0.764687 -9.641555 0.000000 
-0.258809 -6.896983 0.000000 
-0.310989 -6.476657 0.000000 
-0.029411 -6.969056 0.000000 
-0.038003 -6.893557 0.000000 
-0.023195 -6.898575 0.000000 
-0.002175 -6.934532 0.000000 
-0.002154 -6.932509 0.000000 
TENSORS STRESS float 
-1312.882414 -40.406009 0.000000 
0.000000 -1788.884298 0.000000 
0.000000 0.000000 0.000000 

2183.669590 -690.470860 0.000000 
0.000000 1948.952059 0.000000 
0.000000 0.000000 0.000000 

-8.812356 -32.562888 0.000000 
0.000000 -92.382337 0.000000 
0.000000 0.000000 0.000000 

-136.284607 -45.839728 0.000000 
0.000000 -195.035916 0.000000 
0.000000 0.000000 0.000000 

-2.555183 -11.250738 0.000000 
0.000000 -16.192695 0.000000 
0.000000 0.000000 0.000000 

-19.130922 -4.606974 0.000000 
0.000000 -30.108976 0.000000 
0.000000 0.000000 0.000000 

-29.365387 -4.989928 0.000000 
0.000000 -38.471564 0.000000 
0.000000 0.000000 0.000000 

-3.078396 -0.798526 0.000000 
0.000000 -4.612514 0.000000 
0.000000 0.000000 0.000000 

-1.030950 -0.184481 0.000000 
0.000000 -1.526100 0.000000 
0.000000 0.000000 0.000000 

-1.432414 -0.193862 0.000000 
0.000000 -1.854556 0.000000 
0.000000 0.000000 0.000000 

-1329.732426 -17.275974 0.000000 
0.000000 -1844.421695 0.000000 
0.000000 0.000000 0.000000 

2320.678860 -331.718891 0.000000 
0.000000 2049.771218 0.000000 
0.000000 0.000000 0.000000 

-43.146850 -40.345216 0.000000 
0.000000 -104.499606 0.000000 
0.000000 0.000000 0.000000 

-121.402663 -38.157555 0.000000 
0.000000 -167.299357 0.000000 
0.000000 0.000000 0.000000 

2.107410 -12.943828 0.000000 
0.000000 -10.795867 0.000000 
0.000000 0.000000 0.000000 

-15.001438 -3.527086 0.000000 
0.000000 -26.381472 0.000000 
0.000000 0.000000 0.000000 

-27.408056 -3.352540 0.000000 
0.000000 -36.519288 0.000000 
0.000000 0.000000 0.000000 

-2.704381 -0.609493 0.000000 
0.000000 -4.282027 0.000000 
0.000000 0.000000 0.000000 

-0.888269 -0.143260 0.000000 
0.000000 -1.406344 0.000000 
0.000000 0.000000 0.000000 

-1.374480 -0.130326 0.000000 
0.000000 -1.804135 0.000000 
0.000000 0.000000 0.000000 

-1333.948437 8.229703 0.000000 
0.000000 -1847.698240 0.000000 
0.000000 0.000000 0.000000 

2470.444041 70.896255 0.000000 
0.000000 2226.341026 0.000000 
0.000000 0.000000 0.000000 

-49.777604 -25.599732 0.000000 
0.000000 -112.595716 0.000000 
0.000000 0.000000 0.000000 

-127.908083 -23.705245 0.000000 
0.000000 -175.249368 0.000000 
0.000000 0.000000 0.000000 

-6.177496 -10.553359 0.000000 
0.000000 -20.912068 0.000000 
0.000000 0.000000 0.000000 

-15.770511 -1.265569 0.000000 
0.000000 -27.320744 0.000000 
0.000000 0.000000 0.000000 

-28.175332 -1.093357 0.000000 
0.000000 -37.456775 0.000000 
0.000000 0.000000 0.000000 

-2.933047 -0.273913 0.000000 
0.000000 -4.561487 0.000000 
0.000000 0.000000 0.000000 

-0.946452 -0.054849 0.000000 
0.000000 -1.477455 0.000000 
0.000000 0.000000 0.000000 

-1.432659 -0.041918 0.000000 
0.000000 -1.875242 0.000000 
0.000000 0.000000 0.000000 

-1193.261164 0.813145 0.000000 
0.000000 -1407.117024 0.000000 
0.000000 0.000000 0.000000 

-75.802307 -13.933653 0.000000 
0.000000 147.373078 0.000000 
0.000000 0.000000 0.000000 

-122.329929 -29.774867 0.000000 
0.000000 -179.105559 0.000000 
0.000000 0.000000 0.000000 

-149.991905 -23.957356 0.000000 
0.000000 -202.058360 0.000000 
0.000000 0.000000 0.000000 

-44.472474 -10.517691 0.000000 
0.000000 -60.046328 0.000000 
0.000000 0.000000 0.000000 

-42.561377 -2.205024 0.000000 
0.000000 -50.380935 0.000000 
0.000000 0.000000 0.000000 

-40.083677 -1.450873 0.000000 
0.000000 -48.356950 0.000000 
0.000000 0.000000 0.000000 

-6.606586 -0.422063 0.000000 
0.000000 -7.851591 0.000000 
0.000000 0.000000 0.000000 

-2.069359 -0.092762 0.000000 
0.000000 -2.454348 0.000000 
0.000000 0.000000 0.000000 

-1.952394 -0.056215 0.000000 
0.000000 -2.358654 0.000000 
0.000000 0.000000 0.000000 

-1313.874747 -5.145256 0.000000 
0.000000 -1699.449297 0.000000 
0.000000 0.000000 0.000000 

1701.033624 -95.393554 0.000000 
0.000000 1669.264745 0.000000 
0.000000 0.000000 0.000000 

-95.425756 -6.481676 0.000000 
0.000000 -166.319707 0.000000 
0.000000 0.000000 0.000000 

-164.839536 -6.413906 0.000000 
0.000000 -222.168258 0.000000 
0.000000 0.000000 0.000000 

-46.526120 -1.304723 0.000000 
0.000000 -68.245660 0.000000 
0.000000 0.000000 0.000000 

-26.232093 -0.783153 0.000000 
0.000000 -38.040051 0.000000 
0.000000 0.000000 0.000000 

-34.821679 -0.782632 0.000000 
0.000000 -45.058434 0.000000 
0.000000 0.000000 0.000000 

-4.473015 -0.168383 0.000000 
0.000000 -6.347928 0.000000 
0.000000 0.000000 0.000000 

-1.429179 -0.031386 0.000000 
0.000000 -1.979150 0.000000 
0.000000 0.000000 0.000000 

-1.774385 -0.031385 0.000000 
0.000000 -2.261576 0.000000 
0.000000 0.000000 0.000000 

-1313.874747 5.145256 0.000000 
0.000000 -1699.449297 0.000000 
0.000000 0.000000 0.000000 

1701.033624 95.393554 0.000000 
0.000000 1669.264745 0.000000 
0.000000 0.000000 0.000000 

-95.425756 6.481676 0.000000 
0.000000 -166.319707 0.000000 
0.000000 0.000000 0.000000 

-164.839536 6.413906 0.000000 
0.000000 -222.168258 0.000000 
0.000000 0.000000 0.000000 

-46.526120 1.304723 0.000000 
0.000000 -68.245660 0.000000 
0.000000 0.000000 0.000000 

-26.232093 0.783153 0.000000 
0.000000 -38.040051 0.000000 
0.000000 0.000000 0.000000 

-34.821679 0.782632 0.000000 
0.000000 -45.058434 0.000000 
0.000000 0.000000 0.000000 

-4.473015 0.168383 0.000000 
0.000000 -6.347928 0.000000 
0.000000 0.000000 0.000000 

-1.429179 0.031386 0.000000 
0.000000 -1.979150 0.000000 
0.000000 0.000000 0.000000 

-1.774385 0.031385 0.000000 
0.000000 -2.261576 0.000000 
0.000000 0.000000 0.000000 

-1193.261164 -0.813145 0.000000 
0.000000 -1407.117024 0.000000 
0.000000 0.000000 0.000000 

-75.802307 13.933653 0.000000 
0.000000 147.373078 0.000000 
0.000000 0.000000 0.000000 

-122.329929 29.774867 0.000000 
0.000000 -179.105559 0.000000 
0.000000 0.000000 0.000000 

-149.991905 23.957356 0.000000 
0.000000 -202.058360 0.000000 
0.000000 0.000000 0.000000 

-44.472474 10.517691 0.000000 
0.000000 -60.046328 0.000000 
0.000000 0.000000 0.000000 

-42.561377 2.205024 0.000000 
0.000000 -50.380935 0.000000 
0.000000 0.000000 0.000000 

-40.083677 1.450873 0.000000 
0.000000 -48.356950 0.000000 
0.000000 0.000000 0.000000 

-6.606586 0.422063 0.000000 
0.000000 -7.851591 0.000000 
0.000000 0.000000 0.000000 

-2.069359 0.092762 0.000000 
0.000000 -2.454348 0.000000 
0.000000 0.000000 0.000000 

-1.952394 0.056215 0.000000 
0.000000 -2.358654 0.000000 
0.000000 0.000000 0.000000 

-1333.948437 -8.229703 0.000000 
0.000000 -1847.698240 0.000000 
0.000000 0.000000 0.000000 

2470.444041 -70.896255 0.000000 
0.000000 2226.341026 0.000000 
0.000000 0.000000 0.000000 

-49.777604 25.599732 0.000000 
0.000000 -112.595716 0.000000 
0.000000 0.000000 0.000000 

-127.908083 23.705245 0.000000 
0.000000 -175.249368 0.000000 
0.000000 0.000000 0.000000 

-6.177496 10.553359 0.000000 
0.000000 -20.912068 0.000000 
0.000000 0.000000 0.000000 

-15.770511 1.265569 0.000000 
0.000000 -27.320744 0.000000 
0.000000 0.000000 0.000000 

-28.175332 1.093357 0.000000 
0.000000 -37.456775 0.000000 
0.000000 0.000000 0.000000 

-2.933047 0.273913 0.000000 
0.000000 -4.561487 0.000000 
0.000000 0.000000 0.000000 

-0.946452 0.054849 0.000000 
0.000000 -1.477455 0.000000 
0.000000 0.000000 0.000000 

-1.432659 0.041918 0.000000 
0.000000 -1.875242 0.000000 
0.000000 0.000000 0.000000 

-1329.732426 17.275974 0.000000 
0.000000 -1844.421695 0.000000 
0.000000 0.000000 0.000000 

2320.678860 331.718891 0.000000 
0.000000 2049.771218 0.000000 
0.000000 0.000000 0.000000 

-43.146850 40.345216 0.000000 
0.000000 -104.499606 0.000000 
0.000000 0.000000 0.000000 

-121.402663 38.157555 0.000000 
0.000000 -167.299357 0.000000 
0.000000 0.000000 0.000000 

2.107410 12.943828 0.000000 
0.000000 -10.795867 0.000000 
0.000000 0.000000 0.000000 

-15.001438 3.527086 0.000000 
0.000000 -26.381472 0.000000 
0.000000 0.000000 0.000000 

-27.408056 3.352540 0.000000 
0.000000 -36.519288 0.000000 
0.000000 0.000000 0.000000 

-2.704381 0.609493 0.000000 
0.000000 -4.282027 0.000000 
0.000000 0.000000 0.000000 

-0.888269 0.143260 0.000000 
0.000000 -1.406344 0.000000 
0.000000 0.000000 0.000000 

-1.374480 0.130326 0.000000 
0.000000 -1.804135 0.000000 
0.000000 0.000000 0.000000 

-1312.882414 40.406009 0.000000 
0.000000 -1788.884298 0.000000 
0.000000 0.000000 0.000000 

2183.669590 690.470860 0.000000 
0.000000 1948.952059 0.000000 
0.000000 0.000000 0.000000 

-8.812356 32.562888 0.000000 
0.000000 -92.382337 0.000000 
0.000000 0.000000 0.000000 

-136.284607 45.839728 0.000000 
0.000000 -195.035916 0.000000 
0.000000 0.000000 0.000000 

-2.555183 11.250738 0.000000 
0.000000 -16.192695 0.000000 
0.000000 0.000000 0.000000 

-19.130922 4.606974 0.000000 
0.000000 -30.108976 0.000000 
0.000000 0.000000 0.000000 

-29.365387 4.989928 0.000000 
0.000000 -38.471564 0.000000 
0.000000 0.000000 0.000000 

-3.078396 0.798526 0.000000 
0.000000 -4.612514 0.000000 
0.000000 0.000000 0.000000 

-1.030950 0.184481 0.000000 
0.000000 -1.526100 0.000000 
0.000000 0.000000 0.000000 

-1.432414 0.193862 0.000000 
0.000000 -1.854556 0.000000 
0.000000 0.000000 0.000000 

TENSORS STRAIN float 
0.068921 -0.033587 0.000000 
0.000000 -0.326755 0.000000 
0.000000 0.000000 0.000000 

0.037840 -0.080642 0.000000 
0.000000 0.010426 0.000000 
0.000000 0.000000 0.000000 

0.005448 -0.004830 0.000000 
0.000000 -0.006949 0.000000 
0.000000 0.000000 0.000000 

0.001936 -0.006928 0.000000 
0.000000 -0.006944 0.000000 
0.000000 0.000000 0.000000 

0.000853 -0.001632 0.000000 
0.000000 -0.001125 0.000000 
0.000000 0.000000 0.000000 

0.000440 -0.000669 0.000000 
0.000000 -0.001155 0.000000 
0.000000 0.000000 0.000000 

0.000169 -0.000726 0.000000 
0.000000 -0.001155 0.000000 
0.000000 0.000000 0.000000 

0.000055 -0.000116 0.000000 
0.000000 -0.000167 0.000000 
0.000000 0.000000 0.000000 

0.000017 -0.000027 0.000000 
0.000000 -0.000054 0.000000 
0.000000 0.000000 0.000000 

0.000007 -0.000028 0.000000 
0.000000 -0.000054 0.000000 
0.000000 0.000000 0.000000 

0.077622 -0.013595 0.000000 
0.000000 -0.327413 0.000000 
0.000000 0.000000 0.000000 

0.040664 -0.038107 0.000000 
0.000000 0.009543 0.000000 
0.000000 0.000000 0.000000 

0.003450 -0.005976 0.000000 
0.000000 -0.005638 0.000000 
0.000000 0.000000 0.000000 

0.001284 -0.005755 0.000000 
0.000000 -0.005638 0.000000 
0.000000 0.000000 0.000000 

0.000872 -0.001877 0.000000 
0.000000 -0.000998 0.000000 
0.000000 0.000000 0.000000 

0.000526 -0.000512 0.000000 
0.000000 -0.001127 0.000000 
0.000000 0.000000 0.000000 

0.000198 -0.000487 0.000000 
0.000000 -0.001127 0.000000 
0.000000 0.000000 0.000000 

0.000064 -0.000088 0.000000 
0.000000 -0.000165 0.000000 
0.000000 0.000000 0.000000 

0.000021 -0.000021 0.000000 
0.000000 -0.000054 0.000000 
0.000000 0.000000 0.000000 

0.000008 -0.000019 0.000000 
0.000000 -0.000054 0.000000 
0.000000 0.000000 0.000000 

0.077654 0.006535 0.000000 
0.000000 -0.330300 0.000000 
0.000000 0.000000 0.000000 

0.040682 0.008081 0.000000 
0.000000 0.012857 0.000000 
0.000000 0.000000 0.000000 

0.003452 -0.003794 0.000000 
0.000000 -0.005858 0.000000 
0.000000 0.000000 0.000000 

0.001285 -0.003577 0.000000 
0.000000 -0.005859 0.000000 
0.000000 0.000000 0.000000 

0.000872 -0.001531 0.000000 
0.000000 -0.001265 0.000000 
0.000000 0.000000 0.000000 

0.000526 -0.000184 0.000000 
0.000000 -0.001152 0.000000 
0.000000 0.000000 0.000000 

0.000198 -0.000159 0.000000 
0.000000 -0.001152 0.000000 
0.000000 0.000000 0.000000 

0.000064 -0.000040 0.000000 
0.000000 -0.000172 0.000000 
0.000000 0.000000 0.000000 

0.000021 -0.000008 0.000000 
0.000000 -0.000056 0.000000 
0.000000 0.000000 0.000000 

0.000008 -0.000006 0.000000 
0.000000 -0.000056 0.000000 
0.000000 0.000000 0.000000 

-0.032351 0.001139 0.000000 
0.000000 -0.331973 0.000000 
0.000000 0.000000 0.000000 

-0.015076 -0.001945 0.000000 
0.000000 0.016075 0.000000 
0.000000 0.000000 0.000000 

0.002029 -0.004537 0.000000 
0.000000 -0.006623 0.000000 
0.000000 0.000000 0.000000 

0.001280 -0.003637 0.000000 
0.000000 -0.006624 0.000000 
0.000000 0.000000 0.000000 

0.000373 -0.001531 0.000000 
0.000000 -0.001894 0.000000 
0.000000 0.000000 0.000000 

-0.000107 -0.000321 0.000000 
0.000000 -0.001246 0.000000 
0.000000 0.000000 0.000000 

-0.000042 -0.000211 0.000000 
0.000000 -0.001246 0.000000 
0.000000 0.000000 0.000000 

-0.000015 -0.000061 0.000000 
0.000000 -0.000195 0.000000 
0.000000 0.000000 0.000000 

-0.000005 -0.000013 0.000000 
0.000000 -0.000061 0.000000 
0.000000 0.000000 0.000000 

-0.000002 -0.000008 0.000000 
0.000000 -0.000061 0.000000 
0.000000 0.000000 0.000000 

0.040848 -0.004990 0.000000 
0.000000 -0.333072 0.000000 
0.000000 0.000000 0.000000 

0.022302 -0.011537 0.000000 
0.000000 0.018460 0.000000 
0.000000 0.000000 0.000000 

0.003354 -0.000972 0.000000 
0.000000 -0.007279 0.000000 
0.000000 0.000000 0.000000 

0.001412 -0.000972 0.000000 
0.000000 -0.007279 0.000000 
0.000000 0.000000 0.000000 

0.000745 -0.000190 0.000000 
0.000000 -0.002416 0.000000 
0.000000 0.000000 0.000000 
