# vtk DataFile Version 3.0 
vtk output 
ASCII 
DATASET UNSTRUCTURED_GRID 
POINTS 100 float 
0.481505 -2.912075 0.000000 
0.464870 -2.823068 0.000000 
0.453744 -2.734687 0.000000 
0.452547 -2.633221 0.000000 
0.451283 -2.532649 0.000000 
0.450613 -2.432952 0.000000 
0.450398 -2.333016 0.000000 
0.450234 -2.233134 0.000000 
0.450102 -2.133272 0.000000 
0.450063 -2.033313 0.000000 
0.364858 -2.914508 0.000000 
0.358169 -2.826123 0.000000 
0.353623 -2.736562 0.000000 
0.352212 -2.634094 0.000000 
0.351011 -2.532897 0.000000 
0.350451 -2.433049 0.000000 
0.350265 -2.333064 0.000000 
0.350141 -2.233153 0.000000 
0.350061 -2.133278 0.000000 
0.350037 -2.033315 0.000000 
0.250879 -2.915616 0.000000 
0.253982 -2.827249 0.000000 
0.254328 -2.736194 0.000000 
0.252083 -2.633996 0.000000 
0.250794 -2.533024 0.000000 
0.250361 -2.433078 0.000000 
0.250180 -2.333064 0.000000 
0.250070 -2.233147 0.000000 
0.250027 -2.133272 0.000000 
0.250016 -2.033309 0.000000 
0.152728 -2.915999 0.000000 
0.152364 -2.827450 0.000000 
0.151727 -2.735257 0.000000 
0.151075 -2.633430 0.000000 
0.150606 -2.532773 0.000000 
0.150286 -2.432935 0.000000 
0.150149 -2.332982 0.000000 
0.150061 -2.233113 0.000000 
0.150026 -2.133255 0.000000 
0.150016 -2.033297 0.000000 
0.054472 -2.916177 0.000000 
0.050994 -2.827425 0.000000 
0.049488 -2.734461 0.000000 
0.050119 -2.632931 0.000000 
0.050309 -2.532522 0.000000 
0.050153 -2.432800 0.000000 
0.050088 -2.332908 0.000000 
0.050043 -2.233084 0.000000 
0.050020 -2.133241 0.000000 
0.050012 -2.033288 0.000000 
-0.054472 -2.916177 0.000000 
-0.050994 -2.827425 0.000000 
-0.049488 -2.734461 0.000000 
-0.050119 -2.632931 0.000000 
-0.050309 -2.532522 0.000000 
-0.050153 -2.432800 0.000000 
-0.050088 -2.332908 0.000000 
-0.050043 -2.233084 0.000000 
-0.050020 -2.133241 0.000000 
-0.050012 -2.033288 0.000000 
-0.152728 -2.915999 0.000000 
-0.152364 -2.827450 0.000000 
-0.151727 -2.735257 0.000000 
-0.151075 -2.633430 0.000000 
-0.150606 -2.532773 0.000000 
-0.150286 -2.432935 0.000000 
-0.150149 -2.332982 0.000000 
-0.150061 -2.233113 0.000000 
-0.150026 -2.133255 0.000000 
-0.150016 -2.033297 0.000000 
-0.250879 -2.915616 0.000000 
-0.253982 -2.827249 0.000000 
-0.254328 -2.736194 0.000000 
-0.252083 -2.633996 0.000000 
-0.250794 -2.533024 0.000000 
-0.250361 -2.433078 0.000000 
-0.250180 -2.333064 0.000000 
-0.250070 -2.233147 0.000000 
-0.250027 -2.133272 0.000000 
-0.250016 -2.033309 0.000000 
-0.364858 -2.914508 0.000000 
-0.358169 -2.826123 0.000000 
-0.353623 -2.736562 0.000000 
-0.352212 -2.634094 0.000000 
-0.351011 -2.532897 0.000000 
-0.350451 -2.433049 0.000000 
-0.350265 -2.333064 0.000000 
-0.350141 -2.233153 0.000000 
-0.350061 -2.133278 0.000000 
-0.350037 -2.033315 0.000000 
-0.481505 -2.912075 0.000000 
-0.464870 -2.823068 0.000000 
-0.453744 -2.734687 0.000000 
-0.452547 -2.633221 0.000000 
-0.451283 -2.532649 0.000000 
-0.450613 -2.432952 0.000000 
-0.450398 -2.333016 0.000000 
-0.450234 -2.233134 0.000000 
-0.450102 -2.133272 0.000000 
-0.450063 -2.033313 0.000000 
CELLS 100 200 
1 0 
1 1 
1 2 
1 3 
1 4 
1 5 
1 6 
1 7 
1 8 
1 9 
1 10 
1 11 
1 12 
1 13 
1 14 
1 15 
1 16 
1 17 
1 18 
1 19 
1 20 
1 21 
1 22 
1 23 
1 24 
1 25 
1 26 
1 27 
1 28 
1 29 
1 30 
1 31 
1 32 
1 33 
1 34 
1 35 
1 36 
1 37 
1 38 
1 39 
1 40 
1 41 
1 42 
1 43 
1 44 
1 45 
1 46 
1 47 
1 48 
1 49 
1 50 
1 51 
1 52 
1 53 
1 54 
1 55 
1 56 
1 57 
1 58 
1 59 
1 60 
1 61 
1 62 
1 63 
1 64 
1 65 
1 66 
1 67 
1 68 
1 69 
1 70 
1 71 
1 72 
1 73 
1 74 
1 75 
1 76 
1 77 
1 78 
1 79 
1 80 
1 81 
1 82 
1 83 
1 84 
1 85 
1 86 
1 87 
1 88 
1 89 
1 90 
1 91 
1 92 
1 93 
1 94 
1 95 
1 96 
1 97 
1 98 
1 99 
CELL_TYPES 100 
1 
1 
1 
1 
1 
1 
1 
1 
1 
1 
1 
1 
1 
1 
1 
1 
1 
1 
1 
1 
1 
1 
1 
1 
1 
1 
1 
1 
1 
1 
1 
1 
1 
1 
1 
1 
1 
1 
1 
1 
1 
1 
1 
1 
1 
1 
1 
1 
1 
1 
1 
1 
1 
1 
1 
1 
1 
1 
1 
1 
1 
1 
1 
1 
1 
1 
1 
1 
1 
1 
1 
1 
1 
1 
1 
1 
1 
1 
1 
1 
1 
1 
1 
1 
1 
1 
1 
1 
1 
1 
1 
1 
1 
1 
1 
1 
1 
1 
1 
1 
POINT_DATA 100 
VECTORS X_GC float 
0.481505 -2.912075 0.000000 
0.464870 -2.823068 0.000000 
0.453744 -2.734687 0.000000 
0.452547 -2.633221 0.000000 
0.451283 -2.532649 0.000000 
0.450613 -2.432952 0.000000 
0.450398 -2.333016 0.000000 
0.450234 -2.233134 0.000000 
0.450102 -2.133272 0.000000 
0.450063 -2.033313 0.000000 
0.364858 -2.914508 0.000000 
0.358169 -2.826123 0.000000 
0.353623 -2.736562 0.000000 
0.352212 -2.634094 0.000000 
0.351011 -2.532897 0.000000 
0.350451 -2.433049 0.000000 
0.350265 -2.333064 0.000000 
0.350141 -2.233153 0.000000 
0.350061 -2.133278 0.000000 
0.350037 -2.033315 0.000000 
0.250879 -2.915616 0.000000 
0.253982 -2.827249 0.000000 
0.254328 -2.736194 0.000000 
0.252083 -2.633996 0.000000 
0.250794 -2.533024 0.000000 
0.250361 -2.433078 0.000000 
0.250180 -2.333064 0.000000 
0.250070 -2.233147 0.000000 
0.250027 -2.133272 0.000000 
0.250016 -2.033309 0.000000 
0.152728 -2.915999 0.000000 
0.152364 -2.827450 0.000000 
0.151727 -2.735257 0.000000 
0.151075 -2.633430 0.000000 
0.150606 -2.532773 0.000000 
0.150286 -2.432935 0.000000 
0.150149 -2.332982 0.000000 
0.150061 -2.233113 0.000000 
0.150026 -2.133255 0.000000 
0.150016 -2.033297 0.000000 
0.054472 -2.916177 0.000000 
0.050994 -2.827425 0.000000 
0.049488 -2.734461 0.000000 
0.050119 -2.632931 0.000000 
0.050309 -2.532522 0.000000 
0.050153 -2.432800 0.000000 
0.050088 -2.332908 0.000000 
0.050043 -2.233084 0.000000 
0.050020 -2.133241 0.000000 
0.050012 -2.033288 0.000000 
-0.054472 -2.916177 0.000000 
-0.050994 -2.827425 0.000000 
-0.049488 -2.734461 0.000000 
-0.050119 -2.632931 0.000000 
-0.050309 -2.532522 0.000000 
-0.050153 -2.432800 0.000000 
-0.050088 -2.332908 0.000000 
-0.050043 -2.233084 0.000000 
-0.050020 -2.133241 0.000000 
-0.050012 -2.033288 0.000000 
-0.152728 -2.915999 0.000000 
-0.152364 -2.827450 0.000000 
-0.151727 -2.735257 0.000000 
-0.151075 -2.633430 0.000000 
-0.150606 -2.532773 0.000000 
-0.150286 -2.432935 0.000000 
-0.150149 -2.332982 0.000000 
-0.150061 -2.233113 0.000000 
-0.150026 -2.133255 0.000000 
-0.150016 -2.033297 0.000000 
-0.250879 -2.915616 0.000000 
-0.253982 -2.827249 0.000000 
-0.254328 -2.736194 0.000000 
-0.252083 -2.633996 0.000000 
-0.250794 -2.533024 0.000000 
-0.250361 -2.433078 0.000000 
-0.250180 -2.333064 0.000000 
-0.250070 -2.233147 0.000000 
-0.250027 -2.133272 0.000000 
-0.250016 -2.033309 0.000000 
-0.364858 -2.914508 0.000000 
-0.358169 -2.826123 0.000000 
-0.353623 -2.736562 0.000000 
-0.352212 -2.634094 0.000000 
-0.351011 -2.532897 0.000000 
-0.350451 -2.433049 0.000000 
-0.350265 -2.333064 0.000000 
-0.350141 -2.233153 0.000000 
-0.350061 -2.133278 0.000000 
-0.350037 -2.033315 0.000000 
-0.481505 -2.912075 0.000000 
-0.464870 -2.823068 0.000000 
-0.453744 -2.734687 0.000000 
-0.452547 -2.633221 0.000000 
-0.451283 -2.532649 0.000000 
-0.450613 -2.432952 0.000000 
-0.450398 -2.333016 0.000000 
-0.450234 -2.233134 0.000000 
-0.450102 -2.133272 0.000000 
-0.450063 -2.033313 0.000000 
VECTORS X_EC float 
-0.259568 -0.186981 0.000000 
-0.043312 0.611423 0.000000 
0.101333 -0.581721 0.000000 
0.116889 0.048483 0.000000 
0.133318 0.690755 0.000000 
0.142027 -0.655145 0.000000 
0.144821 -0.004288 0.000000 
0.146964 0.647311 0.000000 
0.148670 -0.700832 0.000000 
0.149180 -0.050281 0.000000 
-0.743150 -0.154143 0.000000 
-0.656202 0.652666 0.000000 
-0.597096 -0.556413 0.000000 
-0.578759 0.060268 0.000000 
-0.563141 0.694111 0.000000 
-0.555864 -0.653840 0.000000 
-0.553451 -0.003640 0.000000 
-0.551836 0.647564 0.000000 
-0.550789 -0.700753 0.000000 
-0.550487 -0.050248 0.000000 
0.738568 -0.139178 0.000000 
0.698229 0.667865 0.000000 
0.693741 -0.561387 0.000000 
0.722921 0.058942 0.000000 
0.739679 0.695825 0.000000 
0.745312 -0.653444 0.000000 
0.747654 -0.003634 0.000000 
0.749094 0.647486 0.000000 
0.749645 -0.700832 0.000000 
0.749786 -0.050324 0.000000 
0.014537 -0.134016 0.000000 
0.019264 0.670569 0.000000 
0.027555 -0.574024 0.000000 
0.036031 0.051309 0.000000 
0.042117 0.692438 0.000000 
0.046276 -0.655377 0.000000 
0.048066 -0.004737 0.000000 
0.049206 0.647032 0.000000 
0.049661 -0.701057 0.000000 
0.049796 -0.050485 0.000000 
-0.708140 -0.131606 0.000000 
-0.662924 0.670233 0.000000 
-0.643350 -0.584783 0.000000 
-0.651541 0.044573 0.000000 
-0.654011 0.689050 0.000000 
-0.651988 -0.657200 0.000000 
-0.651140 -0.005738 0.000000 
-0.650555 0.646634 0.000000 
-0.650260 -0.701247 0.000000 
-0.650158 -0.050617 0.000000 
0.708140 -0.131606 0.000000 
0.662924 0.670233 0.000000 
0.643350 -0.584783 0.000000 
0.651541 0.044573 0.000000 
0.654011 0.689050 0.000000 
0.651988 -0.657200 0.000000 
0.651140 -0.005738 0.000000 
0.650555 0.646634 0.000000 
0.650260 -0.701247 0.000000 
0.650158 -0.050617 0.000000 
-0.014537 -0.134016 0.000000 
-0.019264 0.670569 0.000000 
-0.027555 -0.574024 0.000000 
-0.036031 0.051309 0.000000 
-0.042117 0.692438 0.000000 
-0.046276 -0.655377 0.000000 
-0.048066 -0.004737 0.000000 
-0.049206 0.647032 0.000000 
-0.049661 -0.701057 0.000000 
-0.049796 -0.050485 0.000000 
-0.738568 -0.139178 0.000000 
-0.698229 0.667865 0.000000 
-0.693741 -0.561387 0.000000 
-0.722921 0.058942 0.000000 
-0.739679 0.695825 0.000000 
-0.745312 -0.653444 0.000000 
-0.747654 -0.003634 0.000000 
-0.749094 0.647486 0.000000 
-0.749645 -0.700832 0.000000 
-0.749786 -0.050324 0.000000 
0.743150 -0.154143 0.000000 
0.656202 0.652666 0.000000 
0.597096 -0.556413 0.000000 
0.578759 0.060268 0.000000 
0.563141 0.694111 0.000000 
0.555864 -0.653840 0.000000 
0.553451 -0.003640 0.000000 
0.551836 0.647564 0.000000 
0.550789 -0.700753 0.000000 
0.550487 -0.050248 0.000000 
0.259568 -0.186981 0.000000 
0.043312 0.611423 0.000000 
-0.101333 -0.581721 0.000000 
-0.116889 0.048483 0.000000 
-0.133318 0.690755 0.000000 
-0.142027 -0.655145 0.000000 
-0.144821 -0.004288 0.000000 
-0.146964 0.647311 0.000000 
-0.148670 -0.700832 0.000000 
-0.149180 -0.050281 0.000000 
CELL_DATA 100 
SCALARS MASS float 
LOOKUP_TABLE default 
10.000000 
10.000000 
10.000000 
10.000000 
10.000000 
10.000000 
10.000000 
10.000000 
10.000000 
10.000000 
10.000000 
10.000000 
10.000000 
10.000000 
10.000000 
10.000000 
10.000000 
10.000000 
10.000000 
10.000000 
10.000000 
10.000000 
10.000000 
10.000000 
10.000000 
10.000000 
10.000000 
10.000000 
10.000000 
10.000000 
10.000000 
10.000000 
10.000000 
10.000000 
10.000000 
10.000000 
10.000000 
10.000000 
10.000000 
10.000000 
10.000000 
10.000000 
10.000000 
10.000000 
10.000000 
10.000000 
10.000000 
10.000000 
10.000000 
10.000000 
10.000000 
10.000000 
10.000000 
10.000000 
10.000000 
10.000000 
10.000000 
10.000000 
10.000000 
10.000000 
10.000000 
10.000000 
10.000000 
10.000000 
10.000000 
10.000000 
10.000000 
10.000000 
10.000000 
10.000000 
10.000000 
10.000000 
10.000000 
10.000000 
10.000000 
10.000000 
10.000000 
10.000000 
10.000000 
10.000000 
10.000000 
10.000000 
10.000000 
10.000000 
10.000000 
10.000000 
10.000000 
10.000000 
10.000000 
10.000000 
10.000000 
10.000000 
10.000000 
10.000000 
10.000000 
10.000000 
10.000000 
10.000000 
10.000000 
10.000000 
SCALARS MASS float 
LOOKUP_TABLE default 
10.000000 
10.000000 
10.000000 
10.000000 
10.000000 
10.000000 
10.000000 
10.000000 
10.000000 
10.000000 
10.000000 
10.000000 
10.000000 
10.000000 
10.000000 
10.000000 
10.000000 
10.000000 
10.000000 
10.000000 
10.000000 
10.000000 
10.000000 
10.000000 
10.000000 
10.000000 
10.000000 
10.000000 
10.000000 
10.000000 
10.000000 
10.000000 
10.000000 
10.000000 
10.000000 
10.000000 
10.000000 
10.000000 
10.000000 
10.000000 
10.000000 
10.000000 
10.000000 
10.000000 
10.000000 
10.000000 
10.000000 
10.000000 
10.000000 
10.000000 
10.000000 
10.000000 
10.000000 
10.000000 
10.000000 
10.000000 
10.000000 
10.000000 
10.000000 
10.000000 
10.000000 
10.000000 
10.000000 
10.000000 
10.000000 
10.000000 
10.000000 
10.000000 
10.000000 
10.000000 
10.000000 
10.000000 
10.000000 
10.000000 
10.000000 
10.000000 
10.000000 
10.000000 
10.000000 
10.000000 
10.000000 
10.000000 
10.000000 
10.000000 
10.000000 
10.000000 
10.000000 
10.000000 
10.000000 
10.000000 
10.000000 
10.000000 
10.000000 
10.000000 
10.000000 
10.000000 
10.000000 
10.000000 
10.000000 
10.000000 
SCALARS DENSITY float 
LOOKUP_TABLE default 
51775.586593 
663.709249 
1299.828581 
996.749138 
1003.375895 
1008.291371 
1007.989712 
1003.291652 
1002.232416 
1000.761734 
51567.022187 
679.877589 
1339.386927 
983.197651 
999.772839 
1005.513346 
1007.017131 
1003.004411 
1002.058500 
1000.680842 
56112.823756 
638.335352 
1294.609185 
988.637270 
1002.623610 
1005.724407 
1006.922277 
1003.193085 
1002.135660 
1000.703960 
468428.871692 
1106.474066 
1174.095808 
965.040076 
1017.074130 
1017.612772 
1012.843414 
1006.169247 
1003.388373 
1001.293746 
110703.816692 
702.811402 
1224.084840 
1008.298760 
1018.044338 
1010.784155 
1009.187306 
1004.569802 
1002.979247 
1000.954015 
110703.816692 
702.811402 
1224.084840 
1008.298760 
1018.044338 
1010.784155 
1009.187306 
1004.569802 
1002.979247 
1000.954015 
468428.871692 
1106.474066 
1174.095808 
965.040076 
1017.074130 
1017.612772 
1012.843414 
1006.169247 
1003.388373 
1001.293746 
56112.823756 
638.335352 
1294.609185 
988.637270 
1002.623610 
1005.724407 
1006.922277 
1003.193085 
1002.135660 
1000.703960 
51567.022187 
679.877589 
1339.386927 
983.197651 
999.772839 
1005.513346 
1007.017131 
1003.004411 
1002.058500 
1000.680842 
51775.586593 
663.709249 
1299.828581 
996.749138 
1003.375895 
1008.291371 
1007.989712 
1003.291652 
1002.232416 
1000.761734 
SCALARS ELEM_i float 
LOOKUP_TABLE default 
81 
82 
82 
83 
84 
84 
85 
86 
86 
87 
108 
109 
109 
110 
111 
111 
112 
113 
113 
114 
108 
109 
109 
110 
111 
111 
112 
113 
113 
114 
135 
136 
136 
137 
138 
138 
139 
140 
140 
141 
162 
163 
163 
164 
165 
165 
166 
167 
167 
168 
162 
163 
163 
164 
165 
165 
166 
167 
167 
168 
189 
190 
190 
191 
192 
192 
193 
194 
194 
195 
216 
217 
217 
218 
219 
219 
220 
221 
221 
222 
216 
217 
217 
218 
219 
219 
220 
221 
221 
222 
243 
244 
244 
245 
246 
246 
247 
248 
248 
249 
VECTORS VELOCITY float 
4.400640 -9.090331 0.000000 
-0.503235 0.244163 0.000000 
1.035064 -8.350968 0.000000 
1.119426 -6.465629 0.000000 
0.014773 -6.960183 0.000000 
0.099319 -6.975157 0.000000 
0.128945 -6.870770 0.000000 
0.083645 -6.907569 0.000000 
0.043105 -6.923046 0.000000 
0.027240 -6.934203 0.000000 
0.974796 -11.442908 0.000000 
-0.179750 -2.142615 0.000000 
1.048914 -9.334745 0.000000 
0.659568 -6.862522 0.000000 
0.024756 -7.101294 0.000000 
0.072743 -7.038002 0.000000 
0.064546 -6.909172 0.000000 
0.032890 -6.925167 0.000000 
0.018443 -6.928906 0.000000 
0.011983 -6.937392 0.000000 
-0.302406 -11.399730 0.000000 
2.066236 -2.071152 0.000000 
1.345159 -8.833379 0.000000 
0.232976 -6.839748 0.000000 
0.121801 -7.267882 0.000000 
0.139627 -7.057020 0.000000 
0.063387 -6.910089 0.000000 
0.014703 -6.926074 0.000000 
0.007530 -6.925416 0.000000 
0.004943 -6.934085 0.000000 
0.509614 -11.373165 0.000000 
0.328669 -2.016075 0.000000 
0.093981 -8.543703 0.000000 
0.151783 -6.804511 0.000000 
0.192030 -7.245665 0.000000 
0.102931 -6.992398 0.000000 
0.050994 -6.877894 0.000000 
0.019140 -6.920413 0.000000 
0.011981 -6.917446 0.000000 
0.007367 -6.927994 0.000000 
0.898190 -11.343857 0.000000 
-1.172944 -1.979807 0.000000 
-0.671554 -8.380089 0.000000 
0.105058 -6.775984 0.000000 
0.154514 -7.195614 0.000000 
0.037570 -6.930371 0.000000 
0.025970 -6.848593 0.000000 
0.017111 -6.915130 0.000000 
0.011643 -6.910841 0.000000 
0.007011 -6.923058 0.000000 
-0.898190 -11.343857 0.000000 
1.172944 -1.979807 0.000000 
0.671554 -8.380089 0.000000 
-0.105058 -6.775984 0.000000 
-0.154514 -7.195614 0.000000 
-0.037570 -6.930371 0.000000 
-0.025970 -6.848593 0.000000 
-0.017111 -6.915130 0.000000 
-0.011643 -6.910841 0.000000 
-0.007011 -6.923058 0.000000 
-0.509614 -11.373165 0.000000 
-0.328669 -2.016075 0.000000 
-0.093981 -8.543703 0.000000 
-0.151783 -6.804511 0.000000 
-0.192030 -7.245665 0.000000 
-0.102931 -6.992398 0.000000 
-0.050994 -6.877894 0.000000 
-0.019140 -6.920413 0.000000 
-0.011981 -6.917446 0.000000 
-0.007367 -6.927994 0.000000 
0.302406 -11.399730 0.000000 
-2.066236 -2.071152 0.000000 
-1.345159 -8.833379 0.000000 
-0.232976 -6.839748 0.000000 
-0.121801 -7.267882 0.000000 
-0.139627 -7.057020 0.000000 
-0.063387 -6.910089 0.000000 
-0.014703 -6.926074 0.000000 
-0.007530 -6.925416 0.000000 
-0.004943 -6.934085 0.000000 
-0.974796 -11.442908 0.000000 
0.179750 -2.142615 0.000000 
-1.048914 -9.334745 0.000000 
-0.659568 -6.862522 0.000000 
-0.024756 -7.101294 0.000000 
-0.072743 -7.038002 0.000000 
-0.064546 -6.909172 0.000000 
-0.032890 -6.925167 0.000000 
-0.018443 -6.928906 0.000000 
-0.011983 -6.937392 0.000000 
-4.400640 -9.090331 0.000000 
0.503235 0.244163 0.000000 
-1.035064 -8.350968 0.000000 
-1.119426 -6.465629 0.000000 
-0.014773 -6.960183 0.000000 
-0.099319 -6.975157 0.000000 
-0.128945 -6.870770 0.000000 
-0.083645 -6.907569 0.000000 
-0.043105 -6.923046 0.000000 
-0.027240 -6.934203 0.000000 
TENSORS STRESS float 
-187.633978 -10.947715 0.000000 
0.000000 -268.360173 0.000000 
0.000000 0.000000 0.000000 

1552.384918 -1304.215975 0.000000 
0.000000 263.500386 0.000000 
0.000000 0.000000 0.000000 

-1553.637957 -233.020374 0.000000 
0.000000 -1954.739315 0.000000 
0.000000 0.000000 0.000000 

447.991592 16.258782 0.000000 
0.000000 530.633564 0.000000 
0.000000 0.000000 0.000000 

14.496633 -36.460218 0.000000 
0.000000 -24.550862 0.000000 
0.000000 0.000000 0.000000 

-22.098218 -34.154608 0.000000 
0.000000 -49.337345 0.000000 
0.000000 0.000000 0.000000 

-3.958019 -10.743313 0.000000 
0.000000 -18.468938 0.000000 
0.000000 0.000000 0.000000 

-19.032894 -6.328901 0.000000 
0.000000 -31.772984 0.000000 
0.000000 0.000000 0.000000 

-19.858000 -5.119751 0.000000 
0.000000 -27.878517 0.000000 
0.000000 0.000000 0.000000 

-2.914153 -1.388588 0.000000 
0.000000 -5.761287 0.000000 
0.000000 0.000000 0.000000 

-202.416164 -3.956946 0.000000 
0.000000 -283.444495 0.000000 
0.000000 0.000000 0.000000 

703.919471 -517.854763 0.000000 
0.000000 -400.911216 0.000000 
0.000000 0.000000 0.000000 

-1711.304208 -139.378644 0.000000 
0.000000 -2033.957752 0.000000 
0.000000 0.000000 0.000000 

561.647462 -77.204002 0.000000 
0.000000 713.301760 0.000000 
0.000000 0.000000 0.000000 

48.186845 -41.648995 0.000000 
0.000000 15.311630 0.000000 
0.000000 0.000000 0.000000 

0.614831 -29.891089 0.000000 
0.000000 -20.167204 0.000000 
0.000000 0.000000 0.000000 

0.964470 -9.910473 0.000000 
0.000000 -11.626479 0.000000 
0.000000 0.000000 0.000000 

-16.438234 -5.382239 0.000000 
0.000000 -29.072137 0.000000 
0.000000 0.000000 0.000000 

-17.698311 -4.007946 0.000000 
0.000000 -25.573474 0.000000 
0.000000 0.000000 0.000000 

-1.934957 -1.226163 0.000000 
0.000000 -4.824305 0.000000 
0.000000 0.000000 0.000000 

-193.177777 3.189991 0.000000 
0.000000 -269.310887 0.000000 
0.000000 0.000000 0.000000 

1429.139669 236.696091 0.000000 
0.000000 400.060315 0.000000 
0.000000 0.000000 0.000000 

-1539.687311 2.442622 0.000000 
0.000000 -1821.128572 0.000000 
0.000000 0.000000 0.000000 

519.042248 -125.027842 0.000000 
0.000000 660.836546 0.000000 
0.000000 0.000000 0.000000 

45.041141 -31.357719 0.000000 
0.000000 11.591502 0.000000 
0.000000 0.000000 0.000000 

8.194794 -20.273774 0.000000 
0.000000 -10.897937 0.000000 
0.000000 0.000000 0.000000 

4.445763 -7.354566 0.000000 
0.000000 -7.372696 0.000000 
0.000000 0.000000 0.000000 

-17.388779 -3.052298 0.000000 
0.000000 -30.231957 0.000000 
0.000000 0.000000 0.000000 

-18.088942 -2.347889 0.000000 
0.000000 -26.050512 0.000000 
0.000000 0.000000 0.000000 

-1.965355 -0.659319 0.000000 
0.000000 -4.861378 0.000000 
0.000000 0.000000 0.000000 

-36.844226 0.052029 0.000000 
0.000000 -43.605441 0.000000 
0.000000 0.000000 0.000000 

-1072.602373 -30.314782 0.000000 
0.000000 -1194.936947 0.000000 
0.000000 0.000000 0.000000 

-589.708409 -84.735238 0.000000 
0.000000 -1023.619780 0.000000 
0.000000 0.000000 0.000000 

955.241763 -96.008547 0.000000 
0.000000 973.302421 0.000000 
0.000000 0.000000 0.000000 

-22.950086 -38.223478 0.000000 
0.000000 -61.860378 0.000000 
0.000000 0.000000 0.000000 

-55.325721 -21.154127 0.000000 
0.000000 -71.686387 0.000000 
0.000000 0.000000 0.000000 

-35.976517 -11.320317 0.000000 
0.000000 -45.247302 0.000000 
0.000000 0.000000 0.000000 

-45.165965 -4.516728 0.000000 
0.000000 -55.287542 0.000000 
0.000000 0.000000 0.000000 

-32.342759 -2.525027 0.000000 
0.000000 -39.416240 0.000000 
0.000000 0.000000 0.000000 

-9.066713 -0.945753 0.000000 
0.000000 -10.958521 0.000000 
0.000000 0.000000 0.000000 

-116.772477 -0.963366 0.000000 
0.000000 -152.786821 0.000000 
0.000000 0.000000 0.000000 

1030.629103 -206.127049 0.000000 
0.000000 483.710036 0.000000 
0.000000 0.000000 0.000000 

-1190.276032 -57.082376 0.000000 
0.000000 -1443.954873 0.000000 
0.000000 0.000000 0.000000 

386.285417 16.168181 0.000000 
0.000000 458.447806 0.000000 
0.000000 0.000000 0.000000 

1.917598 -5.093021 0.000000 
0.000000 -57.784656 0.000000 
0.000000 0.000000 0.000000 

7.368992 -4.369462 0.000000 
0.000000 -29.345196 0.000000 
0.000000 0.000000 0.000000 

1.381455 -3.848723 0.000000 
0.000000 -19.409978 0.000000 
0.000000 0.000000 0.000000 

-27.424607 -1.329421 0.000000 
0.000000 -42.888666 0.000000 
0.000000 0.000000 0.000000 

-26.906263 -0.972669 0.000000 
0.000000 -36.500957 0.000000 
0.000000 0.000000 0.000000 

-3.913550 -0.241160 0.000000 
0.000000 -7.002826 0.000000 
0.000000 0.000000 0.000000 

-116.772477 0.963366 0.000000 
0.000000 -152.786821 0.000000 
0.000000 0.000000 0.000000 

1030.629103 206.127049 0.000000 
0.000000 483.710036 0.000000 
0.000000 0.000000 0.000000 

-1190.276032 57.082376 0.000000 
0.000000 -1443.954873 0.000000 
0.000000 0.000000 0.000000 

386.285417 -16.168181 0.000000 
0.000000 458.447806 0.000000 
0.000000 0.000000 0.000000 

1.917598 5.093021 0.000000 
0.000000 -57.784656 0.000000 
0.000000 0.000000 0.000000 

7.368992 4.369462 0.000000 
0.000000 -29.345196 0.000000 
0.000000 0.000000 0.000000 

1.381455 3.848723 0.000000 
0.000000 -19.409978 0.000000 
0.000000 0.000000 0.000000 

-27.424607 1.329421 0.000000 
0.000000 -42.888666 0.000000 
0.000000 0.000000 0.000000 

-26.906263 0.972669 0.000000 
0.000000 -36.500957 0.000000 
0.000000 0.000000 0.000000 

-3.913550 0.241160 0.000000 
0.000000 -7.002826 0.000000 
0.000000 0.000000 0.000000 

-36.844226 -0.052029 0.000000 
0.000000 -43.605441 0.000000 
0.000000 0.000000 0.000000 

-1072.602373 30.314782 0.000000 
0.000000 -1194.936947 0.000000 
0.000000 0.000000 0.000000 

-589.708409 84.735238 0.000000 
0.000000 -1023.619780 0.000000 
0.000000 0.000000 0.000000 

955.241763 96.008547 0.000000 
0.000000 973.302421 0.000000 
0.000000 0.000000 0.000000 

-22.950086 38.223478 0.000000 
0.000000 -61.860378 0.000000 
0.000000 0.000000 0.000000 

-55.325721 21.154127 0.000000 
0.000000 -71.686387 0.000000 
0.000000 0.000000 0.000000 

-35.976517 11.320317 0.000000 
0.000000 -45.247302 0.000000 
0.000000 0.000000 0.000000 

-45.165965 4.516728 0.000000 
0.000000 -55.287542 0.000000 
0.000000 0.000000 0.000000 

-32.342759 2.525027 0.000000 
0.000000 -39.416240 0.000000 
0.000000 0.000000 0.000000 

-9.066713 0.945753 0.000000 
0.000000 -10.958521 0.000000 
0.000000 0.000000 0.000000 

-193.177777 -3.189991 0.000000 
0.000000 -269.310887 0.000000 
0.000000 0.000000 0.000000 

1429.139669 -236.696091 0.000000 
0.000000 400.060315 0.000000 
0.000000 0.000000 0.000000 

-1539.687311 -2.442622 0.000000 
0.000000 -1821.128572 0.000000 
0.000000 0.000000 0.000000 

519.042248 125.027842 0.000000 
0.000000 660.836546 0.000000 
0.000000 0.000000 0.000000 

45.041141 31.357719 0.000000 
0.000000 11.591502 0.000000 
0.000000 0.000000 0.000000 

8.194794 20.273774 0.000000 
0.000000 -10.897937 0.000000 
0.000000 0.000000 0.000000 

4.445763 7.354566 0.000000 
0.000000 -7.372696 0.000000 
0.000000 0.000000 0.000000 

-17.388779 3.052298 0.000000 
0.000000 -30.231957 0.000000 
0.000000 0.000000 0.000000 

-18.088942 2.347889 0.000000 
0.000000 -26.050512 0.000000 
0.000000 0.000000 0.000000 

-1.965355 0.659319 0.000000 
0.000000 -4.861378 0.000000 
0.000000 0.000000 0.000000 

-202.416164 3.956946 0.000000 
0.000000 -283.444495 0.000000 
0.000000 0.000000 0.000000 

703.919471 517.854763 0.000000 
0.000000 -400.911216 0.000000 
0.000000 0.000000 0.000000 

-1711.304208 139.378644 0.000000 
0.000000 -2033.957752 0.000000 
0.000000 0.000000 0.000000 

561.647462 77.204002 0.000000 
0.000000 713.301760 0.000000 
0.000000 0.000000 0.000000 

48.186845 41.648995 0.000000 
0.000000 15.311630 0.000000 
0.000000 0.000000 0.000000 

0.614831 29.891089 0.000000 
0.000000 -20.167204 0.000000 
0.000000 0.000000 0.000000 

0.964470 9.910473 0.000000 
0.000000 -11.626479 0.000000 
0.000000 0.000000 0.000000 

-16.438234 5.382239 0.000000 
0.000000 -29.072137 0.000000 
0.000000 0.000000 0.000000 

-17.698311 4.007946 0.000000 
0.000000 -25.573474 0.000000 
0.000000 0.000000 0.000000 

-1.934957 1.226163 0.000000 
0.000000 -4.824305 0.000000 
0.000000 0.000000 0.000000 

-187.633978 10.947715 0.000000 
0.000000 -268.360173 0.000000 
0.000000 0.000000 0.000000 

1552.384918 1304.215975 0.000000 
0.000000 263.500386 0.000000 
0.000000 0.000000 0.000000 

-1553.637957 233.020374 0.000000 
0.000000 -1954.739315 0.000000 
0.000000 0.000000 0.000000 

447.991592 -16.258782 0.000000 
0.000000 530.633564 0.000000 
0.000000 0.000000 0.000000 

14.496633 36.460218 0.000000 
0.000000 -24.550862 0.000000 
0.000000 0.000000 0.000000 

-22.098218 34.154608 0.000000 
0.000000 -49.337345 0.000000 
0.000000 0.000000 0.000000 

-3.958019 10.743313 0.000000 
0.000000 -18.468938 0.000000 
0.000000 0.000000 0.000000 

-19.032894 6.328901 0.000000 
0.000000 -31.772984 0.000000 
0.000000 0.000000 0.000000 

-19.858000 5.119751 0.000000 
0.000000 -27.878517 0.000000 
0.000000 0.000000 0.000000 

-2.914153 1.388588 0.000000 
0.000000 -5.761287 0.000000 
0.000000 0.000000 0.000000 

TENSORS STRAIN float 
0.131856 -0.082190 0.000000 
0.000000 -0.474192 0.000000 
0.000000 0.000000 0.000000 

0.070758 -0.125515 0.000000 
0.000000 -0.053282 0.000000 
0.000000 0.000000 0.000000 

0.004737 -0.043919 0.000000 
0.000000 -0.070861 0.000000 
0.000000 0.000000 0.000000 

0.001100 0.002350 0.000000 
0.000000 0.013044 0.000000 
0.000000 0.000000 0.000000 

0.002767 -0.005305 0.000000 
0.000000 -0.002914 0.000000 
0.000000 0.000000 0.000000 

0.001469 -0.004993 0.000000 
0.000000 -0.002513 0.000000 
0.000000 0.000000 0.000000 

0.000897 -0.001570 0.000000 
0.000000 -0.001224 0.000000 
0.000000 0.000000 0.000000 

0.000557 -0.000921 0.000000 
0.000000 -0.001296 0.000000 
0.000000 0.000000 0.000000 

0.000236 -0.000744 0.000000 
0.000000 -0.000930 0.000000 
0.000000 0.000000 0.000000 

0.000144 -0.000201 0.000000 
0.000000 -0.000270 0.000000 
0.000000 0.000000 0.000000 

0.121289 -0.029587 0.000000 
0.000000 -0.484578 0.000000 
0.000000 0.000000 0.000000 

0.055952 -0.051051 0.000000 
0.000000 -0.052965 0.000000 
0.000000 0.000000 0.000000 

-0.005037 -0.027069 0.000000 
0.000000 -0.067700 0.000000 
0.000000 0.000000 0.000000 

-0.001722 -0.011006 0.000000 
0.000000 0.019898 0.000000 
0.000000 0.000000 0.000000 

0.002843 -0.006038 0.000000 
0.000000 -0.001923 0.000000 
0.000000 0.000000 0.000000 

0.001372 -0.004358 0.000000 
0.000000 -0.001658 0.000000 
0.000000 0.000000 0.000000 

0.000841 -0.001447 0.000000 
0.000000 -0.000997 0.000000 
0.000000 0.000000 0.000000 

0.000588 -0.000783 0.000000 
0.000000 -0.001250 0.000000 
0.000000 0.000000 0.000000 

0.000258 -0.000582 0.000000 
0.000000 -0.000886 0.000000 
0.000000 0.000000 0.000000 

0.000161 -0.000178 0.000000 
0.000000 -0.000259 0.000000 
0.000000 0.000000 0.000000 

0.121574 0.025955 0.000000 
0.000000 -0.497872 0.000000 
0.000000 0.000000 0.000000 

0.056090 0.021908 0.000000 
0.000000 -0.039160 0.000000 
0.000000 0.000000 0.000000 

-0.005128 0.000459 0.000000 
0.000000 -0.057960 0.000000 
0.000000 0.000000 0.000000 

-0.001706 -0.017923 0.000000 
0.000000 0.018620 0.000000 
0.000000 0.000000 0.000000 

0.002843 -0.004559 0.000000 
0.000000 -0.002020 0.000000 
0.000000 0.000000 0.000000 

0.001372 -0.002957 0.000000 
0.000000 -0.001412 0.000000 
0.000000 0.000000 0.000000 

0.000841 -0.001074 0.000000 
0.000000 -0.000884 0.000000 
0.000000 0.000000 0.000000 

0.000588 -0.000444 0.000000 
0.000000 -0.001280 0.000000 
0.000000 0.000000 0.000000 

0.000258 -0.000341 0.000000 
0.000000 -0.000899 0.000000 
0.000000 0.000000 0.000000 

0.000161 -0.000096 0.000000 
0.000000 -0.000260 0.000000 
0.000000 0.000000 0.000000 

-0.043598 0.003534 0.000000 
0.000000 -0.502834 0.000000 
0.000000 0.000000 0.000000 

-0.008376 -0.004864 0.000000 
0.000000 -0.028004 0.000000 
0.000000 0.000000 0.000000 

0.023202 -0.014426 0.000000 
0.000000 -0.050668 0.000000 
0.000000 0.000000 0.000000 

0.012230 -0.013435 0.000000 
0.000000 0.014757 0.000000 
0.000000 0.000000 0.000000 

0.002244 -0.005637 0.000000 
0.000000 -0.003495 0.000000 
0.000000 0.000000 0.000000 

0.000270 -0.003121 0.000000 
0.000000 -0.002144 0.000000 
0.000000 0.000000 0.000000 

0.000084 -0.001663 0.000000 
0.000000 -0.001277 0.000000 
0.000000 0.000000 0.000000 

0.000006 -0.000659 0.000000 
0.000000 -0.001471 0.000000 
0.000000 0.000000 0.000000 

-0.000007 -0.000367 0.000000 
0.000000 -0.001037 0.000000 
0.000000 0.000000 0.000000 

-0.000008 -0.000137 0.000000 
0.000000 -0.000283 0.000000 
0.000000 0.000000 0.000000 

0.072703 -0.015464 0.000000 
0.000000 -0.505401 0.000000 
0.000000 0.000000 0.000000 

0.035584 -0.021006 0.000000 
0.000000 -0.020151 0.000000 
0.000000 0.000000 0.000000 

-0.000865 -0.010132 0.000000 
0.000000 -0.045891 0.000000 
0.000000 0.000000 0.000000 

0.000900 0.002364 0.000000 
0.000000 0.011450 0.000000 
0.000000 0.000000 0.000000 

0.003994 -0.000752 0.000000 
0.000000 -0.004819 0.000000 