# vtk DataFile Version 3.0 
vtk output 
ASCII 
DATASET UNSTRUCTURED_GRID 
POINTS 100 float 
0.482832 -2.914313 0.000000 
0.465515 -2.826942 0.000000 
0.454697 -2.738763 0.000000 
0.453167 -2.637738 0.000000 
0.451404 -2.537589 0.000000 
0.450698 -2.437825 0.000000 
0.450464 -2.337867 0.000000 
0.450285 -2.237980 0.000000 
0.450137 -2.138113 0.000000 
0.450087 -2.038161 0.000000 
0.365573 -2.917229 0.000000 
0.358679 -2.830707 0.000000 
0.354310 -2.741024 0.000000 
0.352669 -2.638804 0.000000 
0.351134 -2.537915 0.000000 
0.350532 -2.437964 0.000000 
0.350320 -2.337936 0.000000 
0.350177 -2.238006 0.000000 
0.350084 -2.138122 0.000000 
0.350053 -2.038165 0.000000 
0.251351 -2.918375 0.000000 
0.254618 -2.831963 0.000000 
0.254744 -2.740744 0.000000 
0.252330 -2.638797 0.000000 
0.250938 -2.538136 0.000000 
0.250461 -2.438031 0.000000 
0.250240 -2.337950 0.000000 
0.250097 -2.238004 0.000000 
0.250041 -2.138116 0.000000 
0.250026 -2.038157 0.000000 
0.152953 -2.918699 0.000000 
0.152579 -2.832119 0.000000 
0.151910 -2.739803 0.000000 
0.151222 -2.638235 0.000000 
0.150716 -2.537874 0.000000 
0.150353 -2.437868 0.000000 
0.150186 -2.337856 0.000000 
0.150078 -2.237966 0.000000 
0.150037 -2.138093 0.000000 
0.150023 -2.038141 0.000000 
0.054494 -2.918815 0.000000 
0.050849 -2.832024 0.000000 
0.049507 -2.738982 0.000000 
0.050182 -2.637721 0.000000 
0.050356 -2.537595 0.000000 
0.050173 -2.437709 0.000000 
0.050098 -2.337768 0.000000 
0.050049 -2.237932 0.000000 
0.050026 -2.138075 0.000000 
0.050016 -2.038127 0.000000 
-0.054494 -2.918815 0.000000 
-0.050849 -2.832024 0.000000 
-0.049507 -2.738982 0.000000 
-0.050182 -2.637721 0.000000 
-0.050356 -2.537595 0.000000 
-0.050173 -2.437709 0.000000 
-0.050098 -2.337768 0.000000 
-0.050049 -2.237932 0.000000 
-0.050026 -2.138075 0.000000 
-0.050016 -2.038127 0.000000 
-0.152953 -2.918699 0.000000 
-0.152579 -2.832119 0.000000 
-0.151910 -2.739803 0.000000 
-0.151222 -2.638235 0.000000 
-0.150716 -2.537874 0.000000 
-0.150353 -2.437868 0.000000 
-0.150186 -2.337856 0.000000 
-0.150078 -2.237966 0.000000 
-0.150037 -2.138093 0.000000 
-0.150023 -2.038141 0.000000 
-0.251351 -2.918375 0.000000 
-0.254618 -2.831963 0.000000 
-0.254744 -2.740744 0.000000 
-0.252330 -2.638797 0.000000 
-0.250938 -2.538136 0.000000 
-0.250461 -2.438031 0.000000 
-0.250240 -2.337950 0.000000 
-0.250097 -2.238004 0.000000 
-0.250041 -2.138116 0.000000 
-0.250026 -2.038157 0.000000 
-0.365573 -2.917229 0.000000 
-0.358679 -2.830707 0.000000 
-0.354310 -2.741024 0.000000 
-0.352669 -2.638804 0.000000 
-0.351134 -2.537915 0.000000 
-0.350532 -2.437964 0.000000 
-0.350320 -2.337936 0.000000 
-0.350177 -2.238006 0.000000 
-0.350084 -2.138122 0.000000 
-0.350053 -2.038165 0.000000 
-0.482832 -2.914313 0.000000 
-0.465515 -2.826942 0.000000 
-0.454697 -2.738763 0.000000 
-0.453167 -2.637738 0.000000 
-0.451404 -2.537589 0.000000 
-0.450698 -2.437825 0.000000 
-0.450464 -2.337867 0.000000 
-0.450285 -2.237980 0.000000 
-0.450137 -2.138113 0.000000 
-0.450087 -2.038161 0.000000 
CELLS 100 200 
1 0 
1 1 
1 2 
1 3 
1 4 
1 5 
1 6 
1 7 
1 8 
1 9 
1 10 
1 11 
1 12 
1 13 
1 14 
1 15 
1 16 
1 17 
1 18 
1 19 
1 20 
1 21 
1 22 
1 23 
1 24 
1 25 
1 26 
1 27 
1 28 
1 29 
1 30 
1 31 
1 32 
1 33 
1 34 
1 35 
1 36 
1 37 
1 38 
1 39 
1 40 
1 41 
1 42 
1 43 
1 44 
1 45 
1 46 
1 47 
1 48 
1 49 
1 50 
1 51 
1 52 
1 53 
1 54 
1 55 
1 56 
1 57 
1 58 
1 59 
1 60 
1 61 
1 62 
1 63 
1 64 
1 65 
1 66 
1 67 
1 68 
1 69 
1 70 
1 71 
1 72 
1 73 
1 74 
1 75 
1 76 
1 77 
1 78 
1 79 
1 80 
1 81 
1 82 
1 83 
1 84 
1 85 
1 86 
1 87 
1 88 
1 89 
1 90 
1 91 
1 92 
1 93 
1 94 
1 95 
1 96 
1 97 
1 98 
1 99 
CELL_TYPES 100 
1 
1 
1 
1 
1 
1 
1 
1 
1 
1 
1 
1 
1 
1 
1 
1 
1 
1 
1 
1 
1 
1 
1 
1 
1 
1 
1 
1 
1 
1 
1 
1 
1 
1 
1 
1 
1 
1 
1 
1 
1 
1 
1 
1 
1 
1 
1 
1 
1 
1 
1 
1 
1 
1 
1 
1 
1 
1 
1 
1 
1 
1 
1 
1 
1 
1 
1 
1 
1 
1 
1 
1 
1 
1 
1 
1 
1 
1 
1 
1 
1 
1 
1 
1 
1 
1 
1 
1 
1 
1 
1 
1 
1 
1 
1 
1 
1 
1 
1 
1 
POINT_DATA 100 
VECTORS X_GC float 
0.482832 -2.914313 0.000000 
0.465515 -2.826942 0.000000 
0.454697 -2.738763 0.000000 
0.453167 -2.637738 0.000000 
0.451404 -2.537589 0.000000 
0.450698 -2.437825 0.000000 
0.450464 -2.337867 0.000000 
0.450285 -2.237980 0.000000 
0.450137 -2.138113 0.000000 
0.450087 -2.038161 0.000000 
0.365573 -2.917229 0.000000 
0.358679 -2.830707 0.000000 
0.354310 -2.741024 0.000000 
0.352669 -2.638804 0.000000 
0.351134 -2.537915 0.000000 
0.350532 -2.437964 0.000000 
0.350320 -2.337936 0.000000 
0.350177 -2.238006 0.000000 
0.350084 -2.138122 0.000000 
0.350053 -2.038165 0.000000 
0.251351 -2.918375 0.000000 
0.254618 -2.831963 0.000000 
0.254744 -2.740744 0.000000 
0.252330 -2.638797 0.000000 
0.250938 -2.538136 0.000000 
0.250461 -2.438031 0.000000 
0.250240 -2.337950 0.000000 
0.250097 -2.238004 0.000000 
0.250041 -2.138116 0.000000 
0.250026 -2.038157 0.000000 
0.152953 -2.918699 0.000000 
0.152579 -2.832119 0.000000 
0.151910 -2.739803 0.000000 
0.151222 -2.638235 0.000000 
0.150716 -2.537874 0.000000 
0.150353 -2.437868 0.000000 
0.150186 -2.337856 0.000000 
0.150078 -2.237966 0.000000 
0.150037 -2.138093 0.000000 
0.150023 -2.038141 0.000000 
0.054494 -2.918815 0.000000 
0.050849 -2.832024 0.000000 
0.049507 -2.738982 0.000000 
0.050182 -2.637721 0.000000 
0.050356 -2.537595 0.000000 
0.050173 -2.437709 0.000000 
0.050098 -2.337768 0.000000 
0.050049 -2.237932 0.000000 
0.050026 -2.138075 0.000000 
0.050016 -2.038127 0.000000 
-0.054494 -2.918815 0.000000 
-0.050849 -2.832024 0.000000 
-0.049507 -2.738982 0.000000 
-0.050182 -2.637721 0.000000 
-0.050356 -2.537595 0.000000 
-0.050173 -2.437709 0.000000 
-0.050098 -2.337768 0.000000 
-0.050049 -2.237932 0.000000 
-0.050026 -2.138075 0.000000 
-0.050016 -2.038127 0.000000 
-0.152953 -2.918699 0.000000 
-0.152579 -2.832119 0.000000 
-0.151910 -2.739803 0.000000 
-0.151222 -2.638235 0.000000 
-0.150716 -2.537874 0.000000 
-0.150353 -2.437868 0.000000 
-0.150186 -2.337856 0.000000 
-0.150078 -2.237966 0.000000 
-0.150037 -2.138093 0.000000 
-0.150023 -2.038141 0.000000 
-0.251351 -2.918375 0.000000 
-0.254618 -2.831963 0.000000 
-0.254744 -2.740744 0.000000 
-0.252330 -2.638797 0.000000 
-0.250938 -2.538136 0.000000 
-0.250461 -2.438031 0.000000 
-0.250240 -2.337950 0.000000 
-0.250097 -2.238004 0.000000 
-0.250041 -2.138116 0.000000 
-0.250026 -2.038157 0.000000 
-0.365573 -2.917229 0.000000 
-0.358679 -2.830707 0.000000 
-0.354310 -2.741024 0.000000 
-0.352669 -2.638804 0.000000 
-0.351134 -2.537915 0.000000 
-0.350532 -2.437964 0.000000 
-0.350320 -2.337936 0.000000 
-0.350177 -2.238006 0.000000 
-0.350084 -2.138122 0.000000 
-0.350053 -2.038165 0.000000 
-0.482832 -2.914313 0.000000 
-0.465515 -2.826942 0.000000 
-0.454697 -2.738763 0.000000 
-0.453167 -2.637738 0.000000 
-0.451404 -2.537589 0.000000 
-0.450698 -2.437825 0.000000 
-0.450464 -2.337867 0.000000 
-0.450285 -2.237980 0.000000 
-0.450137 -2.138113 0.000000 
-0.450087 -2.038161 0.000000 
VECTORS X_EC float 
-0.276820 -0.156771 0.000000 
-0.051700 0.663712 0.000000 
0.088935 -0.526693 0.000000 
0.108829 0.109464 0.000000 
0.131754 0.757455 0.000000 
0.140920 -0.589359 0.000000 
0.143967 0.061209 0.000000 
0.146299 0.712736 0.000000 
0.148214 -0.635475 0.000000 
0.148872 0.015170 0.000000 
-0.752444 -0.117404 0.000000 
-0.662824 0.714543 0.000000 
-0.606033 -0.496172 0.000000 
-0.584699 0.123851 0.000000 
-0.564736 0.761859 0.000000 
-0.556912 -0.587483 0.000000 
-0.554161 0.062136 0.000000 
-0.552306 0.713085 0.000000 
-0.551087 -0.635353 0.000000 
-0.550690 0.015222 0.000000 
0.732435 -0.101944 0.000000 
0.689961 0.731504 0.000000 
0.688324 -0.499958 0.000000 
0.719715 0.123755 0.000000 
0.737808 0.764836 0.000000 
0.744004 -0.586587 0.000000 
0.746877 0.062325 0.000000 
0.748744 0.713056 0.000000 
0.749461 -0.635439 0.000000 
0.749662 0.015123 0.000000 
0.011612 -0.097570 0.000000 
0.016472 0.733611 0.000000 
0.025170 -0.512664 0.000000 
0.034111 0.116168 0.000000 
0.040698 0.761293 0.000000 
0.045415 -0.588778 0.000000 
0.047587 0.061051 0.000000 
0.048985 0.712539 0.000000 
0.049523 -0.635738 0.000000 
0.049704 0.014899 0.000000 
-0.708421 -0.096002 0.000000 
-0.661039 0.732322 0.000000 
-0.643591 -0.523743 0.000000 
-0.652367 0.109229 0.000000 
-0.654634 0.757529 0.000000 
-0.652254 -0.590925 0.000000 
-0.651269 0.059864 0.000000 
-0.650637 0.712076 0.000000 
-0.650336 -0.635994 0.000000 
-0.650208 0.014713 0.000000 
0.708421 -0.096002 0.000000 
0.661039 0.732322 0.000000 
0.643591 -0.523743 0.000000 
0.652367 0.109229 0.000000 
0.654634 0.757529 0.000000 
0.652254 -0.590925 0.000000 
0.651269 0.059864 0.000000 
0.650637 0.712076 0.000000 
0.650336 -0.635994 0.000000 
0.650208 0.014713 0.000000 
-0.011612 -0.097570 0.000000 
-0.016472 0.733611 0.000000 
-0.025170 -0.512664 0.000000 
-0.034111 0.116168 0.000000 
-0.040698 0.761293 0.000000 
-0.045415 -0.588778 0.000000 
-0.047587 0.061051 0.000000 
-0.048985 0.712539 0.000000 
-0.049523 -0.635738 0.000000 
-0.049704 0.014899 0.000000 
-0.732435 -0.101944 0.000000 
-0.689961 0.731504 0.000000 
-0.688324 -0.499958 0.000000 
-0.719715 0.123755 0.000000 
-0.737808 0.764836 0.000000 
-0.744004 -0.586587 0.000000 
-0.746877 0.062325 0.000000 
-0.748744 0.713056 0.000000 
-0.749461 -0.635439 0.000000 
-0.749662 0.015123 0.000000 
0.752444 -0.117404 0.000000 
0.662824 0.714543 0.000000 
0.606033 -0.496172 0.000000 
0.584699 0.123851 0.000000 
0.564736 0.761859 0.000000 
0.556912 -0.587483 0.000000 
0.554161 0.062136 0.000000 
0.552306 0.713085 0.000000 
0.551087 -0.635353 0.000000 
0.550690 0.015222 0.000000 
0.276820 -0.156771 0.000000 
0.051700 0.663712 0.000000 
-0.088935 -0.526693 0.000000 
-0.108829 0.109464 0.000000 
-0.131754 0.757455 0.000000 
-0.140920 -0.589359 0.000000 
-0.143967 0.061209 0.000000 
-0.146299 0.712736 0.000000 
-0.148214 -0.635475 0.000000 
-0.148872 0.015170 0.000000 
CELL_DATA 100 
SCALARS MASS float 
LOOKUP_TABLE default 
10.000000 
10.000000 
10.000000 
10.000000 
10.000000 
10.000000 
10.000000 
10.000000 
10.000000 
10.000000 
10.000000 
10.000000 
10.000000 
10.000000 
10.000000 
10.000000 
10.000000 
10.000000 
10.000000 
10.000000 
10.000000 
10.000000 
10.000000 
10.000000 
10.000000 
10.000000 
10.000000 
10.000000 
10.000000 
10.000000 
10.000000 
10.000000 
10.000000 
10.000000 
10.000000 
10.000000 
10.000000 
10.000000 
10.000000 
10.000000 
10.000000 
10.000000 
10.000000 
10.000000 
10.000000 
10.000000 
10.000000 
10.000000 
10.000000 
10.000000 
10.000000 
10.000000 
10.000000 
10.000000 
10.000000 
10.000000 
10.000000 
10.000000 
10.000000 
10.000000 
10.000000 
10.000000 
10.000000 
10.000000 
10.000000 
10.000000 
10.000000 
10.000000 
10.000000 
10.000000 
10.000000 
10.000000 
10.000000 
10.000000 
10.000000 
10.000000 
10.000000 
10.000000 
10.000000 
10.000000 
10.000000 
10.000000 
10.000000 
10.000000 
10.000000 
10.000000 
10.000000 
10.000000 
10.000000 
10.000000 
10.000000 
10.000000 
10.000000 
10.000000 
10.000000 
10.000000 
10.000000 
10.000000 
10.000000 
10.000000 
SCALARS MASS float 
LOOKUP_TABLE default 
10.000000 
10.000000 
10.000000 
10.000000 
10.000000 
10.000000 
10.000000 
10.000000 
10.000000 
10.000000 
10.000000 
10.000000 
10.000000 
10.000000 
10.000000 
10.000000 
10.000000 
10.000000 
10.000000 
10.000000 
10.000000 
10.000000 
10.000000 
10.000000 
10.000000 
10.000000 
10.000000 
10.000000 
10.000000 
10.000000 
10.000000 
10.000000 
10.000000 
10.000000 
10.000000 
10.000000 
10.000000 
10.000000 
10.000000 
10.000000 
10.000000 
10.000000 
10.000000 
10.000000 
10.000000 
10.000000 
10.000000 
10.000000 
10.000000 
10.000000 
10.000000 
10.000000 
10.000000 
10.000000 
10.000000 
10.000000 
10.000000 
10.000000 
10.000000 
10.000000 
10.000000 
10.000000 
10.000000 
10.000000 
10.000000 
10.000000 
10.000000 
10.000000 
10.000000 
10.000000 
10.000000 
10.000000 
10.000000 
10.000000 
10.000000 
10.000000 
10.000000 
10.000000 
10.000000 
10.000000 
10.000000 
10.000000 
10.000000 
10.000000 
10.000000 
10.000000 
10.000000 
10.000000 
10.000000 
10.000000 
10.000000 
10.000000 
10.000000 
10.000000 
10.000000 
10.000000 
10.000000 
10.000000 
10.000000 
10.000000 
SCALARS DENSITY float 
LOOKUP_TABLE default 
80694.231110 
655.236052 
1402.536664 
982.587944 
1003.490318 
1009.571969 
1007.931590 
1003.999873 
1002.947438 
1000.868654 
84168.439444 
682.719936 
1454.812547 
963.847006 
998.498119 
1005.827323 
1006.791952 
1003.618005 
1002.679080 
1000.751496 
93871.298079 
631.251616 
1389.528814 
970.488306 
1001.100474 
1005.448208 
1006.503298 
1003.816517 
1002.747782 
1000.771779 
1100825.796613 
1149.730834 
1208.692635 
936.952800 
1017.656226 
1018.866139 
1013.568495 
1007.669265 
1004.496300 
1001.611187 
204793.726554 
695.746419 
1292.149533 
995.796099 
1017.459619 
1010.063965 
1008.887314 
1005.544705 
1003.911025 
1001.084849 
204793.726554 
695.746419 
1292.149533 
995.796099 
1017.459619 
1010.063965 
1008.887314 
1005.544705 
1003.911025 
1001.084849 
1100825.796613 
1149.730834 
1208.692635 
936.952800 
1017.656226 
1018.866139 
1013.568495 
1007.669265 
1004.496300 
1001.611187 
93871.298079 
631.251616 
1389.528814 
970.488306 
1001.100474 
1005.448208 
1006.503298 
1003.816517 
1002.747782 
1000.771779 
84168.439444 
682.719936 
1454.812547 
963.847006 
998.498119 
1005.827323 
1006.791952 
1003.618005 
1002.679080 
1000.751496 
80694.231110 
655.236052 
1402.536664 
982.587944 
1003.490318 
1009.571969 
1007.931590 
1003.999873 
1002.947438 
1000.868654 
SCALARS ELEM_i float 
LOOKUP_TABLE default 
81 
82 
82 
83 
84 
84 
85 
86 
86 
87 
108 
109 
109 
110 
111 
111 
112 
113 
113 
114 
108 
109 
109 
110 
111 
111 
112 
113 
113 
114 
135 
136 
136 
137 
138 
138 
139 
140 
140 
141 
162 
163 
163 
164 
165 
165 
166 
167 
167 
168 
162 
163 
163 
164 
165 
165 
166 
167 
167 
168 
189 
190 
190 
191 
192 
192 
193 
194 
194 
195 
216 
217 
217 
218 
219 
219 
220 
221 
221 
222 
216 
217 
217 
218 
219 
219 
220 
221 
221 
222 
243 
244 
244 
245 
246 
246 
247 
248 
248 
249 
VECTORS VELOCITY float 
4.099102 -9.324183 0.000000 
-0.755830 0.153902 0.000000 
1.487187 -7.643141 0.000000 
1.411720 -6.031193 0.000000 
-0.100810 -7.123224 0.000000 
0.090587 -6.988237 0.000000 
0.139744 -6.868367 0.000000 
0.088218 -6.922110 0.000000 
0.053191 -6.915515 0.000000 
0.033771 -6.929067 0.000000 
0.914648 -12.017379 0.000000 
-0.216974 -2.665281 0.000000 
1.230778 -8.774991 0.000000 
0.761465 -6.462964 0.000000 
-0.029787 -7.292997 0.000000 
0.071973 -7.075374 0.000000 
0.071753 -6.920442 0.000000 
0.035098 -6.943766 0.000000 
0.023288 -6.923936 0.000000 
0.015458 -6.933696 0.000000 
-0.204449 -11.834294 0.000000 
2.196028 -2.465017 0.000000 
1.196099 -8.263806 0.000000 
0.111005 -6.490807 0.000000 
0.155558 -7.511923 0.000000 
0.170356 -7.114742 0.000000 
0.082065 -6.929128 0.000000 
0.021629 -6.947347 0.000000 
0.012032 -6.920257 0.000000 
0.008504 -6.929630 0.000000 
0.471956 -11.730232 0.000000 
0.278692 -2.339582 0.000000 
0.063753 -8.026176 0.000000 
0.155483 -6.512116 0.000000 
0.217884 -7.479690 0.000000 
0.111279 -7.047194 0.000000 
0.053872 -6.898095 0.000000 
0.021397 -6.943729 0.000000 
0.015556 -6.910206 0.000000 
0.009840 -6.921616 0.000000 
0.760152 -11.649505 0.000000 
-1.345378 -2.263969 0.000000 
-0.565906 -7.915687 0.000000 
0.210880 -6.525318 0.000000 
0.156047 -7.410881 0.000000 
0.026040 -6.978903 0.000000 
0.017199 -6.868488 0.000000 
0.015292 -6.939829 0.000000 
0.013462 -6.901749 0.000000 
0.007968 -6.915072 0.000000 
-0.760152 -11.649505 0.000000 
1.345378 -2.263969 0.000000 
0.565906 -7.915687 0.000000 
-0.210880 -6.525318 0.000000 
-0.156047 -7.410881 0.000000 
-0.026040 -6.978903 0.000000 
-0.017199 -6.868488 0.000000 
-0.015292 -6.939829 0.000000 
-0.013462 -6.901749 0.000000 
-0.007968 -6.915072 0.000000 
-0.471956 -11.730232 0.000000 
-0.278692 -2.339582 0.000000 
-0.063753 -8.026176 0.000000 
-0.155483 -6.512116 0.000000 
-0.217884 -7.479690 0.000000 
-0.111279 -7.047194 0.000000 
-0.053872 -6.898095 0.000000 
-0.021397 -6.943729 0.000000 
-0.015556 -6.910206 0.000000 
-0.009840 -6.921616 0.000000 
0.204449 -11.834294 0.000000 
-2.196028 -2.465017 0.000000 
-1.196099 -8.263806 0.000000 
-0.111005 -6.490807 0.000000 
-0.155558 -7.511923 0.000000 
-0.170356 -7.114742 0.000000 
-0.082065 -6.929128 0.000000 
-0.021629 -6.947347 0.000000 
-0.012032 -6.920257 0.000000 
-0.008504 -6.929630 0.000000 
-0.914648 -12.017379 0.000000 
0.216974 -2.665281 0.000000 
-1.230778 -8.774991 0.000000 
-0.761465 -6.462964 0.000000 
0.029787 -7.292997 0.000000 
-0.071973 -7.075374 0.000000 
-0.071753 -6.920442 0.000000 
-0.035098 -6.943766 0.000000 
-0.023288 -6.923936 0.000000 
-0.015458 -6.933696 0.000000 
-4.099102 -9.324183 0.000000 
0.755830 0.153902 0.000000 
-1.487187 -7.643141 0.000000 
-1.411720 -6.031193 0.000000 
0.100810 -7.123224 0.000000 
-0.090587 -6.988237 0.000000 
-0.139744 -6.868367 0.000000 
-0.088218 -6.922110 0.000000 
-0.053191 -6.915515 0.000000 
-0.033771 -6.929067 0.000000 
TENSORS STRESS float 
-125.913439 -7.606536 0.000000 
0.000000 -180.371015 0.000000 
0.000000 0.000000 0.000000 

1394.965472 -1293.005284 0.000000 
0.000000 -33.885355 0.000000 
0.000000 0.000000 0.000000 

-1592.549802 -204.997094 0.000000 
0.000000 -2008.326268 0.000000 
0.000000 0.000000 0.000000 

464.444091 14.873701 0.000000 
0.000000 547.109751 0.000000 
0.000000 0.000000 0.000000 

18.270682 -40.055524 0.000000 
0.000000 -26.107125 0.000000 
0.000000 0.000000 0.000000 

-27.961332 -39.807152 0.000000 
0.000000 -58.689039 0.000000 
0.000000 0.000000 0.000000 

8.701647 -10.350443 0.000000 
0.000000 -4.756070 0.000000 
0.000000 0.000000 0.000000 

-17.032184 -7.303350 0.000000 
0.000000 -31.422219 0.000000 
0.000000 0.000000 0.000000 

-19.855698 -6.322679 0.000000 
0.000000 -29.166768 0.000000 
0.000000 0.000000 0.000000 

-1.921040 -1.700696 0.000000 
0.000000 -5.439968 0.000000 
0.000000 0.000000 0.000000 

-132.627212 -2.606249 0.000000 
0.000000 -184.745752 0.000000 
0.000000 0.000000 0.000000 

375.034928 -490.695306 0.000000 
0.000000 -795.591085 0.000000 
0.000000 0.000000 0.000000 

-1714.531029 -122.601117 0.000000 
0.000000 -2046.614504 0.000000 
0.000000 0.000000 0.000000 

637.930895 -93.547786 0.000000 
0.000000 798.587613 0.000000 
0.000000 0.000000 0.000000 

62.114872 -43.294416 0.000000 
0.000000 26.061517 0.000000 
0.000000 0.000000 0.000000 

-0.084063 -33.780686 0.000000 
0.000000 -21.319298 0.000000 
0.000000 0.000000 0.000000 

12.856387 -10.380452 0.000000 
0.000000 2.464412 0.000000 
0.000000 0.000000 0.000000 

-14.004755 -6.296929 0.000000 
0.000000 -28.007496 0.000000 
0.000000 0.000000 0.000000 

-16.801099 -5.069227 0.000000 
0.000000 -25.769128 0.000000 
0.000000 0.000000 0.000000 

-0.659781 -1.572187 0.000000 
0.000000 -4.205568 0.000000 
0.000000 0.000000 0.000000 

-123.819570 2.184883 0.000000 
0.000000 -171.696287 0.000000 
0.000000 0.000000 0.000000 

1163.439676 260.416042 0.000000 
0.000000 62.557054 0.000000 
0.000000 0.000000 0.000000 

-1549.180458 5.575849 0.000000 
0.000000 -1841.234974 0.000000 
0.000000 0.000000 0.000000 

589.687468 -141.683027 0.000000 
0.000000 739.245893 0.000000 
0.000000 0.000000 0.000000 

69.546087 -30.327742 0.000000 
0.000000 35.266921 0.000000 
0.000000 0.000000 0.000000 

18.030657 -21.531099 0.000000 
0.000000 0.811672 0.000000 
0.000000 0.000000 0.000000 

18.799004 -8.820634 0.000000 
0.000000 9.723896 0.000000 
0.000000 0.000000 0.000000 

-14.301411 -3.687983 0.000000 
0.000000 -28.367619 0.000000 
0.000000 0.000000 0.000000 

-16.537639 -3.129735 0.000000 
0.000000 -25.446630 0.000000 
0.000000 0.000000 0.000000 

-0.571915 -0.878773 0.000000 
0.000000 -4.098067 0.000000 
0.000000 0.000000 0.000000 

-16.461719 0.021465 0.000000 
0.000000 -19.528506 0.000000 
0.000000 0.000000 0.000000 

-1043.030174 -35.382191 0.000000 
0.000000 -1213.773132 0.000000 
0.000000 0.000000 0.000000 

-580.403036 -89.890815 0.000000 
0.000000 -1052.786206 0.000000 
0.000000 0.000000 0.000000 

1099.017789 -107.692475 0.000000 
0.000000 1107.493704 0.000000 
0.000000 0.000000 0.000000 

-0.459844 -41.621888 0.000000 
0.000000 -38.303806 0.000000 
0.000000 0.000000 0.000000 

-34.104204 -25.012385 0.000000 
0.000000 -49.163366 0.000000 
0.000000 0.000000 0.000000 

-20.382769 -14.191546 0.000000 
0.000000 -28.292984 0.000000 
0.000000 0.000000 0.000000 

-45.455894 -5.555260 0.000000 
0.000000 -56.424903 0.000000 
0.000000 0.000000 0.000000 

-34.020846 -3.359690 0.000000 
0.000000 -41.705435 0.000000 
0.000000 0.000000 0.000000 

-9.831285 -1.319987 0.000000 
0.000000 -11.990793 0.000000 
0.000000 0.000000 0.000000 

-67.101823 -0.591461 0.000000 
0.000000 -87.616501 0.000000 
0.000000 0.000000 0.000000 

800.945362 -211.712277 0.000000 
0.000000 205.617992 0.000000 
0.000000 0.000000 0.000000 

-1275.736952 -55.900302 0.000000 
0.000000 -1535.699955 0.000000 
0.000000 0.000000 0.000000 

396.072881 21.872278 0.000000 
0.000000 473.475210 0.000000 
0.000000 0.000000 0.000000 

50.918615 -6.341574 0.000000 
0.000000 -11.965235 0.000000 
0.000000 0.000000 0.000000 

43.053487 -5.623443 0.000000 
0.000000 5.629964 0.000000 
0.000000 0.000000 0.000000 

20.833702 -4.559846 0.000000 
0.000000 -0.507517 0.000000 
0.000000 0.000000 0.000000 

-24.670010 -1.536723 0.000000 
0.000000 -41.825196 0.000000 
0.000000 0.000000 0.000000 

-26.441509 -1.180602 0.000000 
0.000000 -37.319345 0.000000 
0.000000 0.000000 0.000000 

-2.617176 -0.304644 0.000000 
0.000000 -6.386247 0.000000 
0.000000 0.000000 0.000000 

-67.101823 0.591461 0.000000 
0.000000 -87.616501 0.000000 
0.000000 0.000000 0.000000 

800.945362 211.712277 0.000000 
0.000000 205.617992 0.000000 
0.000000 0.000000 0.000000 

-1275.736952 55.900302 0.000000 
0.000000 -1535.699955 0.000000 
0.000000 0.000000 0.000000 

396.072881 -21.872278 0.000000 
0.000000 473.475210 0.000000 
0.000000 0.000000 0.000000 

50.918615 6.341574 0.000000 
0.000000 -11.965235 0.000000 
0.000000 0.000000 0.000000 

43.053487 5.623443 0.000000 
0.000000 5.629964 0.000000 
0.000000 0.000000 0.000000 

20.833702 4.559846 0.000000 
0.000000 -0.507517 0.000000 
0.000000 0.000000 0.000000 

-24.670010 1.536723 0.000000 
0.000000 -41.825196 0.000000 
0.000000 0.000000 0.000000 

-26.441509 1.180602 0.000000 
0.000000 -37.319345 0.000000 
0.000000 0.000000 0.000000 

-2.617176 0.304644 0.000000 
0.000000 -6.386247 0.000000 
0.000000 0.000000 0.000000 

-16.461719 -0.021465 0.000000 
0.000000 -19.528506 0.000000 
0.000000 0.000000 0.000000 

-1043.030174 35.382191 0.000000 
0.000000 -1213.773132 0.000000 
0.000000 0.000000 0.000000 

-580.403036 89.890815 0.000000 
0.000000 -1052.786206 0.000000 
0.000000 0.000000 0.000000 

1099.017789 107.692475 0.000000 
0.000000 1107.493704 0.000000 
0.000000 0.000000 0.000000 

-0.459844 41.621888 0.000000 
0.000000 -38.303806 0.000000 
0.000000 0.000000 0.000000 

-34.104204 25.012385 0.000000 
0.000000 -49.163366 0.000000 
0.000000 0.000000 0.000000 

-20.382769 14.191546 0.000000 
0.000000 -28.292984 0.000000 
0.000000 0.000000 0.000000 

-45.455894 5.555260 0.000000 
0.000000 -56.424903 0.000000 
0.000000 0.000000 0.000000 

-34.020846 3.359690 0.000000 
0.000000 -41.705435 0.000000 
0.000000 0.000000 0.000000 

-9.831285 1.319987 0.000000 
0.000000 -11.990793 0.000000 
0.000000 0.000000 0.000000 

-123.819570 -2.184883 0.000000 
0.000000 -171.696287 0.000000 
0.000000 0.000000 0.000000 

1163.439676 -260.416042 0.000000 
0.000000 62.557054 0.000000 
0.000000 0.000000 0.000000 

-1549.180458 -5.575849 0.000000 
0.000000 -1841.234974 0.000000 
0.000000 0.000000 0.000000 

589.687468 141.683027 0.000000 
0.000000 739.245893 0.000000 
0.000000 0.000000 0.000000 

69.546087 30.327742 0.000000 
0.000000 35.266921 0.000000 
0.000000 0.000000 0.000000 

18.030657 21.531099 0.000000 
0.000000 0.811672 0.000000 
0.000000 0.000000 0.000000 

18.799004 8.820634 0.000000 
0.000000 9.723896 0.000000 
0.000000 0.000000 0.000000 

-14.301411 3.687983 0.000000 
0.000000 -28.367619 0.000000 
0.000000 0.000000 0.000000 

-16.537639 3.129735 0.000000 
0.000000 -25.446630 0.000000 
0.000000 0.000000 0.000000 

-0.571915 0.878773 0.000000 
0.000000 -4.098067 0.000000 
0.000000 0.000000 0.000000 

-132.627212 2.606249 0.000000 
0.000000 -184.745752 0.000000 
0.000000 0.000000 0.000000 

375.034928 490.695306 0.000000 
0.000000 -795.591085 0.000000 
0.000000 0.000000 0.000000 

-1714.531029 122.601117 0.000000 
0.000000 -2046.614504 0.000000 
0.000000 0.000000 0.000000 

637.930895 93.547786 0.000000 
0.000000 798.587613 0.000000 
0.000000 0.000000 0.000000 

62.114872 43.294416 0.000000 
0.000000 26.061517 0.000000 
0.000000 0.000000 0.000000 

-0.084063 33.780686 0.000000 
0.000000 -21.319298 0.000000 
0.000000 0.000000 0.000000 

12.856387 10.380452 0.000000 
0.000000 2.464412 0.000000 
0.000000 0.000000 0.000000 

-14.004755 6.296929 0.000000 
0.000000 -28.007496 0.000000 
0.000000 0.000000 0.000000 

-16.801099 5.069227 0.000000 
0.000000 -25.769128 0.000000 
0.000000 0.000000 0.000000 

-0.659781 1.572187 0.000000 
0.000000 -4.205568 0.000000 
0.000000 0.000000 0.000000 

-125.913439 7.606536 0.000000 
0.000000 -180.371015 0.000000 
0.000000 0.000000 0.000000 

1394.965472 1293.005284 0.000000 
0.000000 -33.885355 0.000000 
0.000000 0.000000 0.000000 

-1592.549802 204.997094 0.000000 
0.000000 -2008.326268 0.000000 
0.000000 0.000000 0.000000 

464.444091 -14.873701 0.000000 
0.000000 547.109751 0.000000 
0.000000 0.000000 0.000000 

18.270682 40.055524 0.000000 
0.000000 -26.107125 0.000000 
0.000000 0.000000 0.000000 

-27.961332 39.807152 0.000000 
0.000000 -58.689039 0.000000 
0.000000 0.000000 0.000000 

8.701647 10.350443 0.000000 
0.000000 -4.756070 0.000000 
0.000000 0.000000 0.000000 

-17.032184 7.303350 0.000000 
0.000000 -31.422219 0.000000 
0.000000 0.000000 0.000000 

-19.855698 6.322679 0.000000 
0.000000 -29.166768 0.000000 
0.000000 0.000000 0.000000 

-1.921040 1.700696 0.000000 
0.000000 -5.439968 0.000000 
0.000000 0.000000 0.000000 

TENSORS STRAIN float 
0.139408 -0.089002 0.000000 
0.000000 -0.497781 0.000000 
0.000000 0.000000 0.000000 

0.074343 -0.122847 0.000000 
0.000000 -0.061411 0.000000 
0.000000 0.000000 0.000000 

0.005663 -0.041690 0.000000 
0.000000 -0.078893 0.000000 
0.000000 0.000000 0.000000 

0.001317 0.002119 0.000000 
0.000000 0.013095 0.000000 
0.000000 0.000000 0.000000 

0.003172 -0.005828 0.000000 
0.000000 -0.003286 0.000000 
0.000000 0.000000 0.000000 

0.001615 -0.005827 0.000000 
0.000000 -0.002883 0.000000 
0.000000 0.000000 0.000000 

0.001012 -0.001513 0.000000 
0.000000 -0.000955 0.000000 
0.000000 0.000000 0.000000 

0.000695 -0.001063 0.000000 
0.000000 -0.001400 0.000000 
0.000000 0.000000 0.000000 

0.000321 -0.000919 0.000000 
0.000000 -0.001034 0.000000 
0.000000 0.000000 0.000000 

0.000202 -0.000247 0.000000 
0.000000 -0.000309 0.000000 
0.000000 0.000000 0.000000 

0.124371 -0.031808 0.000000 
0.000000 -0.511706 0.000000 
0.000000 0.000000 0.000000 

0.055861 -0.048576 0.000000 
0.000000 -0.060024 0.000000 
0.000000 0.000000 0.000000 

-0.004644 -0.025862 0.000000 
0.000000 -0.074696 0.000000 
0.000000 0.000000 0.000000 

-0.001188 -0.013074 0.000000 
0.000000 0.021265 0.000000 
0.000000 0.000000 0.000000 

0.003248 -0.006268 0.000000 
0.000000 -0.001972 0.000000 
0.000000 0.000000 0.000000 

0.001392 -0.004927 0.000000 
0.000000 -0.001705 0.000000 
0.000000 0.000000 0.000000 

0.000870 -0.001515 0.000000 
0.000000 -0.000647 0.000000 
0.000000 0.000000 0.000000 

0.000713 -0.000916 0.000000 
0.000000 -0.001325 0.000000 
0.000000 0.000000 0.000000 

0.000342 -0.000737 0.000000 
0.000000 -0.000961 0.000000 
0.000000 0.000000 0.000000 

0.000222 -0.000228 0.000000 
0.000000 -0.000293 0.000000 
0.000000 0.000000 0.000000 

0.124715 0.029739 0.000000 
0.000000 -0.526951 0.000000 
0.000000 0.000000 0.000000 

0.055994 0.023836 0.000000 
0.000000 -0.044772 0.000000 
0.000000 0.000000 0.000000 

-0.004734 0.001123 0.000000 
0.000000 -0.063577 0.000000 
0.000000 0.000000 0.000000 

-0.001173 -0.019938 0.000000 
0.000000 0.019873 0.000000 
0.000000 0.000000 0.000000 

0.003249 -0.004402 0.000000 
0.000000 -0.001727 0.000000 
0.000000 0.000000 0.000000 

0.001393 -0.003139 0.000000 
0.000000 -0.001118 0.000000 
0.000000 0.000000 0.000000 

0.000870 -0.001287 0.000000 
0.000000 -0.000454 0.000000 
0.000000 0.000000 0.000000 

0.000713 -0.000537 0.000000 
0.000000 -0.001334 0.000000 
0.000000 0.000000 0.000000 

0.000342 -0.000455 0.000000 
0.000000 -0.000953 0.000000 
0.000000 0.000000 0.000000 

0.000222 -0.000128 0.000000 
0.000000 -0.000290 0.000000 
0.000000 0.000000 0.000000 

-0.042478 0.003426 0.000000 
0.000000 -0.531997 0.000000 
0.000000 0.000000 0.000000 

-0.004579 -0.005899 0.000000 
0.000000 -0.033044 0.000000 
0.000000 0.000000 0.000000 

0.027083 -0.015754 0.000000 
0.000000 -0.055707 0.000000 
0.000000 0.000000 0.000000 

0.014413 -0.014631 0.000000 
0.000000 0.015564 0.000000 
0.000000 0.000000 0.000000 

0.002506 -0.006142 0.000000 
0.000000 -0.003078 0.000000 
0.000000 0.000000 0.000000 

0.000497 -0.003695 0.000000 
0.000000 -0.001727 0.000000 
0.000000 0.000000 0.000000 

0.000224 -0.002086 0.000000 
0.000000 -0.000939 0.000000 
0.000000 0.000000 0.000000 

0.000057 -0.000812 0.000000 
0.000000 -0.001546 0.000000 
0.000000 0.000000 0.000000 

0.000008 -0.000489 0.000000 
0.000000 -0.001111 0.000000 
0.000000 0.000000 0.000000 

-0.000002 -0.000192 0.000000 
0.000000 -0.000315 0.000000 
0.000000 0.000000 0.000000 

0.074874 -0.017563 0.000000 
0.000000 -0.534311 0.000000 
0.000000 0.000000 0.000000 

0.035107 -0.021358 0.000000 
0.000000 -0.024952 0.000000 
0.000000 0.000000 0.000000 

-0.001984 -0.010474 0.000000 
0.000000 -0.050691 0.000000 
0.000000 0.000000 0.000000 

0.000690 0.003158 0.000000 
0.000000 0.011866 0.000000 
0.000000 0.000000 0.000000 

0.004926 -0.000936 0.000000 
0.000000 -0.004351 0.000000 
0.000000 0.000000 0.000000 
