# vtk DataFile Version 3.0 
vtk output 
ASCII 
DATASET UNSTRUCTURED_GRID 
POINTS 1002 float 
0.000000 0.000133 0.000000 
0.000000 -0.000133 0.000000 
0.000267 0.000133 0.000000 
0.000267 -0.000133 0.000000 
0.000533 0.000133 0.000000 
0.000533 -0.000133 0.000000 
0.000800 0.000133 0.000000 
0.000800 -0.000133 0.000000 
0.001066 0.000133 0.000000 
0.001066 -0.000133 0.000000 
0.001333 0.000133 0.000000 
0.001333 -0.000133 0.000000 
0.001600 0.000133 0.000000 
0.001600 -0.000133 0.000000 
0.001866 0.000133 0.000000 
0.001866 -0.000133 0.000000 
0.002133 0.000133 0.000000 
0.002133 -0.000133 0.000000 
0.002399 0.000133 0.000000 
0.002399 -0.000133 0.000000 
0.002666 0.000133 0.000000 
0.002666 -0.000133 0.000000 
0.002933 0.000133 0.000000 
0.002933 -0.000133 0.000000 
0.003199 0.000133 0.000000 
0.003199 -0.000133 0.000000 
0.003466 0.000133 0.000000 
0.003466 -0.000133 0.000000 
0.003732 0.000133 0.000000 
0.003732 -0.000133 0.000000 
0.003999 0.000133 0.000000 
0.003999 -0.000133 0.000000 
0.004266 0.000133 0.000000 
0.004266 -0.000133 0.000000 
0.004532 0.000133 0.000000 
0.004532 -0.000133 0.000000 
0.004799 0.000133 0.000000 
0.004799 -0.000133 0.000000 
0.005065 0.000133 0.000000 
0.005065 -0.000133 0.000000 
0.005332 0.000133 0.000000 
0.005332 -0.000133 0.000000 
0.005599 0.000133 0.000000 
0.005599 -0.000133 0.000000 
0.005865 0.000133 0.000000 
0.005865 -0.000133 0.000000 
0.006132 0.000133 0.000000 
0.006132 -0.000133 0.000000 
0.006398 0.000133 0.000000 
0.006398 -0.000133 0.000000 
0.006665 0.000133 0.000000 
0.006665 -0.000133 0.000000 
0.006932 0.000133 0.000000 
0.006932 -0.000133 0.000000 
0.007198 0.000133 0.000000 
0.007198 -0.000133 0.000000 
0.007465 0.000133 0.000000 
0.007465 -0.000133 0.000000 
0.007731 0.000133 0.000000 
0.007731 -0.000133 0.000000 
0.007998 0.000133 0.000000 
0.007998 -0.000133 0.000000 
0.008265 0.000133 0.000000 
0.008265 -0.000133 0.000000 
0.008531 0.000133 0.000000 
0.008531 -0.000133 0.000000 
0.008798 0.000133 0.000000 
0.008798 -0.000133 0.000000 
0.009064 0.000133 0.000000 
0.009064 -0.000133 0.000000 
0.009331 0.000133 0.000000 
0.009331 -0.000133 0.000000 
0.009598 0.000133 0.000000 
0.009598 -0.000133 0.000000 
0.009864 0.000133 0.000000 
0.009864 -0.000133 0.000000 
0.010131 0.000133 0.000000 
0.010131 -0.000133 0.000000 
0.010397 0.000133 0.000000 
0.010397 -0.000133 0.000000 
0.010664 0.000133 0.000000 
0.010664 -0.000133 0.000000 
0.010931 0.000133 0.000000 
0.010931 -0.000133 0.000000 
0.011197 0.000133 0.000000 
0.011197 -0.000133 0.000000 
0.011464 0.000133 0.000000 
0.011464 -0.000133 0.000000 
0.011730 0.000133 0.000000 
0.011730 -0.000133 0.000000 
0.011997 0.000133 0.000000 
0.011997 -0.000133 0.000000 
0.012264 0.000133 0.000000 
0.012264 -0.000133 0.000000 
0.012530 0.000133 0.000000 
0.012530 -0.000133 0.000000 
0.012797 0.000133 0.000000 
0.012797 -0.000133 0.000000 
0.013063 0.000133 0.000000 
0.013063 -0.000133 0.000000 
0.013330 0.000133 0.000000 
0.013330 -0.000133 0.000000 
0.013597 0.000133 0.000000 
0.013597 -0.000133 0.000000 
0.013863 0.000133 0.000000 
0.013863 -0.000133 0.000000 
0.014130 0.000133 0.000000 
0.014130 -0.000133 0.000000 
0.014396 0.000133 0.000000 
0.014396 -0.000133 0.000000 
0.014663 0.000133 0.000000 
0.014663 -0.000133 0.000000 
0.014930 0.000133 0.000000 
0.014930 -0.000133 0.000000 
0.015196 0.000133 0.000000 
0.015196 -0.000133 0.000000 
0.015463 0.000133 0.000000 
0.015463 -0.000133 0.000000 
0.015729 0.000133 0.000000 
0.015729 -0.000133 0.000000 
0.015996 0.000133 0.000000 
0.015996 -0.000133 0.000000 
0.016263 0.000133 0.000000 
0.016263 -0.000133 0.000000 
0.016529 0.000133 0.000000 
0.016529 -0.000133 0.000000 
0.016796 0.000133 0.000000 
0.016796 -0.000133 0.000000 
0.017062 0.000133 0.000000 
0.017062 -0.000133 0.000000 
0.017329 0.000133 0.000000 
0.017329 -0.000133 0.000000 
0.017596 0.000133 0.000000 
0.017596 -0.000133 0.000000 
0.017862 0.000133 0.000000 
0.017862 -0.000133 0.000000 
0.018129 0.000133 0.000000 
0.018129 -0.000133 0.000000 
0.018395 0.000133 0.000000 
0.018395 -0.000133 0.000000 
0.018662 0.000133 0.000000 
0.018662 -0.000133 0.000000 
0.018929 0.000133 0.000000 
0.018929 -0.000133 0.000000 
0.019195 0.000133 0.000000 
0.019195 -0.000133 0.000000 
0.019462 0.000133 0.000000 
0.019462 -0.000133 0.000000 
0.019728 0.000133 0.000000 
0.019728 -0.000133 0.000000 
0.019995 0.000133 0.000000 
0.019995 -0.000133 0.000000 
0.020262 0.000133 0.000000 
0.020262 -0.000133 0.000000 
0.020528 0.000133 0.000000 
0.020528 -0.000133 0.000000 
0.020795 0.000133 0.000000 
0.020795 -0.000133 0.000000 
0.021061 0.000133 0.000000 
0.021061 -0.000133 0.000000 
0.021328 0.000133 0.000000 
0.021328 -0.000133 0.000000 
0.021595 0.000133 0.000000 
0.021595 -0.000133 0.000000 
0.021861 0.000133 0.000000 
0.021861 -0.000133 0.000000 
0.022128 0.000133 0.000000 
0.022128 -0.000133 0.000000 
0.022394 0.000133 0.000000 
0.022394 -0.000133 0.000000 
0.022661 0.000133 0.000000 
0.022661 -0.000133 0.000000 
0.022928 0.000133 0.000000 
0.022928 -0.000133 0.000000 
0.023194 0.000133 0.000000 
0.023194 -0.000133 0.000000 
0.023461 0.000133 0.000000 
0.023461 -0.000133 0.000000 
0.023727 0.000133 0.000000 
0.023727 -0.000133 0.000000 
0.023994 0.000133 0.000000 
0.023994 -0.000133 0.000000 
0.024261 0.000133 0.000000 
0.024261 -0.000133 0.000000 
0.024527 0.000133 0.000000 
0.024527 -0.000133 0.000000 
0.024794 0.000133 0.000000 
0.024794 -0.000133 0.000000 
0.025060 0.000133 0.000000 
0.025060 -0.000133 0.000000 
0.025327 0.000133 0.000000 
0.025327 -0.000133 0.000000 
0.025594 0.000133 0.000000 
0.025594 -0.000133 0.000000 
0.025860 0.000133 0.000000 
0.025860 -0.000133 0.000000 
0.026127 0.000133 0.000000 
0.026127 -0.000133 0.000000 
0.026393 0.000133 0.000000 
0.026393 -0.000133 0.000000 
0.026660 0.000133 0.000000 
0.026660 -0.000133 0.000000 
0.026927 0.000133 0.000000 
0.026927 -0.000133 0.000000 
0.027193 0.000133 0.000000 
0.027193 -0.000133 0.000000 
0.027460 0.000133 0.000000 
0.027460 -0.000133 0.000000 
0.027726 0.000133 0.000000 
0.027726 -0.000133 0.000000 
0.027993 0.000133 0.000000 
0.027993 -0.000133 0.000000 
0.028260 0.000133 0.000000 
0.028260 -0.000133 0.000000 
0.028526 0.000133 0.000000 
0.028526 -0.000133 0.000000 
0.028793 0.000133 0.000000 
0.028793 -0.000133 0.000000 
0.029059 0.000133 0.000000 
0.029059 -0.000133 0.000000 
0.029326 0.000133 0.000000 
0.029326 -0.000133 0.000000 
0.029593 0.000133 0.000000 
0.029593 -0.000133 0.000000 
0.029859 0.000133 0.000000 
0.029859 -0.000133 0.000000 
0.030126 0.000133 0.000000 
0.030126 -0.000133 0.000000 
0.030392 0.000133 0.000000 
0.030392 -0.000133 0.000000 
0.030659 0.000133 0.000000 
0.030659 -0.000133 0.000000 
0.030926 0.000133 0.000000 
0.030926 -0.000133 0.000000 
0.031192 0.000133 0.000000 
0.031192 -0.000133 0.000000 
0.031459 0.000133 0.000000 
0.031459 -0.000133 0.000000 
0.031725 0.000133 0.000000 
0.031725 -0.000133 0.000000 
0.031992 0.000133 0.000000 
0.031992 -0.000133 0.000000 
0.032259 0.000133 0.000000 
0.032259 -0.000133 0.000000 
0.032525 0.000133 0.000000 
0.032525 -0.000133 0.000000 
0.032792 0.000133 0.000000 
0.032792 -0.000133 0.000000 
0.033058 0.000133 0.000000 
0.033058 -0.000133 0.000000 
0.033325 0.000133 0.000000 
0.033325 -0.000133 0.000000 
0.033592 0.000133 0.000000 
0.033592 -0.000133 0.000000 
0.033858 0.000133 0.000000 
0.033858 -0.000133 0.000000 
0.034125 0.000133 0.000000 
0.034125 -0.000133 0.000000 
0.034391 0.000133 0.000000 
0.034391 -0.000133 0.000000 
0.034658 0.000133 0.000000 
0.034658 -0.000133 0.000000 
0.034925 0.000133 0.000000 
0.034925 -0.000133 0.000000 
0.035191 0.000133 0.000000 
0.035191 -0.000133 0.000000 
0.035458 0.000133 0.000000 
0.035458 -0.000133 0.000000 
0.035724 0.000133 0.000000 
0.035724 -0.000133 0.000000 
0.035991 0.000133 0.000000 
0.035991 -0.000133 0.000000 
0.036258 0.000133 0.000000 
0.036258 -0.000133 0.000000 
0.036524 0.000133 0.000000 
0.036524 -0.000133 0.000000 
0.036791 0.000133 0.000000 
0.036791 -0.000133 0.000000 
0.037057 0.000133 0.000000 
0.037057 -0.000133 0.000000 
0.037324 0.000133 0.000000 
0.037324 -0.000133 0.000000 
0.037591 0.000133 0.000000 
0.037591 -0.000133 0.000000 
0.037857 0.000133 0.000000 
0.037857 -0.000133 0.000000 
0.038124 0.000133 0.000000 
0.038124 -0.000133 0.000000 
0.038390 0.000133 0.000000 
0.038390 -0.000133 0.000000 
0.038657 0.000133 0.000000 
0.038657 -0.000133 0.000000 
0.038924 0.000133 0.000000 
0.038924 -0.000133 0.000000 
0.039190 0.000133 0.000000 
0.039190 -0.000133 0.000000 
0.039457 0.000133 0.000000 
0.039457 -0.000133 0.000000 
0.039723 0.000133 0.000000 
0.039723 -0.000133 0.000000 
0.039990 0.000133 0.000000 
0.039990 -0.000133 0.000000 
0.040257 0.000133 0.000000 
0.040257 -0.000133 0.000000 
0.040523 0.000133 0.000000 
0.040523 -0.000133 0.000000 
0.040790 0.000133 0.000000 
0.040790 -0.000133 0.000000 
0.041056 0.000133 0.000000 
0.041056 -0.000133 0.000000 
0.041323 0.000133 0.000000 
0.041323 -0.000133 0.000000 
0.041590 0.000133 0.000000 
0.041590 -0.000133 0.000000 
0.041856 0.000133 0.000000 
0.041856 -0.000133 0.000000 
0.042123 0.000133 0.000000 
0.042123 -0.000133 0.000000 
0.042389 0.000133 0.000000 
0.042389 -0.000133 0.000000 
0.042656 0.000133 0.000000 
0.042656 -0.000133 0.000000 
0.042923 0.000133 0.000000 
0.042923 -0.000133 0.000000 
0.043189 0.000133 0.000000 
0.043189 -0.000133 0.000000 
0.043456 0.000133 0.000000 
0.043456 -0.000133 0.000000 
0.043722 0.000133 0.000000 
0.043722 -0.000133 0.000000 
0.043989 0.000133 0.000000 
0.043989 -0.000133 0.000000 
0.044256 0.000133 0.000000 
0.044256 -0.000133 0.000000 
0.044522 0.000133 0.000000 
0.044522 -0.000133 0.000000 
0.044789 0.000133 0.000000 
0.044789 -0.000133 0.000000 
0.045055 0.000133 0.000000 
0.045055 -0.000133 0.000000 
0.045322 0.000133 0.000000 
0.045322 -0.000133 0.000000 
0.045589 0.000133 0.000000 
0.045589 -0.000133 0.000000 
0.045855 0.000133 0.000000 
0.045855 -0.000133 0.000000 
0.046122 0.000133 0.000000 
[...]
POINT_DATA 1002 
VECTORS X_GC float 
0.000000 0.000133 0.000000 
0.000000 -0.000133 0.000000 
0.000267 0.000133 0.000000 
0.000267 -0.000133 0.000000 
0.000533 0.000133 0.000000 
0.000533 -0.000133 0.000000 
0.000800 0.000133 0.000000 
0.000800 -0.000133 0.000000 
0.001066 0.000133 0.000000 
0.001066 -0.000133 0.000000 
0.001333 0.000133 0.000000 
0.001333 -0.000133 0.000000 
0.001600 0.000133 0.000000 
0.001600 -0.000133 0.000000 
0.001866 0.000133 0.000000 
0.001866 -0.000133 0.000000 
0.002133 0.000133 0.000000 
0.002133 -0.000133 0.000000 
0.002399 0.000133 0.000000 
0.002399 -0.000133 0.000000 
0.002666 0.000133 0.000000 
0.002666 -0.000133 0.000000 
0.002933 0.000133 0.000000 
0.002933 -0.000133 0.000000 
0.003199 0.000133 0.000000 
0.003199 -0.000133 0.000000 
0.003466 0.000133 0.000000 
0.003466 -0.000133 0.000000 
0.003732 0.000133 0.000000 
0.003732 -0.000133 0.000000 
0.003999 0.000133 0.000000 
0.003999 -0.000133 0.000000 
0.004266 0.000133 0.000000 
0.004266 -0.000133 0.000000 
0.004532 0.000133 0.000000 
0.004532 -0.000133 0.000000 
0.004799 0.000133 0.000000 
0.004799 -0.000133 0.000000 
0.005065 0.000133 0.000000 
0.005065 -0.000133 0.000000 
0.005332 0.000133 0.000000 
0.005332 -0.000133 0.000000 
0.005599 0.000133 0.000000 
0.005599 -0.000133 0.000000 
0.005865 0.000133 0.000000 
0.005865 -0.000133 0.000000 
0.006132 0.000133 0.000000 
0.006132 -0.000133 0.000000 
0.006398 0.000133 0.000000 
0.006398 -0.000133 0.000000 
0.006665 0.000133 0.000000 
0.006665 -0.000133 0.000000 
0.006932 0.000133 0.000000 
0.006932 -0.000133 0.000000 
0.007198 0.000133 0.000000 
0.007198 -0.000133 0.000000 
0.007465 0.000133 0.000000 
0.007465 -0.000133 0.000000 
0.007731 0.000133 0.000000 
0.007731 -0.000133 0.000000 
0.007998 0.000133 0.000000 
0.007998 -0.000133 0.000000 
0.008265 0.000133 0.000000 
0.008265 -0.000133 0.000000 
0.008531 0.000133 0.000000 
0.008531 -0.000133 0.000000 
0.008798 0.000133 0.000000 
0.008798 -0.000133 0.000000 
0.009064 0.000133 0.000000 
0.009064 -0.000133 0.000000 
0.009331 0.000133 0.000000 
0.009331 -0.000133 0.000000 
0.009598 0.000133 0.000000 
0.009598 -0.000133 0.000000 
0.009864 0.000133 0.000000 
0.009864 -0.000133 0.000000 
0.010131 0.000133 0.000000 
0.010131 -0.000133 0.000000 
0.010397 0.000133 0.000000 
0.010397 -0.000133 0.000000 
0.010664 0.000133 0.000000 
0.010664 -0.000133 0.000000 
0.010931 0.000133 0.000000 
0.010931 -0.000133 0.000000 
0.011197 0.000133 0.000000 
0.011197 -0.000133 0.000000 
0.011464 0.000133 0.000000 
0.011464 -0.000133 0.000000 
0.011730 0.000133 0.000000 
0.011730 -0.000133 0.000000 
0.011997 0.000133 0.000000 
0.011997 -0.000133 0.000000 
0.012264 0.000133 0.000000 
0.012264 -0.000133 0.000000 
0.012530 0.000133 0.000000 
0.012530 -0.000133 0.000000 
0.012797 0.000133 0.000000 
0.012797 -0.000133 0.000000 
0.013063 0.000133 0.000000 
0.013063 -0.000133 0.000000 
0.013330 0.000133 0.000000 
0.013330 -0.000133 0.000000 
0.013597 0.000133 0.000000 
0.013597 -0.000133 0.000000 
0.013863 0.000133 0.000000 
0.013863 -0.000133 0.000000 
0.014130 0.000133 0.000000 
0.014130 -0.000133 0.000000 
0.014396 0.000133 0.000000 
0.014396 -0.000133 0.000000 
0.014663 0.000133 0.000000 
0.014663 -0.000133 0.000000 
0.014930 0.000133 0.000000 
0.014930 -0.000133 0.000000 
0.015196 0.000133 0.000000 
0.015196 -0.000133 0.000000 
0.015463 0.000133 0.000000 
0.015463 -0.000133 0.000000 
0.015729 0.000133 0.000000 
0.015729 -0.000133 0.000000 
0.015996 0.000133 0.000000 
0.015996 -0.000133 0.000000 
0.016263 0.000133 0.000000 
0.016263 -0.000133 0.000000 
0.016529 0.000133 0.000000 
0.016529 -0.000133 0.000000 
0.016796 0.000133 0.000000 
0.016796 -0.000133 0.000000 
0.017062 0.000133 0.000000 
0.017062 -0.000133 0.000000 
0.017329 0.000133 0.000000 
0.017329 -0.000133 0.000000 
0.017596 0.000133 0.000000 
0.017596 -0.000133 0.000000 
0.017862 0.000133 0.000000 
0.017862 -0.000133 0.000000 
0.018129 0.000133 0.000000 
0.018129 -0.000133 0.000000 
0.018395 0.000133 0.000000 
0.018395 -0.000133 0.000000 
0.018662 0.000133 0.000000 
0.018662 -0.000133 0.000000 
0.018929 0.000133 0.000000 
0.018929 -0.000133 0.000000 
0.019195 0.000133 0.000000 
0.019195 -0.000133 0.000000 
0.019462 0.000133 0.000000 
0.019462 -0.000133 0.000000 
0.019728 0.000133 0.000000 
0.019728 -0.000133 0.000000 
0.019995 0.000133 0.000000 
0.019995 -0.000133 0.000000 
0.020262 0.000133 0.000000 
0.020262 -0.000133 0.000000 
0.020528 0.000133 0.000000 
0.020528 -0.000133 0.000000 
0.020795 0.000133 0.000000 
0.020795 -0.000133 0.000000 
0.021061 0.000133 0.000000 
0.021061 -0.000133 0.000000 
0.021328 0.000133 0.000000 
0.021328 -0.000133 0.000000 
0.021595 0.000133 0.000000 
0.021595 -0.000133 0.000000 
0.021861 0.000133 0.000000 
0.021861 -0.000133 0.000000 
0.022128 0.000133 0.000000 
0.022128 -0.000133 0.000000 
0.022394 0.000133 0.000000 
0.022394 -0.000133 0.000000 
0.022661 0.000133 0.000000 
0.022661 -0.000133 0.000000 
0.022928 0.000133 0.000000 
0.022928 -0.000133 0.000000 
0.023194 0.000133 0.000000 
0.023194 -0.000133 0.000000 
0.023461 0.000133 0.000000 
0.023461 -0.000133 0.000000 
0.023727 0.000133 0.000000 
0.023727 -0.000133 0.000000 
0.023994 0.000133 0.000000 
0.023994 -0.000133 0.000000 
0.024261 0.000133 0.000000 
0.024261 -0.000133 0.000000 
0.024527 0.000133 0.000000 
0.024527 -0.000133 0.000000 
0.024794 0.000133 0.000000 
0.024794 -0.000133 0.000000 
0.025060 0.000133 0.000000 
0.025060 -0.000133 0.000000 
0.025327 0.000133 0.000000 
0.025327 -0.000133 0.000000 
0.025594 0.000133 0.000000 
0.025594 -0.000133 0.000000 
0.025860 0.000133 0.000000 
0.025860 -0.000133 0.000000 
0.026127 0.000133 0.000000 
0.026127 -0.000133 0.000000 
0.026393 0.000133 0.000000 
0.026393 -0.000133 0.000000 
0.026660 0.000133 0.000000 
0.026660 -0.000133 0.000000 
0.026927 0.000133 0.000000 
0.026927 -0.000133 0.000000 
0.027193 0.000133 0.000000 
0.027193 -0.000133 0.000000 
0.027460 0.000133 0.000000 
0.027460 -0.000133 0.000000 
0.027726 0.000133 0.000000 
0.027726 -0.000133 0.000000 
0.027993 0.000133 0.000000 
0.027993 -0.000133 0.000000 
0.028260 0.000133 0.000000 
0.028260 -0.000133 0.000000 
0.028526 0.000133 0.000000 
0.028526 -0.000133 0.000000 
0.028793 0.000133 0.000000 
0.028793 -0.000133 0.000000 
0.029059 0.000133 0.000000 
0.029059 -0.000133 0.000000 
0.029326 0.000133 0.000000 
0.029326 -0.000133 0.000000 
0.029593 0.000133 0.000000 
0.029593 -0.000133 0.000000 
0.029859 0.000133 0.000000 
0.029859 -0.000133 0.000000 
0.030126 0.000133 0.000000 
0.030126 -0.000133 0.000000 
0.030392 0.000133 0.000000 
0.030392 -0.000133 0.000000 
0.030659 0.000133 0.000000 
0.030659 -0.000133 0.000000 
0.030926 0.000133 0.000000 
0.030926 -0.000133 0.000000 
0.031192 0.000133 0.000000 
0.031192 -0.000133 0.000000 
0.031459 0.000133 0.000000 
0.031459 -0.000133 0.000000 
0.031725 0.000133 0.000000 
0.031725 -0.000133 0.000000 
0.031992 0.000133 0.000000 
0.031992 -0.000133 0.000000 
0.032259 0.000133 0.000000 
0.032259 -0.000133 0.000000 
0.032525 0.000133 0.000000 
0.032525 -0.000133 0.000000 
0.032792 0.000133 0.000000 
0.032792 -0.000133 0.000000 
0.033058 0.000133 0.000000 
0.033058 -0.000133 0.000000 
0.033325 0.000133 0.000000 
0.033325 -0.000133 0.000000 
0.033592 0.000133 0.000000 
0.033592 -0.000133 0.000000 
0.033858 0.000133 0.000000 
0.033858 -0.000133 0.000000 
0.034125 0.000133 0.000000 
0.034125 -0.000133 0.000000 
0.034391 0.000133 0.000000 
0.034391 -0.000133 0.000000 
0.034658 0.000133 0.000000 
0.034658 -0.000133 0.000000 
0.034925 0.000133 0.000000 
0.034925 -0.000133 0.000000 
0.035191 0.000133 0.000000 
0.035191 -0.000133 0.000000 
0.035458 0.000133 0.000000 
0.035458 -0.000133 0.000000 
0.035724 0.000133 0.000000 
0.035724 -0.000133 0.000000 
0.035991 0.000133 0.000000 
0.035991 -0.000133 0.000000 
0.036258 0.000133 0.000000 
0.036258 -0.000133 0.000000 
0.036524 0.000133 0.000000 
0.036524 -0.000133 0.000000 
0.036791 0.000133 0.000000 
0.036791 -0.000133 0.000000 
0.037057 0.000133 0.000000 
0.037057 -0.000133 0.000000 
0.037324 0.000133 0.000000 
0.037324 -0.000133 0.000000 
0.037591 0.000133 0.000000 
0.037591 -0.000133 0.000000 
0.037857 0.000133 0.000000 
0.037857 -0.000133 0.000000 
0.038124 0.000133 0.000000 
0.038124 -0.000133 0.000000 
0.038390 0.000133 0.000000 
0.038390 -0.000133 0.000000 
0.038657 0.000133 0.000000 
0.038657 -0.000133 0.000000 
0.038924 0.000133 0.000000 
0.038924 -0.000133 0.000000 
0.039190 0.000133 0.000000 
0.039190 -0.000133 0.000000 
0.039457 0.000133 0.000000 
0.039457 -0.000133 0.000000 
0.039723 0.000133 0.000000 
0.039723 -0.000133 0.000000 
0.039990 0.000133 0.000000 
0.039990 -0.000133 0.000000 
0.040257 0.000133 0.000000 
0.040257 -0.000133 0.000000 
0.040523 0.000133 0.000000 
0.040523 -0.000133 0.000000 
0.040790 0.000133 0.000000 
0.040790 -0.000133 0.000000 
0.041056 0.000133 0.000000 
0.041056 -0.000133 0.000000 
0.041323 0.000133 0.000000 
0.041323 -0.000133 0.000000 
0.041590 0.000133 0.000000 
0.041590 -0.000133 0.000000 
0.041856 0.000133 0.000000 
0.041856 -0.000133 0.000000 
0.042123 0.000133 0.000000 
0.042123 -0.000133 0.000000 
0.042389 0.000133 0.000000 
0.042389 -0.000133 0.000000 
0.042656 0.000133 0.000000 
0.042656 -0.000133 0.000000 
0.042923 0.000133 0.000000 
0.042923 -0.000133 0.000000 
0.043189 0.000133 0.000000 
0.043189 -0.000133 0.000000 
0.043456 0.000133 0.000000 
0.043456 -0.000133 0.000000 
0.043722 0.000133 0.000000 
0.043722 -0.000133 0.000000 
0.043989 0.000133 0.000000 
0.043989 -0.000133 0.000000 
0.044256 0.000133 0.000000 
0.044256 -0.000133 0.000000 
0.044522 0.000133 0.000000 
0.044522 -0.000133 0.000000 
0.044789 0.000133 0.000000 
0.044789 -0.000133 0.000000 
0.045055 0.000133 0.000000 
0.045055 -0.000133 0.000000 
0.045322 0.000133 0.000000 
0.045322 -0.000133 0.000000 
0.045589 0.000133 0.000000 
0.045589 -0.000133 0.000000 
0.045855 0.000133 0.000000 
0.045855 -0.000133 0.000000 
0.046122 0.000133 0.000000 
0.046122 -0.000133 0.000000 
0.046388 0.000133 0.000000 
0.046388 -0.000133 0.000000 
0.046655 0.000133 0.000000 
0.046655 -0.000133 0.000000 
0.046922 0.000133 0.000000 
0.046922 -0.000133 0.000000 
0.047188 0.000133 0.000000 
0.047188 -0.000133 0.000000 
0.047455 0.000133 0.000000 
0.047455 -0.000133 0.000000 
0.047721 0.000133 0.000000 
0.047721 -0.000133 0.000000 
0.047988 0.000133 0.000000 
0.047988 -0.000133 0.000000 
0.048255 0.000133 0.000000 
0.048255 -0.000133 0.000000 
0.048521 0.000133 0.000000 
0.048521 -0.000133 0.000000 
0.048788 0.000133 0.000000 
0.048788 -0.000133 0.000000 
0.049054 0.000133 0.000000 
0.049054 -0.000133 0.000000 
0.049321 0.000133 0.000000 
0.049321 -0.000133 0.000000 
0.049588 0.000133 0.000000 
0.049588 -0.000133 0.000000 
0.049854 0.000133 0.000000 
0.049854 -0.000133 0.000000 
0.050121 0.000133 0.000000 
0.050121 -0.000133 0.000000 
0.050387 0.000133 0.000000 
0.050387 -0.000133 0.000000 
0.050654 0.000133 0.000000 
0.050654 -0.000133 0.000000 
0.050921 0.000133 0.000000 
0.050921 -0.000133 0.000000 
0.051187 0.000133 0.000000 
0.051187 -0.000133 0.000000 
0.051454 0.000133 0.000000 
0.051454 -0.000133 0.000000 
0.051720 0.000133 0.000000 
0.051720 -0.000133 0.000000 
0.051987 0.000133 0.000000 
0.051987 -0.000133 0.000000 
0.052254 0.000133 0.000000 
0.052254 -0.000133 0.000000 
0.052520 0.000133 0.000000 
0.052520 -0.000133 0.000000 
0.052787 0.000133 0.000000 
0.052787 -0.000133 0.000000 
0.053053 0.000133 0.000000 
0.053053 -0.000133 0.000000 
0.053320 0.000133 0.000000 
0.053320 -0.000133 0.000000 
0.053587 0.000133 0.000000 
0.053587 -0.000133 0.000000 
0.053853 0.000133 0.000000 
0.053853 -0.000133 0.000000 
0.054120 0.000133 0.000000 
0.054120 -0.000133 0.000000 
0.054386 0.000133 0.000000 
0.054386 -0.000133 0.000000 
0.054653 0.000133 0.000000 
0.054653 -0.000133 0.000000 
0.054920 0.000133 0.000000 
0.054920 -0.000133 0.000000 
0.055186 0.000133 0.000000 
0.055186 -0.000133 0.000000 
0.055453 0.000133 0.000000 
0.055453 -0.000133 0.000000 
0.055719 0.000133 0.000000 
0.055719 -0.000133 0.000000 
0.055986 0.000133 0.000000 
0.055986 -0.000133 0.000000 
0.056253 0.000133 0.000000 
0.056253 -0.000133 0.000000 
0.056519 0.000133 0.000000 
0.056519 -0.000133 0.000000 
0.056786 0.000133 0.000000 
0.056786 -0.000133 0.000000 
0.057052 0.000133 0.000000 
0.057052 -0.000133 0.000000 
0.057319 0.000133 0.000000 
0.057319 -0.000133 0.000000 
0.057586 0.000133 0.000000 
0.057586 -0.000133 0.000000 
0.057852 0.000133 0.000000 
0.057852 -0.000133 0.000000 
0.058119 0.000133 0.000000 
0.058119 -0.000133 0.000000 
0.058385 0.000133 0.000000 
0.058385 -0.000133 0.000000 
0.058652 0.000133 0.000000 
0.058652 -0.000133 0.000000 
0.058919 0.000133 0.000000 
0.058919 -0.000133 0.000000 
0.059185 0.000133 0.000000 
0.059185 -0.000133 0.000000 
0.059452 0.000133 0.000000 
0.059452 -0.000133 0.000000 
0.059718 0.000133 0.000000 
0.059718 -0.000133 0.000000 
0.059985 0.000133 0.000000 
0.059985 -0.000133 0.000000 
0.060252 0.000133 0.000000 
0.060252 -0.000133 0.000000 
0.060518 0.000133 0.000000 
0.060518 -0.000133 0.000000 
0.060785 0.000133 0.000000 
0.060785 -0.000133 0.000000 
0.061051 0.000133 0.000000 
0.061051 -0.000133 0.000000 
0.061318 0.000133 0.000000 
0.061318 -0.000133 0.000000 
0.061585 0.000133 0.000000 
0.061585 -0.000133 0.000000 
0.061851 0.000133 0.000000 
0.061851 -0.000133 0.000000 
0.062118 0.000133 0.000000 
0.062118 -0.000133 0.000000 
0.062384 0.000133 0.000000 
0.062384 -0.000133 0.000000 
0.062651 0.000133 0.000000 
0.062651 -0.000133 0.000000 
0.062918 0.000133 0.000000 
0.062918 -0.000133 0.000000 
0.063184 0.000133 0.000000 
0.063184 -0.000133 0.000000 
0.063451 0.000133 0.000000 
0.063451 -0.000133 0.000000 
0.063717 0.000133 0.000000 
0.063717 -0.000133 0.000000 
0.063984 0.000133 0.000000 
0.063984 -0.000133 0.000000 
0.064251 0.000133 0.000000 
0.064251 -0.000133 0.000000 
0.064517 0.000133 0.000000 
0.064517 -0.000133 0.000000 
0.064784 0.000133 0.000000 
0.064784 -0.000133 0.000000 
0.065050 0.000133 0.000000 
0.065050 -0.000133 0.000000 
0.065317 0.000133 0.000000 
0.065317 -0.000133 0.000000 
0.065584 0.000133 0.000000 
0.065584 -0.000133 0.000000 
0.065850 0.000133 0.000000 
0.065850 -0.000133 0.000000 
0.066117 0.000133 0.000000 
0.066117 -0.000133 0.000000 
0.066383 0.000133 0.000000 
0.066383 -0.000133 0.000000 
0.066650 0.000133 0.000000 
0.066650 -0.000133 0.000000 
0.066917 0.000133 0.000000 
0.066917 -0.000133 0.000000 
0.067183 0.000133 0.000000 
0.067183 -0.000133 0.000000 
0.067450 0.000133 0.000000 
0.067450 -0.000133 0.000000 
0.067716 0.000133 0.000000 
0.067716 -0.000133 0.000000 
0.067983 0.000133 0.000000 
0.067983 -0.000133 0.000000 
0.068250 0.000133 0.000000 
0.068250 -0.000133 0.000000 
0.068516 0.000133 0.000000 
0.068516 -0.000133 0.000000 
0.068783 0.000133 0.000000 
0.068783 -0.000133 0.000000 
0.069049 0.000133 0.000000 
0.069049 -0.000133 0.000000 
0.069316 0.000133 0.000000 
0.069316 -0.000133 0.000000 
0.069583 0.000133 0.000000 
0.069583 -0.000133 0.000000 
0.069849 0.000133 0.000000 
0.069849 -0.000133 0.000000 
0.070116 0.000133 0.000000 
0.070116 -0.000133 0.000000 
0.070382 0.000133 0.000000 
0.070382 -0.000133 0.000000 
0.070649 0.000133 0.000000 
0.070649 -0.000133 0.000000 
0.070916 0.000133 0.000000 
0.070916 -0.000133 0.000000 
0.071182 0.000133 0.000000 
0.071182 -0.000133 0.000000 
0.071449 0.000133 0.000000 
0.071449 -0.000133 0.000000 
0.071715 0.000133 0.000000 
0.071715 -0.000133 0.000000 
0.071982 0.000133 0.000000 
0.071982 -0.000133 0.000000 
0.072249 0.000133 0.000000 
0.072249 -0.000133 0.000000 
0.072515 0.000133 0.000000 
0.072515 -0.000133 0.000000 
0.072782 0.000133 0.000000 
0.072782 -0.000133 0.000000 
0.073048 0.000133 0.000000 
0.073048 -0.000133 0.000000 
0.073315 0.000133 0.000000 
0.073315 -0.000133 0.000000 
0.073582 0.000133 0.000000 
0.073582 -0.000133 0.000000 
0.073848 0.000133 0.000000 
0.073848 -0.000133 0.000000 
0.074115 0.000133 0.000000 
0.074115 -0.000133 0.000000 
0.074381 0.000133 0.000000 
0.074381 -0.000133 0.000000 
0.074648 0.000133 0.000000 
0.074648 -0.000133 0.000000 
0.074915 0.000133 0.000000 
0.074915 -0.000133 0.000000 
0.075181 0.000133 0.000000 
0.075181 -0.000133 0.000000 
0.075448 0.000133 0.000000 
0.075448 -0.000133 0.000000 
0.075714 0.000133 0.000000 
0.075714 -0.000133 0.000000 
0.075981 0.000133 0.000000 
0.075981 -0.000133 0.000000 
0.076248 0.000133 0.000000 
0.076248 -0.000133 0.000000 
0.076514 0.000133 0.000000 
0.076514 -0.000133 0.000000 
0.076781 0.000133 0.000000 
0.076781 -0.000133 0.000000 
0.077047 0.000133 0.000000 
0.077047 -0.000133 0.000000 
0.077314 0.000133 0.000000 
0.077314 -0.000133 0.000000 
0.077581 0.000133 0.000000 
0.077581 -0.000133 0.000000 
0.077847 0.000133 0.000000 
0.077847 -0.000133 0.000000 
0.078114 0.000133 0.000000 
0.078114 -0.000133 0.000000 
0.078380 0.000133 0.000000 
0.078380 -0.000133 0.000000 
0.078647 0.000133 0.000000 
0.078647 -0.000133 0.000000 
0.078914 0.000133 0.000000 
0.078914 -0.000133 0.000000 
0.079180 0.000133 0.000000 
0.079180 -0.000133 0.000000 
0.079447 0.000133 0.000000 
0.079447 -0.000133 0.000000 
0.079713 0.000133 0.000000 
0.079713 -0.000133 0.000000 
0.079980 0.000133 0.000000 
0.079980 -0.000133 0.000000 
0.080247 0.000133 0.000000 
0.080247 -0.000133 0.000000 
0.080513 0.000133 0.000000 
0.080513 -0.000133 0.000000 
0.080780 0.000133 0.000000 
0.080780 -0.000133 0.000000 
0.081046 0.000133 0.000000 
0.081046 -0.000133 0.000000 
0.081313 0.000133 0.000000 
0.081313 -0.000133 0.000000 
0.081580 0.000133 0.000000 
0.081580 -0.000133 0.000000 
0.081846 0.000133 0.000000 
0.081846 -0.000133 0.000000 
0.082113 0.000133 0.000000 
0.082113 -0.000133 0.000000 
0.082379 0.000133 0.000000 
0.082379 -0.000133 0.000000 
0.082646 0.000133 0.000000 
0.082646 -0.000133 0.000000 
0.082913 0.000133 0.000000 
0.082913 -0.000133 0.000000 
0.083179 0.000133 0.000000 
0.083179 -0.000133 0.000000 
0.083446 0.000133 0.000000 
0.083446 -0.000133 0.000000 
0.083712 0.000133 0.000000 
0.083712 -0.000133 0.000000 
0.083979 0.000133 0.000000 
0.083979 -0.000133 0.000000 
0.084246 0.000133 0.000000 
0.084246 -0.000133 0.000000 
0.084512 0.000133 0.000000 
0.084512 -0.000133 0.000000 
0.084779 0.000133 0.000000 
0.084779 -0.000133 0.000000 
0.085045 0.000133 0.000000 
0.085045 -0.000133 0.000000 
0.085312 0.000133 0.000000 
0.085312 -0.000133 0.000000 
0.085579 0.000133 0.000000 
0.085579 -0.000133 0.000000 
0.085845 0.000133 0.000000 
0.085845 -0.000133 0.000000 
0.086112 0.000133 0.000000 
0.086112 -0.000133 0.000000 
0.086378 0.000133 0.000000 
0.086378 -0.000133 0.000000 
0.086645 0.000133 0.000000 
0.086645 -0.000133 0.000000 
0.086912 0.000133 0.000000 
0.086912 -0.000133 0.000000 
0.087178 0.000133 0.000000 
0.087178 -0.000133 0.000000 
0.087445 0.000133 0.000000 
0.087445 -0.000133 0.000000 
0.087711 0.000133 0.000000 
0.087711 -0.000133 0.000000 
0.087978 0.000133 0.000000 
0.087978 -0.000133 0.000000 
0.088245 0.000133 0.000000 
0.088245 -0.000133 0.000000 
0.088511 0.000133 0.000000 
0.088511 -0.000133 0.000000 
0.088778 0.000133 0.000000 
0.088778 -0.000133 0.000000 
0.089044 0.000133 0.000000 
0.089044 -0.000133 0.000000 
0.089311 0.000133 0.000000 
0.089311 -0.000133 0.000000 
0.089578 0.000133 0.000000 
0.089578 -0.000133 0.000000 
0.089844 0.000133 0.000000 
0.089844 -0.000133 0.000000 
0.090111 0.000133 0.000000 
0.090111 -0.000133 0.000000 
0.090377 0.000133 0.000000 
0.090377 -0.000133 0.000000 
0.090644 0.000133 0.000000 
0.090644 -0.000133 0.000000 
0.090911 0.000133 0.000000 
0.090911 -0.000133 0.000000 
0.091177 0.000133 0.000000 
0.091177 -0.000133 0.000000 
0.091444 0.000133 0.000000 
0.091444 -0.000133 0.000000 
0.091710 0.000133 0.000000 
0.091710 -0.000133 0.000000 
0.091977 0.000133 0.000000 
0.091977 -0.000133 0.000000 
0.092244 0.000133 0.000000 
0.092244 -0.000133 0.000000 
0.092510 0.000133 0.000000 
0.092510 -0.000133 0.000000 
0.092777 0.000133 0.000000 
0.092777 -0.000133 0.000000 
0.093043 0.000133 0.000000 
0.093043 -0.000133 0.000000 