# vtk DataFile Version 3.0 
vtk output 
ASCII 
DATASET UNSTRUCTURED_GRID 
POINTS 2000 float 
0.000067 -0.000067 0.000000 
0.000200 -0.000067 0.000000 
0.000333 -0.000067 0.000000 
0.000467 -0.000067 0.000000 
0.000600 -0.000067 0.000000 
0.000733 -0.000067 0.000000 
0.000866 -0.000067 0.000000 
0.001000 -0.000067 0.000000 
0.001133 -0.000067 0.000000 
0.001266 -0.000067 0.000000 
0.001400 -0.000067 0.000000 
0.001533 -0.000067 0.000000 
0.001666 -0.000067 0.000000 
0.001800 -0.000067 0.000000 
0.001933 -0.000067 0.000000 
0.002066 -0.000067 0.000000 
0.002199 -0.000067 0.000000 
0.002333 -0.000067 0.000000 
0.002466 -0.000067 0.000000 
0.002599 -0.000067 0.000000 
0.002733 -0.000067 0.000000 
0.002866 -0.000067 0.000000 
0.002999 -0.000067 0.000000 
0.003133 -0.000067 0.000000 
0.003266 -0.000067 0.000000 
0.003399 -0.000067 0.000000 
0.003532 -0.000067 0.000000 
0.003666 -0.000067 0.000000 
0.003799 -0.000067 0.000000 
0.003932 -0.000067 0.000000 
0.004066 -0.000067 0.000000 
0.004199 -0.000067 0.000000 
0.004332 -0.000067 0.000000 
0.004466 -0.000067 0.000000 
0.004599 -0.000067 0.000000 
0.004732 -0.000067 0.000000 
0.004865 -0.000067 0.000000 
0.004999 -0.000067 0.000000 
0.005132 -0.000067 0.000000 
0.005265 -0.000067 0.000000 
0.005399 -0.000067 0.000000 
0.005532 -0.000067 0.000000 
0.005665 -0.000067 0.000000 
0.005799 -0.000067 0.000000 
0.005932 -0.000067 0.000000 
0.006065 -0.000067 0.000000 
0.006198 -0.000067 0.000000 
0.006332 -0.000067 0.000000 
0.006465 -0.000067 0.000000 
0.006598 -0.000067 0.000000 
0.006732 -0.000067 0.000000 
0.006865 -0.000067 0.000000 
0.006998 -0.000067 0.000000 
0.007132 -0.000067 0.000000 
0.007265 -0.000067 0.000000 
0.007398 -0.000067 0.000000 
0.007531 -0.000067 0.000000 
0.007665 -0.000067 0.000000 
0.007798 -0.000067 0.000000 
0.007931 -0.000067 0.000000 
0.008065 -0.000067 0.000000 
0.008198 -0.000067 0.000000 
0.008331 -0.000067 0.000000 
0.008465 -0.000067 0.000000 
0.008598 -0.000067 0.000000 
0.008731 -0.000067 0.000000 
0.008864 -0.000067 0.000000 
0.008998 -0.000067 0.000000 
0.009131 -0.000067 0.000000 
0.009264 -0.000067 0.000000 
0.009398 -0.000067 0.000000 
0.009531 -0.000067 0.000000 
0.009664 -0.000067 0.000000 
0.009798 -0.000067 0.000000 
0.009931 -0.000067 0.000000 
0.010064 -0.000067 0.000000 
0.010197 -0.000067 0.000000 
0.010331 -0.000067 0.000000 
0.010464 -0.000067 0.000000 
0.010597 -0.000067 0.000000 
0.010731 -0.000067 0.000000 
0.010864 -0.000067 0.000000 
0.010997 -0.000067 0.000000 
0.011131 -0.000067 0.000000 
0.011264 -0.000067 0.000000 
0.011397 -0.000067 0.000000 
0.011530 -0.000067 0.000000 
0.011664 -0.000067 0.000000 
0.011797 -0.000067 0.000000 
0.011930 -0.000067 0.000000 
0.012064 -0.000067 0.000000 
0.012197 -0.000067 0.000000 
0.012330 -0.000067 0.000000 
0.012464 -0.000067 0.000000 
0.012597 -0.000067 0.000000 
0.012730 -0.000067 0.000000 
0.012863 -0.000067 0.000000 
0.012997 -0.000067 0.000000 
0.013130 -0.000067 0.000000 
0.013263 -0.000067 0.000000 
0.013397 -0.000067 0.000000 
0.013530 -0.000067 0.000000 
0.013663 -0.000067 0.000000 
0.013797 -0.000067 0.000000 
0.013930 -0.000067 0.000000 
0.014063 -0.000067 0.000000 
0.014196 -0.000067 0.000000 
0.014330 -0.000067 0.000000 
0.014463 -0.000067 0.000000 
0.014596 -0.000067 0.000000 
0.014730 -0.000067 0.000000 
0.014863 -0.000067 0.000000 
0.014996 -0.000067 0.000000 
0.015130 -0.000067 0.000000 
0.015263 -0.000067 0.000000 
0.015396 -0.000067 0.000000 
0.015529 -0.000067 0.000000 
0.015663 -0.000067 0.000000 
0.015796 -0.000067 0.000000 
0.015929 -0.000067 0.000000 
0.016063 -0.000067 0.000000 
0.016196 -0.000067 0.000000 
0.016329 -0.000067 0.000000 
0.016463 -0.000067 0.000000 
0.016596 -0.000067 0.000000 
0.016729 -0.000067 0.000000 
0.016862 -0.000067 0.000000 
0.016996 -0.000067 0.000000 
0.017129 -0.000067 0.000000 
0.017262 -0.000067 0.000000 
0.017396 -0.000067 0.000000 
0.017529 -0.000067 0.000000 
0.017662 -0.000067 0.000000 
0.017796 -0.000067 0.000000 
0.017929 -0.000067 0.000000 
0.018062 -0.000067 0.000000 
0.018195 -0.000067 0.000000 
0.018329 -0.000067 0.000000 
0.018462 -0.000067 0.000000 
0.018595 -0.000067 0.000000 
0.018729 -0.000067 0.000000 
0.018862 -0.000067 0.000000 
0.018995 -0.000067 0.000000 
0.019129 -0.000067 0.000000 
0.019262 -0.000067 0.000000 
0.019395 -0.000067 0.000000 
0.019528 -0.000067 0.000000 
0.019662 -0.000067 0.000000 
0.019795 -0.000067 0.000000 
0.019928 -0.000067 0.000000 
0.020062 -0.000067 0.000000 
0.020195 -0.000067 0.000000 
0.020328 -0.000067 0.000000 
0.020462 -0.000067 0.000000 
0.020595 -0.000067 0.000000 
0.020728 -0.000067 0.000000 
0.020861 -0.000067 0.000000 
0.020995 -0.000067 0.000000 
0.021128 -0.000067 0.000000 
0.021261 -0.000067 0.000000 
0.021395 -0.000067 0.000000 
0.021528 -0.000067 0.000000 
0.021661 -0.000067 0.000000 
0.021795 -0.000067 0.000000 
0.021928 -0.000067 0.000000 
0.022061 -0.000067 0.000000 
0.022194 -0.000067 0.000000 
0.022328 -0.000067 0.000000 
0.022461 -0.000067 0.000000 
0.022594 -0.000067 0.000000 
0.022728 -0.000067 0.000000 
0.022861 -0.000067 0.000000 
0.022994 -0.000067 0.000000 
0.023128 -0.000067 0.000000 
0.023261 -0.000067 0.000000 
0.023394 -0.000067 0.000000 
0.023527 -0.000067 0.000000 
0.023661 -0.000067 0.000000 
0.023794 -0.000067 0.000000 
0.023927 -0.000067 0.000000 
0.024061 -0.000067 0.000000 
0.024194 -0.000067 0.000000 
0.024327 -0.000067 0.000000 
0.024461 -0.000067 0.000000 
0.024594 -0.000067 0.000000 
0.024727 -0.000067 0.000000 
0.024860 -0.000067 0.000000 
0.024994 -0.000067 0.000000 
0.025127 -0.000067 0.000000 
0.025260 -0.000067 0.000000 
0.025394 -0.000067 0.000000 
0.025527 -0.000067 0.000000 
0.025660 -0.000067 0.000000 
0.025794 -0.000067 0.000000 
0.025927 -0.000067 0.000000 
0.026060 -0.000067 0.000000 
0.026193 -0.000067 0.000000 
0.026327 -0.000067 0.000000 
0.026460 -0.000067 0.000000 
0.026593 -0.000067 0.000000 
0.026727 -0.000067 0.000000 
0.026860 -0.000067 0.000000 
0.026993 -0.000067 0.000000 
0.027127 -0.000067 0.000000 
0.027260 -0.000067 0.000000 
0.027393 -0.000067 0.000000 
0.027526 -0.000067 0.000000 
0.027660 -0.000067 0.000000 
0.027793 -0.000067 0.000000 
0.027926 -0.000067 0.000000 
0.028060 -0.000067 0.000000 
0.028193 -0.000067 0.000000 
0.028326 -0.000067 0.000000 
0.028460 -0.000067 0.000000 
0.028593 -0.000067 0.000000 
0.028726 -0.000067 0.000000 
0.028859 -0.000067 0.000000 
0.028993 -0.000067 0.000000 
0.029126 -0.000067 0.000000 
0.029259 -0.000067 0.000000 
0.029393 -0.000067 0.000000 
0.029526 -0.000067 0.000000 
0.029659 -0.000067 0.000000 
0.029793 -0.000067 0.000000 
0.029926 -0.000067 0.000000 
0.030059 -0.000067 0.000000 
0.030192 -0.000067 0.000000 
0.030326 -0.000067 0.000000 
0.030459 -0.000067 0.000000 
0.030592 -0.000067 0.000000 
0.030726 -0.000067 0.000000 
0.030859 -0.000067 0.000000 
0.030992 -0.000067 0.000000 
0.031126 -0.000067 0.000000 
0.031259 -0.000067 0.000000 
0.031392 -0.000067 0.000000 
0.031525 -0.000067 0.000000 
0.031659 -0.000067 0.000000 
0.031792 -0.000067 0.000000 
0.031925 -0.000067 0.000000 
0.032059 -0.000067 0.000000 
0.032192 -0.000067 0.000000 
0.032325 -0.000067 0.000000 
0.032459 -0.000067 0.000000 
0.032592 -0.000067 0.000000 
0.032725 -0.000067 0.000000 
0.032858 -0.000067 0.000000 
0.032992 -0.000067 0.000000 
0.033125 -0.000067 0.000000 
0.033258 -0.000067 0.000000 
0.033392 -0.000067 0.000000 
0.033525 -0.000067 0.000000 
0.033658 -0.000067 0.000000 
0.033792 -0.000067 0.000000 
0.033925 -0.000067 0.000000 
0.034058 -0.000067 0.000000 
0.034191 -0.000067 0.000000 
0.034325 -0.000067 0.000000 
0.034458 -0.000067 0.000000 
0.034591 -0.000067 0.000000 
0.034725 -0.000067 0.000000 
0.034858 -0.000067 0.000000 
0.034991 -0.000067 0.000000 
0.035125 -0.000067 0.000000 
0.035258 -0.000067 0.000000 
0.035391 -0.000067 0.000000 
0.035524 -0.000067 0.000000 
0.035658 -0.000067 0.000000 
0.035791 -0.000067 0.000000 
0.035924 -0.000067 0.000000 
0.036058 -0.000067 0.000000 
0.036191 -0.000067 0.000000 
0.036324 -0.000067 0.000000 
0.036458 -0.000067 0.000000 
0.036591 -0.000067 0.000000 
0.036724 -0.000067 0.000000 
0.036857 -0.000067 0.000000 
0.036991 -0.000067 0.000000 
0.037124 -0.000067 0.000000 
0.037257 -0.000067 0.000000 
0.037391 -0.000067 0.000000 
0.037524 -0.000067 0.000000 
0.037657 -0.000067 0.000000 
0.037791 -0.000067 0.000000 
0.037924 -0.000067 0.000000 
0.038057 -0.000067 0.000000 
0.038190 -0.000067 0.000000 
0.038324 -0.000067 0.000000 
0.038457 -0.000067 0.000000 
0.038590 -0.000067 0.000000 
0.038724 -0.000067 0.000000 
0.038857 -0.000067 0.000000 
0.038990 -0.000067 0.000000 
0.039124 -0.000067 0.000000 
0.039257 -0.000067 0.000000 
0.039390 -0.000067 0.000000 
0.039523 -0.000067 0.000000 
0.039657 -0.000067 0.000000 
0.039790 -0.000067 0.000000 
0.039923 -0.000067 0.000000 
0.040057 -0.000067 0.000000 
0.040190 -0.000067 0.000000 
0.040323 -0.000067 0.000000 
0.040457 -0.000067 0.000000 
0.040590 -0.000067 0.000000 
0.040723 -0.000067 0.000000 
0.040856 -0.000067 0.000000 
0.040990 -0.000067 0.000000 
0.041123 -0.000067 0.000000 
0.041256 -0.000067 0.000000 
0.041390 -0.000067 0.000000 
0.041523 -0.000067 0.000000 
0.041656 -0.000067 0.000000 
0.041790 -0.000067 0.000000 
0.041923 -0.000067 0.000000 
0.042056 -0.000067 0.000000 
0.042189 -0.000067 0.000000 
0.042323 -0.000067 0.000000 
0.042456 -0.000067 0.000000 
0.042589 -0.000067 0.000000 
0.042723 -0.000067 0.000000 
0.042856 -0.000067 0.000000 
0.042989 -0.000067 0.000000 
0.043123 -0.000067 0.000000 
0.043256 -0.000067 0.000000 
0.043389 -0.000067 0.000000 
0.043522 -0.000067 0.000000 
0.043656 -0.000067 0.000000 
0.043789 -0.000067 0.000000 
0.043922 -0.000067 0.000000 
0.044056 -0.000067 0.000000 
0.044189 -0.000067 0.000000 
0.044322 -0.000067 0.000000 
0.044456 -0.000067 0.000000 
0.044589 -0.000067 0.000000 
0.044722 -0.000067 0.000000 
0.044855 -0.000067 0.000000 
0.044989 -0.000067 0.000000 
0.045122 -0.000067 0.000000 
0.045255 -0.000067 0.000000 
0.045389 -0.000067 0.000000 
[...]
POINT_DATA 2000 
VECTORS X_GC float 
0.000067 -0.000067 0.000000 
0.000200 -0.000067 0.000000 
0.000333 -0.000067 0.000000 
0.000467 -0.000067 0.000000 
0.000600 -0.000067 0.000000 
0.000733 -0.000067 0.000000 
0.000866 -0.000067 0.000000 
0.001000 -0.000067 0.000000 
0.001133 -0.000067 0.000000 
0.001266 -0.000067 0.000000 
0.001400 -0.000067 0.000000 
0.001533 -0.000067 0.000000 
0.001666 -0.000067 0.000000 
0.001800 -0.000067 0.000000 
0.001933 -0.000067 0.000000 
0.002066 -0.000067 0.000000 
0.002199 -0.000067 0.000000 
0.002333 -0.000067 0.000000 
0.002466 -0.000067 0.000000 
0.002599 -0.000067 0.000000 
0.002733 -0.000067 0.000000 
0.002866 -0.000067 0.000000 
0.002999 -0.000067 0.000000 
0.003133 -0.000067 0.000000 
0.003266 -0.000067 0.000000 
0.003399 -0.000067 0.000000 
0.003532 -0.000067 0.000000 
0.003666 -0.000067 0.000000 
0.003799 -0.000067 0.000000 
0.003932 -0.000067 0.000000 
0.004066 -0.000067 0.000000 
0.004199 -0.000067 0.000000 
0.004332 -0.000067 0.000000 
0.004466 -0.000067 0.000000 
0.004599 -0.000067 0.000000 
0.004732 -0.000067 0.000000 
0.004865 -0.000067 0.000000 
0.004999 -0.000067 0.000000 
0.005132 -0.000067 0.000000 
0.005265 -0.000067 0.000000 
0.005399 -0.000067 0.000000 
0.005532 -0.000067 0.000000 
0.005665 -0.000067 0.000000 
0.005799 -0.000067 0.000000 
0.005932 -0.000067 0.000000 
0.006065 -0.000067 0.000000 
0.006198 -0.000067 0.000000 
0.006332 -0.000067 0.000000 
0.006465 -0.000067 0.000000 
0.006598 -0.000067 0.000000 
0.006732 -0.000067 0.000000 
0.006865 -0.000067 0.000000 
0.006998 -0.000067 0.000000 
0.007132 -0.000067 0.000000 
0.007265 -0.000067 0.000000 
0.007398 -0.000067 0.000000 
0.007531 -0.000067 0.000000 
0.007665 -0.000067 0.000000 
0.007798 -0.000067 0.000000 
0.007931 -0.000067 0.000000 
0.008065 -0.000067 0.000000 
0.008198 -0.000067 0.000000 
0.008331 -0.000067 0.000000 
0.008465 -0.000067 0.000000 
0.008598 -0.000067 0.000000 
0.008731 -0.000067 0.000000 
0.008864 -0.000067 0.000000 
0.008998 -0.000067 0.000000 
0.009131 -0.000067 0.000000 
0.009264 -0.000067 0.000000 
0.009398 -0.000067 0.000000 
0.009531 -0.000067 0.000000 
0.009664 -0.000067 0.000000 
0.009798 -0.000067 0.000000 
0.009931 -0.000067 0.000000 
0.010064 -0.000067 0.000000 
0.010197 -0.000067 0.000000 
0.010331 -0.000067 0.000000 
0.010464 -0.000067 0.000000 
0.010597 -0.000067 0.000000 
0.010731 -0.000067 0.000000 
0.010864 -0.000067 0.000000 
0.010997 -0.000067 0.000000 
0.011131 -0.000067 0.000000 
0.011264 -0.000067 0.000000 
0.011397 -0.000067 0.000000 
0.011530 -0.000067 0.000000 
0.011664 -0.000067 0.000000 
0.011797 -0.000067 0.000000 
0.011930 -0.000067 0.000000 
0.012064 -0.000067 0.000000 
0.012197 -0.000067 0.000000 
0.012330 -0.000067 0.000000 
0.012464 -0.000067 0.000000 
0.012597 -0.000067 0.000000 
0.012730 -0.000067 0.000000 
0.012863 -0.000067 0.000000 
0.012997 -0.000067 0.000000 
0.013130 -0.000067 0.000000 
0.013263 -0.000067 0.000000 
0.013397 -0.000067 0.000000 
0.013530 -0.000067 0.000000 
0.013663 -0.000067 0.000000 
0.013797 -0.000067 0.000000 
0.013930 -0.000067 0.000000 
0.014063 -0.000067 0.000000 
0.014196 -0.000067 0.000000 
0.014330 -0.000067 0.000000 
0.014463 -0.000067 0.000000 
0.014596 -0.000067 0.000000 
0.014730 -0.000067 0.000000 
0.014863 -0.000067 0.000000 
0.014996 -0.000067 0.000000 
0.015130 -0.000067 0.000000 
0.015263 -0.000067 0.000000 
0.015396 -0.000067 0.000000 
0.015529 -0.000067 0.000000 
0.015663 -0.000067 0.000000 
0.015796 -0.000067 0.000000 
0.015929 -0.000067 0.000000 
0.016063 -0.000067 0.000000 
0.016196 -0.000067 0.000000 
0.016329 -0.000067 0.000000 
0.016463 -0.000067 0.000000 
0.016596 -0.000067 0.000000 
0.016729 -0.000067 0.000000 
0.016862 -0.000067 0.000000 
0.016996 -0.000067 0.000000 
0.017129 -0.000067 0.000000 
0.017262 -0.000067 0.000000 
0.017396 -0.000067 0.000000 
0.017529 -0.000067 0.000000 
0.017662 -0.000067 0.000000 
0.017796 -0.000067 0.000000 
0.017929 -0.000067 0.000000 
0.018062 -0.000067 0.000000 
0.018195 -0.000067 0.000000 
0.018329 -0.000067 0.000000 
0.018462 -0.000067 0.000000 
0.018595 -0.000067 0.000000 
0.018729 -0.000067 0.000000 
0.018862 -0.000067 0.000000 
0.018995 -0.000067 0.000000 
0.019129 -0.000067 0.000000 
0.019262 -0.000067 0.000000 
0.019395 -0.000067 0.000000 
0.019528 -0.000067 0.000000 
0.019662 -0.000067 0.000000 
0.019795 -0.000067 0.000000 
0.019928 -0.000067 0.000000 
0.020062 -0.000067 0.000000 
0.020195 -0.000067 0.000000 
0.020328 -0.000067 0.000000 
0.020462 -0.000067 0.000000 
0.020595 -0.000067 0.000000 
0.020728 -0.000067 0.000000 
0.020861 -0.000067 0.000000 
0.020995 -0.000067 0.000000 
0.021128 -0.000067 0.000000 
0.021261 -0.000067 0.000000 
0.021395 -0.000067 0.000000 
0.021528 -0.000067 0.000000 
0.021661 -0.000067 0.000000 
0.021795 -0.000067 0.000000 
0.021928 -0.000067 0.000000 
0.022061 -0.000067 0.000000 
0.022194 -0.000067 0.000000 
0.022328 -0.000067 0.000000 
0.022461 -0.000067 0.000000 
0.022594 -0.000067 0.000000 
0.022728 -0.000067 0.000000 
0.022861 -0.000067 0.000000 
0.022994 -0.000067 0.000000 
0.023128 -0.000067 0.000000 
0.023261 -0.000067 0.000000 
0.023394 -0.000067 0.000000 
0.023527 -0.000067 0.000000 
0.023661 -0.000067 0.000000 
0.023794 -0.000067 0.000000 
0.023927 -0.000067 0.000000 
0.024061 -0.000067 0.000000 
0.024194 -0.000067 0.000000 
0.024327 -0.000067 0.000000 
0.024461 -0.000067 0.000000 
0.024594 -0.000067 0.000000 
0.024727 -0.000067 0.000000 
0.024860 -0.000067 0.000000 
0.024994 -0.000067 0.000000 
0.025127 -0.000067 0.000000 
0.025260 -0.000067 0.000000 
0.025394 -0.000067 0.000000 
0.025527 -0.000067 0.000000 
0.025660 -0.000067 0.000000 
0.025794 -0.000067 0.000000 
0.025927 -0.000067 0.000000 
0.026060 -0.000067 0.000000 
0.026193 -0.000067 0.000000 
0.026327 -0.000067 0.000000 
0.026460 -0.000067 0.000000 
0.026593 -0.000067 0.000000 
0.026727 -0.000067 0.000000 
0.026860 -0.000067 0.000000 
0.026993 -0.000067 0.000000 
0.027127 -0.000067 0.000000 
0.027260 -0.000067 0.000000 
0.027393 -0.000067 0.000000 
0.027526 -0.000067 0.000000 
0.027660 -0.000067 0.000000 
0.027793 -0.000067 0.000000 
0.027926 -0.000067 0.000000 
0.028060 -0.000067 0.000000 
0.028193 -0.000067 0.000000 
0.028326 -0.000067 0.000000 
0.028460 -0.000067 0.000000 
0.028593 -0.000067 0.000000 
0.028726 -0.000067 0.000000 
0.028859 -0.000067 0.000000 
0.028993 -0.000067 0.000000 
0.029126 -0.000067 0.000000 
0.029259 -0.000067 0.000000 
0.029393 -0.000067 0.000000 
0.029526 -0.000067 0.000000 
0.029659 -0.000067 0.000000 
0.029793 -0.000067 0.000000 
0.029926 -0.000067 0.000000 
0.030059 -0.000067 0.000000 
0.030192 -0.000067 0.000000 
0.030326 -0.000067 0.000000 
0.030459 -0.000067 0.000000 
0.030592 -0.000067 0.000000 
0.030726 -0.000067 0.000000 
0.030859 -0.000067 0.000000 
0.030992 -0.000067 0.000000 
0.031126 -0.000067 0.000000 
0.031259 -0.000067 0.000000 
0.031392 -0.000067 0.000000 
0.031525 -0.000067 0.000000 
0.031659 -0.000067 0.000000 
0.031792 -0.000067 0.000000 
0.031925 -0.000067 0.000000 
0.032059 -0.000067 0.000000 
0.032192 -0.000067 0.000000 
0.032325 -0.000067 0.000000 
0.032459 -0.000067 0.000000 
0.032592 -0.000067 0.000000 
0.032725 -0.000067 0.000000 
0.032858 -0.000067 0.000000 
0.032992 -0.000067 0.000000 
0.033125 -0.000067 0.000000 
0.033258 -0.000067 0.000000 
0.033392 -0.000067 0.000000 
0.033525 -0.000067 0.000000 
0.033658 -0.000067 0.000000 
0.033792 -0.000067 0.000000 
0.033925 -0.000067 0.000000 
0.034058 -0.000067 0.000000 
0.034191 -0.000067 0.000000 
0.034325 -0.000067 0.000000 
0.034458 -0.000067 0.000000 
0.034591 -0.000067 0.000000 
0.034725 -0.000067 0.000000 
0.034858 -0.000067 0.000000 
0.034991 -0.000067 0.000000 
0.035125 -0.000067 0.000000 
0.035258 -0.000067 0.000000 
0.035391 -0.000067 0.000000 
0.035524 -0.000067 0.000000 
0.035658 -0.000067 0.000000 
0.035791 -0.000067 0.000000 
0.035924 -0.000067 0.000000 
0.036058 -0.000067 0.000000 
0.036191 -0.000067 0.000000 
0.036324 -0.000067 0.000000 
0.036458 -0.000067 0.000000 
0.036591 -0.000067 0.000000 
0.036724 -0.000067 0.000000 
0.036857 -0.000067 0.000000 
0.036991 -0.000067 0.000000 
0.037124 -0.000067 0.000000 
0.037257 -0.000067 0.000000 
0.037391 -0.000067 0.000000 
0.037524 -0.000067 0.000000 
0.037657 -0.000067 0.000000 
0.037791 -0.000067 0.000000 
0.037924 -0.000067 0.000000 
0.038057 -0.000067 0.000000 
0.038190 -0.000067 0.000000 
0.038324 -0.000067 0.000000 
0.038457 -0.000067 0.000000 
0.038590 -0.000067 0.000000 
0.038724 -0.000067 0.000000 
0.038857 -0.000067 0.000000 
0.038990 -0.000067 0.000000 
0.039124 -0.000067 0.000000 
0.039257 -0.000067 0.000000 
0.039390 -0.000067 0.000000 
0.039523 -0.000067 0.000000 
0.039657 -0.000067 0.000000 
0.039790 -0.000067 0.000000 
0.039923 -0.000067 0.000000 
0.040057 -0.000067 0.000000 
0.040190 -0.000067 0.000000 
0.040323 -0.000067 0.000000 
0.040457 -0.000067 0.000000 
0.040590 -0.000067 0.000000 
0.040723 -0.000067 0.000000 
0.040856 -0.000067 0.000000 
0.040990 -0.000067 0.000000 
0.041123 -0.000067 0.000000 
0.041256 -0.000067 0.000000 
0.041390 -0.000067 0.000000 
0.041523 -0.000067 0.000000 
0.041656 -0.000067 0.000000 
0.041790 -0.000067 0.000000 
0.041923 -0.000067 0.000000 
0.042056 -0.000067 0.000000 
0.042189 -0.000067 0.000000 
0.042323 -0.000067 0.000000 
0.042456 -0.000067 0.000000 
0.042589 -0.000067 0.000000 
0.042723 -0.000067 0.000000 
0.042856 -0.000067 0.000000 
0.042989 -0.000067 0.000000 
0.043123 -0.000067 0.000000 
0.043256 -0.000067 0.000000 
0.043389 -0.000067 0.000000 
0.043522 -0.000067 0.000000 
0.043656 -0.000067 0.000000 
0.043789 -0.000067 0.000000 
0.043922 -0.000067 0.000000 
0.044056 -0.000067 0.000000 
0.044189 -0.000067 0.000000 
0.044322 -0.000067 0.000000 
0.044456 -0.000067 0.000000 
0.044589 -0.000067 0.000000 
0.044722 -0.000067 0.000000 
0.044855 -0.000067 0.000000 
0.044989 -0.000067 0.000000 
0.045122 -0.000067 0.000000 
0.045255 -0.000067 0.000000 
0.045389 -0.000067 0.000000 
0.045522 -0.000067 0.000000 
0.045655 -0.000067 0.000000 
0.045789 -0.000067 0.000000 
0.045922 -0.000067 0.000000 
0.046055 -0.000067 0.000000 
0.046188 -0.000067 0.000000 
0.046322 -0.000067 0.000000 
0.046455 -0.000067 0.000000 
0.046588 -0.000067 0.000000 
0.046722 -0.000067 0.000000 
0.046855 -0.000067 0.000000 
0.046988 -0.000067 0.000000 
0.047122 -0.000067 0.000000 
0.047255 -0.000067 0.000000 
0.047388 -0.000067 0.000000 
0.047521 -0.000067 0.000000 
0.047655 -0.000067 0.000000 
0.047788 -0.000067 0.000000 
0.047921 -0.000067 0.000000 
0.048055 -0.000067 0.000000 
0.048188 -0.000067 0.000000 
0.048321 -0.000067 0.000000 
0.048455 -0.000067 0.000000 
0.048588 -0.000067 0.000000 
0.048721 -0.000067 0.000000 
0.048854 -0.000067 0.000000 
0.048988 -0.000067 0.000000 
0.049121 -0.000067 0.000000 
0.049254 -0.000067 0.000000 
0.049388 -0.000067 0.000000 
0.049521 -0.000067 0.000000 
0.049654 -0.000067 0.000000 
0.049788 -0.000067 0.000000 
0.049921 -0.000067 0.000000 
0.050054 -0.000067 0.000000 
0.050187 -0.000067 0.000000 
0.050321 -0.000067 0.000000 
0.050454 -0.000067 0.000000 
0.050587 -0.000067 0.000000 
0.050721 -0.000067 0.000000 
0.050854 -0.000067 0.000000 
0.050987 -0.000067 0.000000 
0.051121 -0.000067 0.000000 
0.051254 -0.000067 0.000000 
0.051387 -0.000067 0.000000 
0.051520 -0.000067 0.000000 
0.051654 -0.000067 0.000000 
0.051787 -0.000067 0.000000 
0.051920 -0.000067 0.000000 
0.052054 -0.000067 0.000000 
0.052187 -0.000067 0.000000 
0.052320 -0.000067 0.000000 
0.052454 -0.000067 0.000000 
0.052587 -0.000067 0.000000 
0.052720 -0.000067 0.000000 
0.052853 -0.000067 0.000000 
0.052987 -0.000067 0.000000 
0.053120 -0.000067 0.000000 
0.053253 -0.000067 0.000000 
0.053387 -0.000067 0.000000 
0.053520 -0.000067 0.000000 
0.053653 -0.000067 0.000000 
0.053787 -0.000067 0.000000 
0.053920 -0.000067 0.000000 
0.054053 -0.000067 0.000000 
0.054186 -0.000067 0.000000 
0.054320 -0.000067 0.000000 
0.054453 -0.000067 0.000000 
0.054586 -0.000067 0.000000 
0.054720 -0.000067 0.000000 
0.054853 -0.000067 0.000000 
0.054986 -0.000067 0.000000 
0.055120 -0.000067 0.000000 
0.055253 -0.000067 0.000000 
0.055386 -0.000067 0.000000 
0.055519 -0.000067 0.000000 
0.055653 -0.000067 0.000000 
0.055786 -0.000067 0.000000 
0.055919 -0.000067 0.000000 
0.056053 -0.000067 0.000000 
0.056186 -0.000067 0.000000 
0.056319 -0.000067 0.000000 
0.056453 -0.000067 0.000000 
0.056586 -0.000067 0.000000 
0.056719 -0.000067 0.000000 
0.056852 -0.000067 0.000000 
0.056986 -0.000067 0.000000 
0.057119 -0.000067 0.000000 
0.057252 -0.000067 0.000000 
0.057386 -0.000067 0.000000 
0.057519 -0.000067 0.000000 
0.057652 -0.000067 0.000000 
0.057786 -0.000067 0.000000 
0.057919 -0.000067 0.000000 
0.058052 -0.000067 0.000000 
0.058185 -0.000067 0.000000 
0.058319 -0.000067 0.000000 
0.058452 -0.000067 0.000000 
0.058585 -0.000067 0.000000 
0.058719 -0.000067 0.000000 
0.058852 -0.000067 0.000000 
0.058985 -0.000067 0.000000 
0.059119 -0.000067 0.000000 
0.059252 -0.000067 0.000000 
0.059385 -0.000067 0.000000 
0.059518 -0.000067 0.000000 
0.059652 -0.000067 0.000000 
0.059785 -0.000067 0.000000 
0.059918 -0.000067 0.000000 
0.060052 -0.000067 0.000000 
0.060185 -0.000067 0.000000 
0.060318 -0.000067 0.000000 
0.060452 -0.000067 0.000000 
0.060585 -0.000067 0.000000 
0.060718 -0.000067 0.000000 
0.060851 -0.000067 0.000000 
0.060985 -0.000067 0.000000 
0.061118 -0.000067 0.000000 
0.061251 -0.000067 0.000000 
0.061385 -0.000067 0.000000 
0.061518 -0.000067 0.000000 
0.061651 -0.000067 0.000000 
0.061785 -0.000067 0.000000 
0.061918 -0.000067 0.000000 
0.062051 -0.000067 0.000000 
0.062184 -0.000067 0.000000 
0.062318 -0.000067 0.000000 
0.062451 -0.000067 0.000000 
0.062584 -0.000067 0.000000 
0.062718 -0.000067 0.000000 
0.062851 -0.000067 0.000000 
0.062984 -0.000067 0.000000 
0.063118 -0.000067 0.000000 
0.063251 -0.000067 0.000000 
0.063384 -0.000067 0.000000 
0.063517 -0.000067 0.000000 
0.063651 -0.000067 0.000000 
0.063784 -0.000067 0.000000 
0.063917 -0.000067 0.000000 
0.064051 -0.000067 0.000000 
0.064184 -0.000067 0.000000 
0.064317 -0.000067 0.000000 
0.064451 -0.000067 0.000000 
0.064584 -0.000067 0.000000 
0.064717 -0.000067 0.000000 
0.064850 -0.000067 0.000000 
0.064984 -0.000067 0.000000 
0.065117 -0.000067 0.000000 
0.065250 -0.000067 0.000000 
0.065384 -0.000067 0.000000 
0.065517 -0.000067 0.000000 
0.065650 -0.000067 0.000000 
0.065784 -0.000067 0.000000 
0.065917 -0.000067 0.000000 
0.066050 -0.000067 0.000000 
0.066183 -0.000067 0.000000 
0.066317 -0.000067 0.000000 
0.066450 -0.000067 0.000000 
0.066583 -0.000067 0.000000 
0.066717 -0.000067 0.000000 
0.066850 -0.000067 0.000000 
0.066983 -0.000067 0.000000 
0.067117 -0.000067 0.000000 
0.067250 -0.000067 0.000000 
0.067383 -0.000067 0.000000 
0.067516 -0.000067 0.000000 
0.067650 -0.000067 0.000000 
0.067783 -0.000067 0.000000 
0.067916 -0.000067 0.000000 
0.068050 -0.000067 0.000000 
0.068183 -0.000067 0.000000 
0.068316 -0.000067 0.000000 
0.068450 -0.000067 0.000000 
0.068583 -0.000067 0.000000 
0.068716 -0.000067 0.000000 
0.068849 -0.000067 0.000000 
0.068983 -0.000067 0.000000 
0.069116 -0.000067 0.000000 
0.069249 -0.000067 0.000000 
0.069383 -0.000067 0.000000 
0.069516 -0.000067 0.000000 
0.069649 -0.000067 0.000000 
0.069783 -0.000067 0.000000 
0.069916 -0.000067 0.000000 
0.070049 -0.000067 0.000000 
0.070182 -0.000067 0.000000 
0.070316 -0.000067 0.000000 
0.070449 -0.000067 0.000000 
0.070582 -0.000067 0.000000 
0.070716 -0.000067 0.000000 
0.070849 -0.000067 0.000000 
0.070982 -0.000067 0.000000 
0.071116 -0.000067 0.000000 
0.071249 -0.000067 0.000000 
0.071382 -0.000067 0.000000 
0.071515 -0.000067 0.000000 
0.071649 -0.000067 0.000000 
0.071782 -0.000067 0.000000 
0.071915 -0.000067 0.000000 
0.072049 -0.000067 0.000000 
0.072182 -0.000067 0.000000 
0.072315 -0.000067 0.000000 
0.072449 -0.000067 0.000000 
0.072582 -0.000067 0.000000 
0.072715 -0.000067 0.000000 
0.072848 -0.000067 0.000000 
0.072982 -0.000067 0.000000 
0.073115 -0.000067 0.000000 
0.073248 -0.000067 0.000000 
0.073382 -0.000067 0.000000 
0.073515 -0.000067 0.000000 
0.073648 -0.000067 0.000000 
0.073782 -0.000067 0.000000 
0.073915 -0.000067 0.000000 
0.074048 -0.000067 0.000000 
0.074181 -0.000067 0.000000 
0.074315 -0.000067 0.000000 
0.074448 -0.000067 0.000000 
0.074581 -0.000067 0.000000 
0.074715 -0.000067 0.000000 
0.074848 -0.000067 0.000000 
0.074981 -0.000067 0.000000 
0.075115 -0.000067 0.000000 
0.075248 -0.000067 0.000000 
0.075381 -0.000067 0.000000 
0.075514 -0.000067 0.000000 
0.075648 -0.000067 0.000000 
0.075781 -0.000067 0.000000 
0.075914 -0.000067 0.000000 
0.076048 -0.000067 0.000000 
0.076181 -0.000067 0.000000 
0.076314 -0.000067 0.000000 
0.076448 -0.000067 0.000000 
0.076581 -0.000067 0.000000 
0.076714 -0.000067 0.000000 
0.076847 -0.000067 0.000000 
0.076981 -0.000067 0.000000 
0.077114 -0.000067 0.000000 
0.077247 -0.000067 0.000000 
0.077381 -0.000067 0.000000 
0.077514 -0.000067 0.000000 
0.077647 -0.000067 0.000000 
0.077781 -0.000067 0.000000 
0.077914 -0.000067 0.000000 
0.078047 -0.000067 0.000000 
0.078180 -0.000067 0.000000 
0.078314 -0.000067 0.000000 
0.078447 -0.000067 0.000000 
0.078580 -0.000067 0.000000 
0.078714 -0.000067 0.000000 
0.078847 -0.000067 0.000000 
0.078980 -0.000067 0.000000 
0.079114 -0.000067 0.000000 
0.079247 -0.000067 0.000000 
0.079380 -0.000067 0.000000 
0.079513 -0.000067 0.000000 
0.079647 -0.000067 0.000000 
0.079780 -0.000067 0.000000 
0.079913 -0.000067 0.000000 
0.080047 -0.000067 0.000000 
0.080180 -0.000067 0.000000 
0.080313 -0.000067 0.000000 
0.080447 -0.000067 0.000000 
0.080580 -0.000067 0.000000 
0.080713 -0.000067 0.000000 
0.080846 -0.000067 0.000000 
0.080980 -0.000067 0.000000 
0.081113 -0.000067 0.000000 
0.081246 -0.000067 0.000000 
0.081380 -0.000067 0.000000 
0.081513 -0.000067 0.000000 
0.081646 -0.000067 0.000000 
0.081780 -0.000067 0.000000 
0.081913 -0.000067 0.000000 
0.082046 -0.000067 0.000000 
0.082179 -0.000067 0.000000 
0.082313 -0.000067 0.000000 
0.082446 -0.000067 0.000000 
0.082579 -0.000067 0.000000 
0.082713 -0.000067 0.000000 
0.082846 -0.000067 0.000000 
0.082979 -0.000067 0.000000 
0.083113 -0.000067 0.000000 
0.083246 -0.000067 0.000000 
0.083379 -0.000067 0.000000 
0.083512 -0.000067 0.000000 
0.083646 -0.000067 0.000000 
0.083779 -0.000067 0.000000 
0.083912 -0.000067 0.000000 
0.084046 -0.000067 0.000000 
0.084179 -0.000067 0.000000 
0.084312 -0.000067 0.000000 
0.084446 -0.000067 0.000000 
0.084579 -0.000067 0.000000 
0.084712 -0.000067 0.000000 
0.084845 -0.000067 0.000000 
0.084979 -0.000067 0.000000 
0.085112 -0.000067 0.000000 
0.085245 -0.000067 0.000000 
0.085379 -0.000067 0.000000 
0.085512 -0.000067 0.000000 
0.085645 -0.000067 0.000000 
0.085779 -0.000067 0.000000 
0.085912 -0.000067 0.000000 
0.086045 -0.000067 0.000000 
0.086178 -0.000067 0.000000 
0.086312 -0.000067 0.000000 
0.086445 -0.000067 0.000000 
0.086578 -0.000067 0.000000 
0.086712 -0.000067 0.000000 
0.086845 -0.000067 0.000000 
0.086978 -0.000067 0.000000 
0.087112 -0.000067 0.000000 
0.087245 -0.000067 0.000000 
0.087378 -0.000067 0.000000 
0.087511 -0.000067 0.000000 
0.087645 -0.000067 0.000000 
0.087778 -0.000067 0.000000 
0.087911 -0.000067 0.000000 
0.088045 -0.000067 0.000000 
0.088178 -0.000067 0.000000 
0.088311 -0.000067 0.000000 
0.088445 -0.000067 0.000000 
0.088578 -0.000067 0.000000 
0.088711 -0.000067 0.000000 
0.088844 -0.000067 0.000000 
0.088978 -0.000067 0.000000 
0.089111 -0.000067 0.000000 
0.089244 -0.000067 0.000000 
0.089378 -0.000067 0.000000 
0.089511 -0.000067 0.000000 
0.089644 -0.000067 0.000000 
0.089778 -0.000067 0.000000 
0.089911 -0.000067 0.000000 
0.090044 -0.000067 0.000000 
0.090177 -0.000067 0.000000 
0.090311 -0.000067 0.000000 
0.090444 -0.000067 0.000000 
0.090577 -0.000067 0.000000 
0.090711 -0.000067 0.000000 
0.090844 -0.000067 0.000000 
0.090977 -0.000067 0.000000 
0.091111 -0.000067 0.000000 
0.091244 -0.000067 0.000000 
0.091377 -0.000067 0.000000 
0.091510 -0.000067 0.000000 
0.091644 -0.000067 0.000000 